<event>
 9    1  0.1484717E-005  0.1039178E+03  0.7546771E-02  0.1272763E+00
          1   -1    0    0  502    0  0.00000000000E+00  0.00000000000E+00  0.33229101924E+03  0.33229101924E+03  0.00000000000E+00 0. -1.
         -1   -1    0    0    0  501 -0.00000000000E+00 -0.00000000000E+00 -0.63409128361E+02  0.63409128361E+02  0.00000000000E+00 0.  1.
         23    2    1    2    0    0 -0.34295886242E+02  0.87963450998E+01  0.59640651167E+02  0.11466517213E+03  0.91309971679E+02 0.  0.
         23    2    1    2    0    0  0.53528824252E+02 -0.15154902853E+02  0.22925522629E+03  0.25255872536E+03  0.90182841317E+02 0.  0.
        -11    1    3    3    0    0 -0.58270974563E+02  0.28557528633E+02  0.29168345665E+02  0.71146548103E+02  0.00000000000E+00 0.  1.
         11    1    3    3    0    0  0.23975088322E+02 -0.19761183534E+02  0.30472305502E+02  0.43518624028E+02  0.00000000000E+00 0. -1.
        -13    1    4    4    0    0  0.67530781850E+02 -0.38967431001E+02  0.17818514912E+03  0.19449630985E+03  0.00000000000E+00 0. -1.
         13    1    4    4    0    0 -0.14001957598E+02  0.23812528148E+02  0.51070077164E+02  0.58062415510E+02  0.00000000000E+00 0.  1.
         21    1    1    2  502  501 -0.19232938011E+02  0.63585577533E+01 -0.20013986581E+02  0.28476250106E+02  0.00000000000E+00 0.  1.
<scales pt_clust_5="13000.00000" pt_clust_6="13000.00000" pt_clust_7="13000.00000" pt_clust_8="13000.00000" pt_clust_9="20.25678"></scales>
<clustering>
<clus scale="   20.257">  2  9  1 -1</clus>
<clus scale="   90.183">  7  8 -1 -1</clus>
<clus scale="   91.310">  5  6 -1 -1</clus>
<clus scale="  102.929">  1  7  2 -1</clus>
<clus scale="  102.929">  1  5  2 -1</clus>
</clustering>
</event>
<event>
 9    1  0.1484717E-005  0.1155267E+03  0.7546771E-02  0.1252745E+00
         -3   -1    0    0    0  501 -0.00000000000E+00  0.00000000000E+00  0.48213476421E+02  0.48213476421E+02  0.00000000000E+00 0.  1.
          3   -1    0    0  502    0  0.00000000000E+00 -0.00000000000E+00 -0.52179180889E+03  0.52179180889E+03  0.00000000000E+00 0. -1.
         23    2    1    2    0    0 -0.40868970518E+02 -0.49017378559E+02 -0.48717692311E+02  0.11758498648E+03  0.85905991341E+02 0.  0.
         23    2    1    2    0    0  0.28722213841E+02  0.66027147500E+02 -0.41120689248E+03  0.42745430671E+03  0.91877778208E+02 0.  0.
        -11    1    3    3    0    0 -0.38743466400E+02  0.11755496711E+02 -0.13614380624E+01  0.40510509812E+02  0.00000000000E+00 0.  1.
         11    1    3    3    0    0 -0.21255041175E+01 -0.60772875271E+02 -0.47356254249E+02  0.77074476663E+02  0.00000000000E+00 0. -1.
        -13    1    4    4    0    0  0.58953463885E+02  0.50539434510E+02 -0.33718569817E+03  0.34601147437E+03  0.00000000000E+00 0. -1.
         13    1    4    4    0    0 -0.30231250044E+02  0.15487712989E+02 -0.74021194307E+02  0.81442832339E+02  0.00000000000E+00 0.  1.
         21    1    1    2  502  501  0.12146756677E+02 -0.17009768940E+02 -0.13653747682E+02  0.24965992128E+02  0.00000000000E+00 0.  1.
<scales pt_clust_5="13000.00000" pt_clust_6="13000.00000" pt_clust_7="13000.00000" pt_clust_8="13000.00000" pt_clust_9="20.90158"></scales>
<clustering>
<clus scale="   20.902">  1  9  2 -1</clus>
<clus scale="   85.906">  5  6 -1 -1</clus>
<clus scale="   91.878">  7  8 -1 -1</clus>
<clus scale="  110.836">  1  5  2 -1</clus>
<clus scale="  115.527">  2  5  1 -1</clus>
</clustering>
</event>
<event>
 9    1  0.1484717E-005  0.1213699E+03  0.7546771E-02  0.1241425E+00
         -3   -1    0    0    0  501 -0.00000000000E+00  0.00000000000E+00  0.10651370793E+03  0.10651370793E+03  0.00000000000E+00 0.  1.
          3   -1    0    0  502    0  0.00000000000E+00 -0.00000000000E+00 -0.61132630646E+03  0.61132630646E+03  0.00000000000E+00 0. -1.
         23    2    1    2    0    0  0.91094913194E+02 -0.11685860122E+02 -0.34685565484E+02  0.13311028786E+03  0.89891143857E+02 0.  0.
         23    2    1    2    0    0 -0.63442548127E+02  0.47311297621E+02 -0.51020605089E+03  0.52439604802E+03  0.91747942831E+02 0.  0.
        -13    1    4    4    0    0 -0.24969925075E+02 -0.26946588866E+02 -0.18467852243E+03  0.18829703252E+03  0.00000000000E+00 0.  1.
         13    1    4    4    0    0 -0.38472623052E+02  0.74257886487E+02 -0.32552752847E+03  0.33609901550E+03  0.00000000000E+00 0. -1.
        -13    1    3    3    0    0  0.91798285059E+02 -0.37769738794E+02 -0.14928386286E+02  0.10038094951E+03  0.00000000000E+00 0.  1.
         13    1    3    3    0    0 -0.70337186430E+00  0.26083878672E+02 -0.19757179198E+02  0.32729338343E+02  0.00000000000E+00 0. -1.
         21    1    1    2  502  501 -0.27652365068E+02 -0.35625437499E+02  0.40079017847E+02  0.60333678508E+02  0.00000000000E+00 0. -1.
<scales pt_clust_5="13000.00000" pt_clust_6="13000.00000" pt_clust_7="13000.00000" pt_clust_8="13000.00000" pt_clust_9="45.09795"></scales>
<clustering>
<clus scale="   45.098">  1  9  2 -1</clus>
<clus scale="   89.891">  7  8 -1 -1</clus>
<clus scale="   91.748">  5  6 -1 -1</clus>
<clus scale="  119.972">  1  7  2 -1</clus>
<clus scale="  121.370">  2  5  1 -1</clus>
</clustering>
</event>
<event>
 9    1  0.1484717E-005  0.1001295E+03  0.7546771E-02  0.1283516E+00
          2   -1    0    0  502    0  0.00000000000E+00  0.00000000000E+00  0.76629560646E+02  0.76629560646E+02  0.00000000000E+00 0.  1.
         -2   -1    0    0    0  501 -0.00000000000E+00 -0.00000000000E+00 -0.18062014121E+03  0.18062014121E+03  0.00000000000E+00 0. -1.
         23    2    1    2    0    0  0.42024075623E+02 -0.91901583996E+01 -0.30940860131E+02  0.10295263690E+03  0.88269058428E+02 0.  0.
         23    2    1    2    0    0 -0.20873055665E+02  0.12788263998E+01 -0.23921885744E+02  0.10022767472E+03  0.95057931349E+02 0.  0.
        -11    1    4    4    0    0  0.37321836306E+02 -0.42938226166E+01 -0.14489599053E+01  0.37595955404E+02  0.00000000000E+00 0.  1.
         11    1    4    4    0    0 -0.58194891971E+02  0.55726490164E+01 -0.22472925839E+02  0.62631719315E+02  0.00000000000E+00 0. -1.
        -11    1    3    3    0    0 -0.18284674592E+02 -0.29290462978E+02 -0.13049526978E+02  0.36912744422E+02  0.00000000000E+00 0.  1.
         11    1    3    3    0    0  0.60308750215E+02  0.20100304578E+02 -0.17891333154E+02  0.66039892479E+02  0.00000000000E+00 0. -1.
         21    1    1    2  502  501 -0.21151019958E+02  0.79113319998E+01 -0.49127834688E+02  0.54069390235E+02  0.00000000000E+00 0. -1.
<scales pt_clust_5="13000.00000" pt_clust_6="13000.00000" pt_clust_7="13000.00000" pt_clust_8="13000.00000" pt_clust_9="22.58218"></scales>
<clustering>
<clus scale="   22.582">  2  9  1 -1</clus>
<clus scale="   88.269">  7  8 -1 -1</clus>
<clus scale="   93.709">  2  7  1 -1</clus>
<clus scale="   95.058">  5  6 -1 -1</clus>
<clus scale="  100.130">  1  5  2 -1</clus>
</clustering>
</event>
<event>
 9    1  0.1484717E-005  0.9336703E+02  0.7546771E-02  0.1299373E+00
          3   -1    0    0  502    0  0.00000000000E+00  0.00000000000E+00  0.17089785323E+02  0.17089785323E+02  0.00000000000E+00 0. -1.
         -3   -1    0    0    0  501 -0.00000000000E+00 -0.00000000000E+00 -0.68539186772E+03  0.68539186772E+03  0.00000000000E+00 0.  1.
         23    2    1    2    0    0 -0.12884779970E+02  0.10603704540E+02 -0.28527525650E+03  0.30061918148E+03  0.93335224842E+02 0.  0.
         23    2    1    2    0    0 -0.88434250099E+01  0.13045022902E+02 -0.24356658717E+03  0.25875225046E+03  0.85904982043E+02 0.  0.
        -11    1    4    4    0    0 -0.44437594185E+02 -0.23338215117E+01 -0.16832262906E+03  0.17410529560E+03  0.00000000000E+00 0.  1.
         11    1    4    4    0    0  0.35594169175E+02  0.15378844414E+02 -0.75243958110E+02  0.84646954859E+02  0.00000000000E+00 0. -1.
        -13    1    3    3    0    0  0.29043120974E+01  0.48895136566E+02 -0.10829651519E+03  0.11885833841E+03  0.00000000000E+00 0. -1.
         13    1    3    3    0    0 -0.15789092068E+02 -0.38291432026E+02 -0.17697874131E+03  0.18176084307E+03  0.00000000000E+00 0.  1.
         21    1    1    2  502  501  0.21728204980E+02 -0.23648727442E+02 -0.13946023872E+03  0.14311022111E+03  0.00000000000E+00 0. -1.
<scales pt_clust_5="13000.00000" pt_clust_6="13000.00000" pt_clust_7="13000.00000" pt_clust_8="13000.00000" pt_clust_9="32.11506"></scales>
<clustering>
<clus scale="   32.115">  2  9  1 -1</clus>
<clus scale="   85.905">  5  6 -1 -1</clus>
<clus scale="   85.940">  1  5  2 -1</clus>
<clus scale="   93.335">  7  8 -1 -1</clus>
<clus scale="   85.940">  1  5  2 -1</clus>
</clustering>
</event>
<event>
 9    1  0.1484717E-005  0.2103071E+03  0.7546771E-02  0.1142003E+00
          1   -1    0    0  502    0  0.00000000000E+00  0.00000000000E+00  0.31276133848E+03  0.31276133848E+03  0.00000000000E+00 0. -1.
         -1   -1    0    0    0  501 -0.00000000000E+00 -0.00000000000E+00 -0.32044391875E+03  0.32044391875E+03  0.00000000000E+00 0.  1.
         23    2    1    2    0    0 -0.13274660561E+03 -0.18148914436E+03 -0.17319301624E+03  0.29813682354E+03  0.91267594756E+02 0.  0.
         23    2    1    2    0    0  0.93401579073E+02  0.15204768370E+03  0.19125149608E+03  0.27959381883E+03  0.98758370201E+02 0.  0.
        -11    1    4    4    0    0  0.70683096673E+02  0.25169701001E+02  0.68336299532E+02  0.10148627413E+03  0.00000000000E+00 0.  1.
         11    1    4    4    0    0  0.22718482401E+02  0.12687798270E+03  0.12291519655E+03  0.17810754470E+03  0.00000000000E+00 0. -1.
        -11    1    3    3    0    0 -0.11932541267E+03 -0.14812905165E+03 -0.17960849208E+03  0.26161036003E+03  0.00000000000E+00 0.  1.
         11    1    3    3    0    0 -0.13421192944E+02 -0.33360092712E+02  0.64154758387E+01  0.36526463503E+02  0.00000000000E+00 0. -1.
         21    1    1    2  502  501  0.39345026541E+02  0.29441460656E+02 -0.25741060109E+02  0.55474614866E+02  0.00000000000E+00 0.  1.
<scales pt_clust_5="13000.00000" pt_clust_6="13000.00000" pt_clust_7="13000.00000" pt_clust_8="13000.00000" pt_clust_9="49.14093"></scales>
<clustering>
<clus scale="   49.141">  2  9  1 -1</clus>
<clus scale="   91.268">  7  8 -1 -1</clus>
<clus scale="   98.758">  5  6 -1 -1</clus>
<clus scale="  206.895">  2  7  1 -1</clus>
<clus scale="  210.307">  1  5  2 -1</clus>
</clustering>
</event>
<event>
 9    1  0.1484717E-005  0.1079763E+03  0.7546771E-02  0.1264481E+00
          2   -1    0    0  502    0  0.00000000000E+00  0.00000000000E+00  0.89965506888E+02  0.89965506888E+02  0.00000000000E+00 0. -1.
         -2   -1    0    0    0  501 -0.00000000000E+00 -0.00000000000E+00 -0.24163225360E+03  0.24163225360E+03  0.00000000000E+00 0.  1.
         23    2    1    2    0    0  0.15080969873E+02 -0.89179072235E+02 -0.11359176144E+03  0.16977699765E+03  0.87981805432E+02 0.  0.
         23    2    1    2    0    0  0.10089955616E+02  0.52223822319E+02  0.38540157549E-01  0.10306783264E+03  0.88282737938E+02 0.  0.
        -13    1    3    3    0    0 -0.55431968757E+01 -0.10150334942E+03 -0.97543009129E+02  0.14088397924E+03  0.00000000000E+00 0.  1.
         13    1    3    3    0    0  0.20624166748E+02  0.12324277188E+02 -0.16048752308E+02  0.28893018411E+02  0.00000000000E+00 0. -1.
        -13    1    4    4    0    0  0.14911464523E+02 -0.22821008551E+02  0.49561854871E+01  0.27707652013E+02  0.00000000000E+00 0.  1.
         13    1    4    4    0    0 -0.48215089074E+01  0.75044830870E+02 -0.49176453296E+01  0.75360180627E+02  0.00000000000E+00 0. -1.
         21    1    1    2  502  501 -0.25170925488E+02  0.36955249916E+02 -0.38113525437E+02  0.58752930204E+02  0.00000000000E+00 0. -1.
<scales pt_clust_5="13000.00000" pt_clust_6="13000.00000" pt_clust_7="13000.00000" pt_clust_8="13000.00000" pt_clust_9="44.71315"></scales>
<clustering>
<clus scale="   44.713">  2  9  1 -1</clus>
<clus scale="   87.982">  5  6 -1 -1</clus>
<clus scale="   88.283">  7  8 -1 -1</clus>
<clus scale="  107.730">  2  5  1 -1</clus>
<clus scale="  107.976">  1  5  2 -1</clus>
</clustering>
</event>
<event>
 9    1  0.1484717E-005  0.2033703E+03  0.7546771E-02  0.1172676E+00
         -1   -1    0    0    0  501 -0.00000000000E+00  0.00000000000E+00  0.17680833834E+03  0.17680833834E+03  0.00000000000E+00 0.  1.
          1   -1    0    0  502    0  0.00000000000E+00 -0.00000000000E+00 -0.88738250587E+03  0.88738250587E+03  0.00000000000E+00 0. -1.
         23    2    1    2    0    0 -0.91807416015E+01  0.63495570616E+02  0.10287411736E+03  0.15181485972E+03  0.91371188586E+02 0.  0.
         23    2    1    2    0    0  0.11328110745E+03 -0.16730398429E+03 -0.67468996433E+03  0.71022024144E+03  0.91558784005E+02 0.  0.
        -11    1    3    3    0    0  0.27503680138E+02  0.69013979424E+02  0.73374342569E+02  0.10441827390E+03  0.00000000000E+00 0.  1.
         11    1    3    3    0    0 -0.36684421740E+02 -0.55184088083E+01  0.29499774795E+02  0.47396585817E+02  0.00000000000E+00 0. -1.
        -11    1    4    4    0    0  0.12135701812E+03 -0.14148799734E+03 -0.63776491891E+03  0.66444749306E+03  0.00000000000E+00 0. -1.
         11    1    4    4    0    0 -0.80759106787E+01 -0.25815986952E+02 -0.36925045411E+02  0.45772748380E+02  0.00000000000E+00 0.  1.
         21    1    1    2  502  501 -0.10410036584E+03  0.10380841368E+03 -0.13875832057E+03  0.20215574304E+03  0.00000000000E+00 0. -1.
<scales pt_clust_5="13000.00000" pt_clust_6="13000.00000" pt_clust_7="13000.00000" pt_clust_8="13000.00000" pt_clust_9="181.59429"></scales>
<clustering>
<clus scale="   91.371">  5  6 -1 -1</clus>
<clus scale="   91.559">  7  8 -1 -1</clus>
<clus scale="  111.645">  1  5  2 -1</clus>
<clus scale="  181.594">  1  9  2 -1</clus>
<clus scale="  203.370">  2  5  1 -1</clus>
</clustering>
</event>
<event>
 9    1  0.1484717E-005  0.1496792E+03  0.7546771E-02  0.1201165E+00
         -1   -1    0    0    0  501 -0.00000000000E+00  0.00000000000E+00  0.79646718574E+02  0.79646718574E+02  0.00000000000E+00 0.  1.
          1   -1    0    0  502    0  0.00000000000E+00 -0.00000000000E+00 -0.61265119082E+03  0.61265119082E+03  0.00000000000E+00 0. -1.
         23    2    1    2    0    0 -0.14283875253E+02  0.11890309698E+03 -0.31421560378E+02  0.15355065015E+03  0.90821319869E+02 0.  0.
         23    2    1    2    0    0  0.40471760505E+02 -0.11072851281E+03 -0.48279954038E+03  0.50549903817E+03  0.92385683122E+02 0.  0.
        -13    1    4    4    0    0 -0.12367621440E+02 -0.40278153848E+02 -0.58126253886E+02  0.71791010080E+02  0.00000000000E+00 0.  1.
         13    1    4    4    0    0  0.52839381945E+02 -0.70450358957E+02 -0.42467328650E+03  0.43370802809E+03  0.00000000000E+00 0. -1.
        -13    1    3    3    0    0  0.70337058978E+01  0.11573744704E+03 -0.61323879606E+00  0.11595260121E+03  0.00000000000E+00 0.  1.
         13    1    3    3    0    0 -0.21317581151E+02  0.31656499400E+01 -0.30808321582E+02  0.37598048943E+02  0.00000000000E+00 0. -1.
         21    1    1    2  502  501 -0.26187885252E+02 -0.81745841738E+01 -0.18783371488E+02  0.33248221078E+02  0.00000000000E+00 0. -1.
<scales pt_clust_5="13000.00000" pt_clust_6="13000.00000" pt_clust_7="13000.00000" pt_clust_8="13000.00000" pt_clust_9="27.43409"></scales>
<clustering>
<clus scale="   27.434">  1  9  2 -1</clus>
<clus scale="   90.821">  7  8 -1 -1</clus>
<clus scale="   92.386">  5  6 -1 -1</clus>
<clus scale="  148.719">  1  7  2 -1</clus>
<clus scale="  149.679">  2  5  1 -1</clus>
</clustering>
</event>
<event>
 9    1  0.1484717E-005  0.1155517E+03  0.7546771E-02  0.1251698E+00
          1   -1    0    0  502    0  0.00000000000E+00  0.00000000000E+00  0.76440670605E+02  0.76440670605E+02  0.00000000000E+00 0. -1.
         -1   -1    0    0    0  501 -0.00000000000E+00 -0.00000000000E+00 -0.34372179996E+03  0.34372179996E+03  0.00000000000E+00 0.  1.
         23    2    1    2    0    0 -0.47395509255E+02  0.11423645752E+02 -0.15872055809E+03  0.18882648430E+03  0.89924366190E+02 0.  0.
         23    2    1    2    0    0  0.72644256322E+02  0.32613684177E+02 -0.12983394577E+02  0.12311499773E+03  0.92994052273E+02 0.  0.
        -11    1    3    3    0    0 -0.31651138417E+02 -0.27000807837E+02 -0.13442606067E+03  0.14071675086E+03  0.00000000000E+00 0.  1.
         11    1    3    3    0    0 -0.15744370837E+02  0.38424453589E+02 -0.24294497419E+02  0.48109733438E+02  0.00000000000E+00 0. -1.
        -13    1    4    4    0    0 -0.26027237925E+01  0.45663892785E+02 -0.56385688983E+00  0.45741482377E+02  0.00000000000E+00 0.  1.
         13    1    4    4    0    0  0.75246980114E+02 -0.13050208608E+02 -0.12419537687E+02  0.77373515349E+02  0.00000000000E+00 0. -1.
         21    1    1    2  502  501 -0.25248747067E+02 -0.44037329929E+02 -0.95577176687E+02  0.10822098853E+03  0.00000000000E+00 0. -1.
<scales pt_clust_5="13000.00000" pt_clust_6="13000.00000" pt_clust_7="13000.00000" pt_clust_8="13000.00000" pt_clust_9="50.76205"></scales>
<clustering>
<clus scale="   50.762">  2  9  1 -1</clus>
<clus scale="   89.924">  5  6 -1 -1</clus>
<clus scale="   92.994">  7  8 -1 -1</clus>
<clus scale="  113.096">  2  5  1 -1</clus>
<clus scale="  115.552">  1  5  2 -1</clus>
</clustering>
</event>
<event>
 9    1  0.1484717E-005  0.2377978E+03  0.7546771E-02  0.1121586E+00
          1   -1    0    0  502    0  0.00000000000E+00  0.00000000000E+00  0.18688711538E+03  0.18688711538E+03  0.00000000000E+00 0. -1.
         -1   -1    0    0    0  501 -0.00000000000E+00 -0.00000000000E+00 -0.96607721767E+03  0.96607721767E+03  0.00000000000E+00 0.  1.
         23    2    1    2    0    0  0.16889624865E+03 -0.24034997704E+03 -0.29182945385E+03  0.42384635151E+03  0.90483397793E+02 0.  0.
         23    2    1    2    0    0 -0.14464885085E+03  0.13800275117E+03  0.13025533165E+02  0.21779692616E+03  0.85427086731E+02 0.  0.
        -11    1    3    3    0    0  0.19136644448E+02 -0.10503759382E+02 -0.62775811950E+02  0.66463092675E+02  0.00000000000E+00 0. -1.
         11    1    3    3    0    0  0.14975960420E+03 -0.22984621766E+03 -0.22905364190E+03  0.35738325883E+03  0.00000000000E+00 0.  1.
        -11    1    4    4    0    0 -0.41214327030E+02  0.45268190239E+02  0.44094502886E+02  0.75446371582E+02  0.00000000000E+00 0.  1.
         11    1    4    4    0    0 -0.10343452382E+03  0.92734560927E+02 -0.31068969721E+02  0.14235055458E+03  0.00000000000E+00 0. -1.
         21    1    1    2  502  501 -0.24247397800E+02  0.10234722588E+03 -0.50038618160E+03  0.51132105538E+03  0.00000000000E+00 0. -1.
<scales pt_clust_5="13000.00000" pt_clust_6="13000.00000" pt_clust_7="13000.00000" pt_clust_8="13000.00000" pt_clust_9="105.18028"></scales>
<clustering>
<clus scale="   85.427">  7  8 -1 -1</clus>
<clus scale="   90.483">  5  6 -1 -1</clus>
<clus scale="  105.180">  2  9  1 -1</clus>
<clus scale="  235.920">  1  7  2 -1</clus>
<clus scale="  235.920">  1  5  2 -1</clus>
</clustering>
</event>
<event>
 9    1  0.1484717E-005  0.3378577E+03  0.7546771E-02  0.1067769E+00
         -1   -1    0    0    0  501 -0.00000000000E+00  0.00000000000E+00  0.35850531325E+03  0.35850531325E+03  0.00000000000E+00 0.  1.
          1   -1    0    0  502    0  0.00000000000E+00 -0.00000000000E+00 -0.11805828282E+04  0.11805828282E+04  0.00000000000E+00 0. -1.
         23    2    1    2    0    0 -0.16158449427E+03 -0.29460448751E+03 -0.38419777634E+03  0.51810085567E+03  0.88989957055E+02 0.  0.
         23    2    1    2    0    0  0.18123875544E+03  0.26469643787E+03 -0.69024286919E+03  0.76609921019E+03  0.86954532370E+02 0.  0.
        -13    1    4    4    0    0  0.63075257366E+02  0.16582360733E+03 -0.34139779362E+03  0.38474460403E+03  0.00000000000E+00 0.  1.
         13    1    4    4    0    0  0.11816349807E+03  0.98872830539E+02 -0.34884507556E+03  0.38135460616E+03  0.00000000000E+00 0. -1.
        -13    1    3    3    0    0 -0.15904905828E+03 -0.26650301875E+03 -0.30972966779E+03  0.43846656549E+03  0.00000000000E+00 0.  1.
         13    1    3    3    0    0 -0.25354359933E+01 -0.28101468754E+02 -0.74468108554E+02  0.79634290186E+02  0.00000000000E+00 0. -1.
         21    1    1    2  502  501 -0.19654261165E+02  0.29908049637E+02  0.25236313057E+03  0.25488807560E+03  0.00000000000E+00 0.  1.
<scales pt_clust_5="13000.00000" pt_clust_6="13000.00000" pt_clust_7="13000.00000" pt_clust_8="13000.00000" pt_clust_9="35.78801"></scales>
<clustering>
<clus scale="   35.788">  1  9  2 -1</clus>
<clus scale="   86.955">  5  6 -1 -1</clus>
<clus scale="   88.990">  7  8 -1 -1</clus>
<clus scale="  337.327">  2  5  1 -1</clus>
<clus scale="  337.327">  2  5  1 -1</clus>
</clustering>
</event>
<event>
 9    1  0.1484717E-005  0.1546699E+03  0.7546771E-02  0.1194929E+00
          1   -1    0    0  502    0  0.00000000000E+00  0.00000000000E+00  0.53272055037E+03  0.53272055037E+03  0.00000000000E+00 0. -1.
         -1   -1    0    0    0  501 -0.00000000000E+00 -0.00000000000E+00 -0.62072677255E+02  0.62072677255E+02  0.00000000000E+00 0.  1.
         23    2    1    2    0    0 -0.12474121972E+03  0.67184824910E+02  0.19864204202E+03  0.25973390249E+03  0.89044183711E+02 0.  0.
         23    2    1    2    0    0  0.98641617387E+02 -0.62464753164E+02  0.27118658443E+03  0.30852369844E+03  0.89513657371E+02 0.  0.
        -13    1    3    3    0    0 -0.12737250170E+03  0.34092875009E+02  0.17436540076E+03  0.21860780246E+03  0.00000000000E+00 0. -1.
         13    1    3    3    0    0  0.26312819794E+01  0.33091949901E+02  0.24276641259E+02  0.41126100033E+02  0.00000000000E+00 0.  1.
        -13    1    4    4    0    0  0.67316053343E+02 -0.72598080448E+02  0.12920897670E+03  0.16277865948E+03  0.00000000000E+00 0.  1.
         13    1    4    4    0    0  0.31325564045E+02  0.10133327285E+02  0.14197760773E+03  0.14574503896E+03  0.00000000000E+00 0. -1.
         21    1    1    2  502  501  0.26099602330E+02 -0.47200717469E+01  0.81924667253E+00  0.26535626697E+02  0.00000000000E+00 0.  1.
<scales pt_clust_5="13000.00000" pt_clust_6="13000.00000" pt_clust_7="13000.00000" pt_clust_8="13000.00000" pt_clust_9="26.52298"></scales>
<clustering>
<clus scale="   26.523">  2  9  1 -1</clus>
<clus scale="   89.044">  5  6 -1 -1</clus>
<clus scale="   89.514">  7  8 -1 -1</clus>
<clus scale="  154.399">  2  5  1 -1</clus>
<clus scale="  154.670">  1  5  2 -1</clus>
</clustering>
</event>
<event>
 9    1  0.1484717E-005  0.9251490E+02  0.7546771E-02  0.1297032E+00
          2   -1    0    0  502    0  0.00000000000E+00  0.00000000000E+00  0.80280604653E+02  0.80280604653E+02  0.00000000000E+00 0. -1.
         -2   -1    0    0    0  501 -0.00000000000E+00 -0.00000000000E+00 -0.19344751797E+03  0.19344751797E+03  0.00000000000E+00 0.  1.
         23    2    1    2    0    0  0.19303422423E+02  0.67245263090E+01 -0.52947082938E+02  0.10788052837E+03  0.91744064866E+02 0.  0.
         23    2    1    2    0    0 -0.49533343151E-01  0.14036440698E+02  0.65608080895E+01  0.93312198275E+02  0.92016835542E+02 0.  0.
        -11    1    4    4    0    0  0.25951698972E+02  0.44529497399E+02 -0.45117680444E+01  0.51737055087E+02  0.00000000000E+00 0.  1.
         11    1    4    4    0    0 -0.26001232315E+02 -0.30493056701E+02  0.11072576134E+02  0.41575143188E+02  0.00000000000E+00 0. -1.
        -13    1    3    3    0    0 -0.13240874330E+02 -0.35036323002E+02 -0.77053630615E+01  0.38239211582E+02  0.00000000000E+00 0. -1.
         13    1    3    3    0    0  0.32544296753E+02  0.41760849311E+02 -0.45241719877E+02  0.69641316786E+02  0.00000000000E+00 0.  1.
         21    1    1    2  502  501 -0.19253889080E+02 -0.20760967007E+02 -0.66780638472E+02  0.72535395984E+02  0.00000000000E+00 0. -1.
<scales pt_clust_5="13000.00000" pt_clust_6="13000.00000" pt_clust_7="13000.00000" pt_clust_8="13000.00000" pt_clust_9="28.31484"></scales>
<clustering>
<clus scale="   28.315">  2  9  1 -1</clus>
<clus scale="   91.744">  7  8 -1 -1</clus>
<clus scale="   92.017">  5  6 -1 -1</clus>
<clus scale="   92.244">  2  7  1 -1</clus>
<clus scale="   92.515">  1  5  2 -1</clus>
</clustering>
</event>
<event>
 9    1  0.1484717E-005  0.2026595E+03  0.7546771E-02  0.1148361E+00
         -2   -1    0    0    0  501 -0.00000000000E+00  0.00000000000E+00  0.62496607759E+02  0.62496607759E+02  0.00000000000E+00 0.  1.
          2   -1    0    0  502    0  0.00000000000E+00 -0.00000000000E+00 -0.17832408971E+04  0.17832408971E+04  0.00000000000E+00 0. -1.
         23    2    1    2    0    0  0.14800217630E+03  0.13778416046E+03 -0.75181869807E+03  0.78294133548E+03  0.82925635182E+02 0.  0.
         23    2    1    2    0    0 -0.12857819458E+03 -0.10791530985E+03 -0.99837180171E+03  0.10165736791E+04  0.92183102760E+02 0.  0.
        -13    1    3    3    0    0  0.80441094762E+02  0.11959627737E+03 -0.42689722760E+03  0.45057217205E+03  0.00000000000E+00 0.  1.
         13    1    3    3    0    0  0.67561081539E+02  0.18187883087E+02 -0.32492147047E+03  0.33236916343E+03  0.00000000000E+00 0. -1.
        -13    1    4    4    0    0  0.11106195004E+02 -0.29035374926E+02 -0.15943833592E+03  0.16244070773E+03  0.00000000000E+00 0.  1.
         13    1    4    4    0    0 -0.13968438959E+03 -0.78879934924E+02 -0.83893346578E+03  0.85413297140E+03  0.00000000000E+00 0. -1.
         21    1    1    2  502  501 -0.19423981717E+02 -0.29868850611E+02  0.29446210391E+02  0.46222490294E+02  0.00000000000E+00 0.  1.
<scales pt_clust_5="13000.00000" pt_clust_6="13000.00000" pt_clust_7="13000.00000" pt_clust_8="13000.00000" pt_clust_9="35.62919"></scales>
<clustering>
<clus scale="   35.629">  1  9  2 -1</clus>
<clus scale="   82.926">  5  6 -1 -1</clus>
<clus scale="   92.183">  7  8 -1 -1</clus>
<clus scale="  198.620">  1  5  2 -1</clus>
<clus scale="  202.660">  2  5  1 -1</clus>
</clustering>
</event>
<event>
 9    1  0.1484717E-005  0.9610360E+02  0.7546771E-02  0.1291430E+00
          2   -1    0    0  502    0  0.00000000000E+00  0.00000000000E+00  0.12690613818E+03  0.12690613818E+03  0.00000000000E+00 0. -1.
         -2   -1    0    0    0  501 -0.00000000000E+00 -0.00000000000E+00 -0.25545423465E+03  0.25545423465E+03  0.00000000000E+00 0.  1.
         23    2    1    2    0    0  0.14395840073E+02  0.26241855705E+02 -0.20114179689E+03  0.22224301898E+03  0.89655238705E+02 0.  0.
         23    2    1    2    0    0 -0.17531623438E+02 -0.21167451749E-01  0.87334381000E+02  0.12987425061E+03  0.94512795956E+02 0.  0.
        -11    1    4    4    0    0 -0.17063403121E+02 -0.45986070746E+02  0.54877504868E+02  0.73603117932E+02  0.00000000000E+00 0.  1.
         11    1    4    4    0    0 -0.46822031635E+00  0.45964903294E+02  0.32456876132E+02  0.56271132682E+02  0.00000000000E+00 0. -1.
        -13    1    3    3    0    0 -0.27749924493E+02  0.40325073400E+02 -0.88187388747E+02  0.10086220991E+03  0.00000000000E+00 0. -1.
         13    1    3    3    0    0  0.42145764566E+02 -0.14083217695E+02 -0.11295440814E+03  0.12138080907E+03  0.00000000000E+00 0.  1.
         21    1    1    2  502  501  0.31357833646E+01 -0.26220688254E+02 -0.14740680582E+02  0.30243103244E+02  0.00000000000E+00 0.  1.
<scales pt_clust_5="13000.00000" pt_clust_6="13000.00000" pt_clust_7="13000.00000" pt_clust_8="13000.00000" pt_clust_9="26.40753"></scales>
<clustering>
<clus scale="   26.408">  2  9  1 -1</clus>
<clus scale="   89.655">  7  8 -1 -1</clus>
<clus scale="   91.331">  2  7  1 -1</clus>
<clus scale="   94.513">  5  6 -1 -1</clus>
<clus scale="   96.104">  1  5  2 -1</clus>
</clustering>
</event>
<event>
 9    1  0.1484717E-005  0.1037939E+03  0.7546771E-02  0.1273156E+00
          1   -1    0    0  502    0  0.00000000000E+00  0.00000000000E+00  0.33286716290E+03  0.33286716290E+03  0.00000000000E+00 0. -1.
         -1   -1    0    0    0  501 -0.00000000000E+00 -0.00000000000E+00 -0.59592418167E+02  0.59592418167E+02  0.00000000000E+00 0.  1.
         23    2    1    2    0    0 -0.26370918514E+01  0.33057554738E+02  0.33120280497E+02  0.10333628697E+03  0.92096031656E+02 0.  0.
         23    2    1    2    0    0 -0.34830253937E+02 -0.43285695081E+02  0.22221143899E+03  0.24634048200E+03  0.90658212359E+02 0.  0.
        -13    1    4    4    0    0 -0.64168744812E+02 -0.37884064968E+02  0.13546491967E+03  0.15460780915E+03  0.00000000000E+00 0. -1.
         13    1    4    4    0    0  0.29338490875E+02 -0.54016301132E+01  0.86746519317E+02  0.91732672851E+02  0.00000000000E+00 0.  1.
        -13    1    3    3    0    0 -0.12707565191E+02  0.58422746959E+02  0.43710021059E+02  0.74062578381E+02  0.00000000000E+00 0. -1.
         13    1    3    3    0    0  0.10070473339E+02 -0.25365192221E+02 -0.10589740562E+02  0.29273708594E+02  0.00000000000E+00 0.  1.
         21    1    1    2  502  501  0.37467345788E+02  0.10228140343E+02  0.17943025248E+02  0.42782812090E+02  0.00000000000E+00 0.  1.
<scales pt_clust_5="13000.00000" pt_clust_6="13000.00000" pt_clust_7="13000.00000" pt_clust_8="13000.00000" pt_clust_9="38.83834"></scales>
<clustering>
<clus scale="   38.838">  2  9  1 -1</clus>
<clus scale="   90.658">  5  6 -1 -1</clus>
<clus scale="   92.096">  7  8 -1 -1</clus>
<clus scale="  102.520">  1  5  2 -1</clus>
<clus scale="  102.520">  1  5  2 -1</clus>
</clustering>
</event>
<event>
 9    1  0.1484717E-005  0.9779434E+02  0.7546771E-02  0.1299008E+00
         -1   -1    0    0    0  501 -0.00000000000E+00  0.00000000000E+00  0.17636797389E+03  0.17636797389E+03  0.00000000000E+00 0.  1.
          1   -1    0    0  502    0  0.00000000000E+00 -0.00000000000E+00 -0.69067325535E+02  0.69067325535E+02  0.00000000000E+00 0. -1.
         23    2    1    2    0    0  0.27931645371E+02  0.26302487141E+01  0.62839095084E+02  0.95731920007E+02  0.66548881401E+02 0.  0.
         23    2    1    2    0    0 -0.32813862484E+02  0.31559153789E+02  0.12638330634E+02  0.10274096054E+03  0.91231835525E+02 0.  0.
        -11    1    4    4    0    0 -0.19179936864E+02  0.55761434076E+02  0.33665924793E+02  0.67901413832E+02  0.00000000000E+00 0.  1.
         11    1    4    4    0    0 -0.13633925621E+02 -0.24202280287E+02 -0.21027594159E+02  0.34839546711E+02  0.00000000000E+00 0. -1.
        -13    1    3    3    0    0 -0.59560677009E+01  0.27572778920E+02  0.36347813612E+02  0.46009742818E+02  0.00000000000E+00 0. -1.
         13    1    3    3    0    0  0.33887713072E+02 -0.24942530206E+02  0.26491281472E+02  0.49722177188E+02  0.00000000000E+00 0.  1.
         21    1    1    2  502  501  0.48822171131E+01 -0.34189402503E+02  0.31823222635E+02  0.46962418872E+02  0.00000000000E+00 0.  1.
<scales pt_clust_5="13000.00000" pt_clust_6="13000.00000" pt_clust_7="13000.00000" pt_clust_8="13000.00000" pt_clust_9="34.53623"></scales>
<clustering>
<clus scale="   34.536">  1  9  2 -1</clus>
<clus scale="   66.549">  7  8 -1 -1</clus>
<clus scale="   75.294">  1  7  2 -1</clus>
<clus scale="   91.232">  5  6 -1 -1</clus>
<clus scale="   97.794">  2  5  1 -1</clus>
</clustering>
</event>
<event>
 9    1  0.1484717E-005  0.9679777E+02  0.7546771E-02  0.1289435E+00
          3   -1    0    0  502    0  0.00000000000E+00  0.00000000000E+00  0.44661193669E+03  0.44661193669E+03  0.00000000000E+00 0. -1.
         -3   -1    0    0    0  501 -0.00000000000E+00 -0.00000000000E+00 -0.37981167767E+02  0.37981167767E+02  0.00000000000E+00 0.  1.
         23    2    1    2    0    0  0.18940483649E+02 -0.18081263701E+02  0.17528253103E+03  0.19985534345E+03  0.92371633103E+02 0.  0.
         23    2    1    2    0    0 -0.29976307358E+01  0.33902624694E+02  0.24267034351E+03  0.26041921509E+03  0.88152698292E+02 0.  0.
        -13    1    4    4    0    0 -0.35245386246E+02 -0.47046999804E+01  0.15783887080E+03  0.16179456291E+03  0.00000000000E+00 0.  1.
         13    1    4    4    0    0  0.32247755510E+02  0.38607324674E+02  0.84831472713E+02  0.98624652175E+02  0.00000000000E+00 0. -1.
        -13    1    3    3    0    0 -0.35842763816E+02 -0.92947456917E+01  0.45173823352E+02  0.58410361510E+02  0.00000000000E+00 0.  1.
         13    1    3    3    0    0  0.54783247465E+02 -0.87865180093E+01  0.13010870768E+03  0.14144498194E+03  0.00000000000E+00 0. -1.
         21    1    1    2  502  501 -0.15942852913E+02 -0.15821360993E+02 -0.93221056176E+01  0.24318545923E+02  0.00000000000E+00 0. -1.
<scales pt_clust_5="13000.00000" pt_clust_6="13000.00000" pt_clust_7="13000.00000" pt_clust_8="13000.00000" pt_clust_9="22.46086"></scales>
<clustering>
<clus scale="   22.461">  2  9  1 -1</clus>
<clus scale="   88.153">  5  6 -1 -1</clus>
<clus scale="   92.372">  7  8 -1 -1</clus>
<clus scale="   92.780">  1  5  2 -1</clus>
<clus scale="   92.780">  1  5  2 -1</clus>
</clustering>
</event>
<event>
 9    1  0.1484717E-005  0.1069314E+03  0.7546771E-02  0.1266967E+00
         -2   -1    0    0    0  501 -0.00000000000E+00  0.00000000000E+00  0.41126045195E+03  0.41126045195E+03  0.00000000000E+00 0.  1.
          2   -1    0    0  502    0  0.00000000000E+00 -0.00000000000E+00 -0.43199783507E+02  0.43199783507E+02  0.00000000000E+00 0. -1.
         23    2    1    2    0    0  0.40587654235E+02  0.24394329382E+02  0.19566367531E+03  0.22098027850E+03  0.91134892699E+02 0.  0.
         23    2    1    2    0    0 -0.30127492339E+02 -0.63753486388E+02  0.13434571289E+03  0.17774434756E+03  0.92585688396E+02 0.  0.
        -11    1    4    4    0    0 -0.23474562333E+01 -0.74318487281E+02  0.53482687125E+02  0.91592280923E+02  0.00000000000E+00 0.  1.
         11    1    4    4    0    0 -0.27780036106E+02  0.10565000892E+02  0.80863025762E+02  0.86152066634E+02  0.00000000000E+00 0. -1.
        -13    1    3    3    0    0 -0.16054299558E+02 -0.23316328311E+02  0.62395755775E+02  0.68517311965E+02  0.00000000000E+00 0.  1.
         13    1    3    3    0    0  0.56641953793E+02  0.47710657694E+02  0.13326791954E+03  0.15246296654E+03  0.00000000000E+00 0. -1.
         21    1    1    2  502  501 -0.10460161896E+02  0.39359157006E+02  0.38051280244E+02  0.55735609401E+02  0.00000000000E+00 0. -1.
<scales pt_clust_5="13000.00000" pt_clust_6="13000.00000" pt_clust_7="13000.00000" pt_clust_8="13000.00000" pt_clust_9="40.72540"></scales>
<clustering>
<clus scale="   40.725">  2  9  1 -1</clus>
<clus scale="   91.135">  7  8 -1 -1</clus>
<clus scale="   92.586">  5  6 -1 -1</clus>
<clus scale="  105.678">  1  7  2 -1</clus>
<clus scale="   40.725">  2  5  1 -1</clus>
</clustering>
</event>
<event>
 9    1  0.1484717E-005  0.2171346E+03  0.7546771E-02  0.1136098E+00
         -1   -1    0    0    0  501 -0.00000000000E+00  0.00000000000E+00  0.81239561880E+02  0.81239561880E+02  0.00000000000E+00 0.  1.
          1   -1    0    0  502    0  0.00000000000E+00 -0.00000000000E+00 -0.79358596816E+03  0.79358596816E+03  0.00000000000E+00 0. -1.
         23    2    1    2    0    0  0.12903193704E+03  0.17565338618E+03 -0.21522744476E+03  0.31842484091E+03  0.86995249771E+02 0.  0.
         23    2    1    2    0    0 -0.10243217417E+03 -0.16051379428E+03 -0.47314791041E+03  0.51752439919E+03  0.87781149314E+02 0.  0.
        -13    1    3    3    0    0  0.91943934309E+02  0.65592943068E+02 -0.71645359156E+02  0.13375043449E+03  0.00000000000E+00 0. -1.
         13    1    3    3    0    0  0.37088002728E+02  0.11006044311E+03 -0.14358208560E+03  0.18467440643E+03  0.00000000000E+00 0.  1.
        -13    1    4    4    0    0 -0.29597454729E+02 -0.23814574890E+01 -0.34091661246E+02  0.45209755947E+02  0.00000000000E+00 0.  1.
         13    1    4    4    0    0 -0.72834719441E+02 -0.15813233679E+03 -0.43905624916E+03  0.47231464324E+03  0.00000000000E+00 0. -1.
         21    1    1    2  502  501 -0.26599762866E+02 -0.15139591906E+02 -0.23971051115E+02  0.38876289936E+02  0.00000000000E+00 0.  1.
<scales pt_clust_5="13000.00000" pt_clust_6="13000.00000" pt_clust_7="13000.00000" pt_clust_8="13000.00000" pt_clust_9="30.60645"></scales>
<clustering>
<clus scale="   30.606">  1  9  2 -1</clus>
<clus scale="   86.995">  5  6 -1 -1</clus>
<clus scale="   87.781">  7  8 -1 -1</clus>
<clus scale="  216.818">  1  5  2 -1</clus>
<clus scale="  217.135">  2  5  1 -1</clus>
</clustering>
</event>
<event>
 9    1  0.1484717E-005  0.1932912E+03  0.7546771E-02  0.1155544E+00
         -1   -1    0    0    0  501 -0.00000000000E+00  0.00000000000E+00  0.50426183146E+02  0.50426183146E+02  0.00000000000E+00 0.  1.
          1   -1    0    0  502    0  0.00000000000E+00 -0.00000000000E+00 -0.12111699438E+04  0.12111699438E+04  0.00000000000E+00 0. -1.
         23    2    1    2    0    0  0.13063215456E+03 -0.15332145222E+03 -0.40302515600E+03  0.46010121436E+03  0.93228877351E+02 0.  0.
         23    2    1    2    0    0 -0.67385759261E+02  0.14191545531E+03 -0.65758394665E+03  0.68251107747E+03  0.93401750420E+02 0.  0.
        -13    1    3    3    0    0  0.68348950132E+02 -0.10565738497E+03 -0.32904350573E+03  0.35228495660E+03  0.00000000000E+00 0. -1.
         13    1    3    3    0    0  0.62283204430E+02 -0.47664067253E+02 -0.73981650263E+02  0.10781625776E+03  0.00000000000E+00 0.  1.
        -13    1    4    4    0    0  0.14634237285E+02  0.54603897159E+02 -0.30326794918E+03  0.30849180781E+03  0.00000000000E+00 0.  1.
         13    1    4    4    0    0 -0.82019996546E+02  0.87311558150E+02 -0.35431599747E+03  0.37401926966E+03  0.00000000000E+00 0. -1.
         21    1    1    2  502  501 -0.63246395302E+02  0.11405996912E+02 -0.10013465804E+03  0.11898383514E+03  0.00000000000E+00 0. -1.
<scales pt_clust_5="13000.00000" pt_clust_6="13000.00000" pt_clust_7="13000.00000" pt_clust_8="13000.00000" pt_clust_9="64.26666"></scales>
<clustering>
<clus scale="   64.267">  1  9  2 -1</clus>
<clus scale="   93.229">  5  6 -1 -1</clus>
<clus scale="   93.402">  7  8 -1 -1</clus>
<clus scale="  193.208">  1  5  2 -1</clus>
<clus scale="  193.291">  2  5  1 -1</clus>
</clustering>
</event>
<event>
 9    1  0.1484717E-005  0.1033731E+03  0.7546771E-02  0.1274967E+00
         -1   -1    0    0    0  501 -0.00000000000E+00  0.00000000000E+00  0.62889267301E+03  0.62889267301E+03  0.00000000000E+00 0.  1.
          1   -1    0    0  502    0  0.00000000000E+00 -0.00000000000E+00 -0.34643032033E+02  0.34643032033E+02  0.00000000000E+00 0. -1.
         23    2    1    2    0    0  0.40055227028E+02  0.61458037848E+00  0.14986742444E+03  0.17994232202E+03  0.91182210024E+02 0.  0.
         23    2    1    2    0    0 -0.48670859894E+02  0.39861312736E+02  0.14159178253E+03  0.17798812459E+03  0.87600015756E+02 0.  0.
        -11    1    3    3    0    0  0.16778891961E+02 -0.31282329511E+02  0.13508989745E+02  0.37981681888E+02  0.00000000000E+00 0.  1.
         11    1    3    3    0    0  0.23276335067E+02  0.31896909890E+02  0.13635843469E+03  0.14196064013E+03  0.00000000000E+00 0. -1.
        -13    1    4    4    0    0 -0.36440880896E+02 -0.88638217173E+01  0.12607041245E+02  0.39565674832E+02  0.00000000000E+00 0. -1.
         13    1    4    4    0    0 -0.12229978998E+02  0.48725134453E+02  0.12898474129E+03  0.13842244976E+03  0.00000000000E+00 0.  1.
         21    1    1    2  502  501  0.86156328656E+01 -0.40475893115E+02  0.30279043401E+03  0.30560525843E+03  0.00000000000E+00 0.  1.
<scales pt_clust_5="13000.00000" pt_clust_6="13000.00000" pt_clust_7="13000.00000" pt_clust_8="13000.00000" pt_clust_9="41.38269"></scales>
<clustering>
<clus scale="   41.383">  1  9  2 -1</clus>
<clus scale="   87.600">  7  8 -1 -1</clus>
<clus scale="   91.182">  5  6 -1 -1</clus>
<clus scale="  100.228">  2  7  1 -1</clus>
<clus scale="  100.228">  2  5  1 -1</clus>
</clustering>
</event>
<event>
 9    1  0.1484717E-005  0.1085415E+03  0.7546771E-02  0.1264210E+00
          2   -1    0    0  502    0  0.00000000000E+00  0.00000000000E+00  0.64379592671E+03  0.64379592671E+03  0.00000000000E+00 0. -1.
         -2   -1    0    0    0  501 -0.00000000000E+00 -0.00000000000E+00 -0.26638769794E+02  0.26638769794E+02  0.00000000000E+00 0.  1.
         23    2    1    2    0    0  0.61646455184E+02 -0.83244157073E+01  0.22135691110E+03  0.24711298740E+03  0.90533778868E+02 0.  0.
         23    2    1    2    0    0 -0.52530782939E+02 -0.15599877782E+02  0.37547230251E+03  0.39063084527E+03  0.92790990814E+02 0.  0.
        -11    1    4    4    0    0 -0.48514007554E+02 -0.48337094979E+02  0.18385589566E+03  0.19619651895E+03  0.00000000000E+00 0.  1.
         11    1    4    4    0    0 -0.40167753848E+01  0.32737217196E+02  0.19161640685E+03  0.19443432631E+03  0.00000000000E+00 0. -1.
        -13    1    3    3    0    0  0.55097032335E+02  0.33916789984E+02  0.10714875920E+03  0.12516744071E+03  0.00000000000E+00 0. -1.
         13    1    3    3    0    0  0.65494228491E+01 -0.42241205691E+02  0.11420815190E+03  0.12194554669E+03  0.00000000000E+00 0.  1.
         21    1    1    2  502  501 -0.91156722451E+01  0.23924293490E+02  0.20327943301E+02  0.32690863835E+02  0.00000000000E+00 0.  1.
<scales pt_clust_5="13000.00000" pt_clust_6="13000.00000" pt_clust_7="13000.00000" pt_clust_8="13000.00000" pt_clust_9="25.60210"></scales>
<clustering>
<clus scale="   25.602">  2  9  1 -1</clus>
<clus scale="   90.534">  7  8 -1 -1</clus>
<clus scale="   92.791">  5  6 -1 -1</clus>
<clus scale="  106.618">  2  7  1 -1</clus>
<clus scale="  108.541">  1  5  2 -1</clus>
</clustering>
</event>
<event>
 9    1  0.1484717E-005  0.1014892E+03  0.7546771E-02  0.1277304E+00
          1   -1    0    0  502    0  0.00000000000E+00  0.00000000000E+00  0.14645908727E+03  0.14645908727E+03  0.00000000000E+00 0. -1.
         -1   -1    0    0    0  501 -0.00000000000E+00 -0.00000000000E+00 -0.11124132463E+03  0.11124132463E+03  0.00000000000E+00 0.  1.
         23    2    1    2    0    0 -0.20633690660E+02  0.41085243831E+02 -0.40246229009E+02  0.11048709419E+03  0.92053748337E+02 0.  0.
         23    2    1    2    0    0 -0.55464135076E+01 -0.39623256704E+02  0.58737518714E+02  0.11611170750E+03  0.91820843711E+02 0.  0.
        -11    1    3    3    0    0  0.15125588637E+02 -0.22509426339E+02  0.91733213003E-01  0.27119478622E+02  0.00000000000E+00 0. -1.
         11    1    3    3    0    0 -0.35759279297E+02  0.63594670170E+02 -0.40337962222E+02  0.83367615572E+02  0.00000000000E+00 0.  1.
        -13    1    4    4    0    0 -0.27002120233E+02  0.55475276334E+01 -0.11518358765E+02  0.29875778626E+02  0.00000000000E+00 0.  1.
         13    1    4    4    0    0  0.21455706725E+02 -0.45170784338E+02  0.70255877479E+02  0.86235928876E+02  0.00000000000E+00 0. -1.
         21    1    1    2  502  501  0.26180104168E+02 -0.14619871269E+01  0.16726472940E+02  0.31101610209E+02  0.00000000000E+00 0.  1.
<scales pt_clust_5="13000.00000" pt_clust_6="13000.00000" pt_clust_7="13000.00000" pt_clust_8="13000.00000" pt_clust_9="26.22089"></scales>
<clustering>
<clus scale="   26.221">  1  9  2 -1</clus>
<clus scale="   91.821">  7  8 -1 -1</clus>
<clus scale="   92.054">  5  6 -1 -1</clus>
<clus scale="  101.278">  1  7  2 -1</clus>
<clus scale="   26.221">  1  5  2 -1</clus>
</clustering>
</event>
<event>
 9    1  0.1484717E-005  0.3512094E+03  0.7546771E-02  0.1062176E+00
         -1   -1    0    0    0  501 -0.00000000000E+00  0.00000000000E+00  0.20812017211E+03  0.20812017211E+03  0.00000000000E+00 0.  1.
          1   -1    0    0  502    0  0.00000000000E+00 -0.00000000000E+00 -0.80409680436E+03  0.80409680436E+03  0.00000000000E+00 0. -1.
         23    2    1    2    0    0  0.28700206909E+03 -0.20642480907E+03 -0.10135581790E+03  0.37861715675E+03  0.89980887437E+02 0.  0.
         23    2    1    2    0    0 -0.27133001224E+03  0.19352719670E+03 -0.50403048042E+03  0.61122788224E+03  0.92087173020E+02 0.  0.
        -13    1    3    3    0    0  0.16897002578E+03 -0.17361154037E+03 -0.69458914069E+02  0.25202455695E+03  0.00000000000E+00 0.  1.
         13    1    3    3    0    0  0.11803204331E+03 -0.32813268695E+02 -0.31896903829E+02  0.12659259980E+03  0.00000000000E+00 0. -1.
        -13    1    4    4    0    0 -0.16864843040E+03  0.15226974471E+03 -0.39612979657E+03  0.45666966612E+03  0.00000000000E+00 0. -1.
         13    1    4    4    0    0 -0.10268158184E+03  0.41257451994E+02 -0.10790068386E+03  0.15455821612E+03  0.00000000000E+00 0.  1.
         21    1    1    2  502  501 -0.15672056855E+02  0.12897612367E+02  0.94096660762E+01  0.22371937477E+02  0.00000000000E+00 0. -1.
<scales pt_clust_5="13000.00000" pt_clust_6="13000.00000" pt_clust_7="13000.00000" pt_clust_8="13000.00000" pt_clust_9="20.29684"></scales>
<clustering>
<clus scale="   20.297">  1  9  2 -1</clus>
<clus scale="   89.981">  5  6 -1 -1</clus>
<clus scale="   92.087">  7  8 -1 -1</clus>
<clus scale="  350.663">  1  5  2 -1</clus>
<clus scale="  351.209">  2  5  1 -1</clus>
</clustering>
</event>
<event>
 9    1  0.1484717E-005  0.1599938E+03  0.7546771E-02  0.1189806E+00
         -1   -1    0    0    0  501 -0.00000000000E+00  0.00000000000E+00  0.66460216945E+02  0.66460216945E+02  0.00000000000E+00 0.  1.
          1   -1    0    0  502    0  0.00000000000E+00 -0.00000000000E+00 -0.56733529730E+03  0.56733529730E+03  0.00000000000E+00 0. -1.
         23    2    1    2    0    0 -0.30779448043E+02  0.10862053439E+03 -0.19511728005E+03  0.24319346565E+03  0.91249733426E+02 0.  0.
         23    2    1    2    0    0  0.33729139056E+02 -0.13474860768E+03 -0.31883066868E+03  0.36123749890E+03  0.97696945869E+02 0.  0.
        -11    1    4    4    0    0 -0.21513486226E+02 -0.12547121295E+02 -0.11198970952E+03  0.11472556551E+03  0.00000000000E+00 0.  1.
         11    1    4    4    0    0  0.55242625282E+02 -0.12220148638E+03 -0.20684095916E+03  0.24651193340E+03  0.00000000000E+00 0. -1.
        -13    1    3    3    0    0  0.19024769312E+02  0.61273371363E+02 -0.45820255256E+02  0.78840748838E+02  0.00000000000E+00 0.  1.
         13    1    3    3    0    0 -0.49804217356E+02  0.47347163026E+02 -0.14929702479E+03  0.16435271681E+03  0.00000000000E+00 0. -1.
         21    1    1    2  502  501 -0.29496910128E+01  0.26128073287E+02  0.13072868372E+02  0.29364549686E+02  0.00000000000E+00 0.  1.
<scales pt_clust_5="13000.00000" pt_clust_6="13000.00000" pt_clust_7="13000.00000" pt_clust_8="13000.00000" pt_clust_9="26.29405"></scales>
<clustering>
<clus scale="   26.294">  1  9  2 -1</clus>
<clus scale="   91.250">  7  8 -1 -1</clus>
<clus scale="   97.697">  5  6 -1 -1</clus>
<clus scale="  156.140">  1  7  2 -1</clus>
<clus scale="  159.994">  2  5  1 -1</clus>
</clustering>
</event>
<event>
 9    1  0.1484717E-005  0.2119661E+03  0.7546771E-02  0.1140077E+00
          4   -1    0    0  502    0  0.00000000000E+00  0.00000000000E+00  0.54798196805E+03  0.54798196805E+03  0.00000000000E+00 0. -1.
         -4   -1    0    0    0  501 -0.00000000000E+00 -0.00000000000E+00 -0.11819785822E+03  0.11819785822E+03  0.00000000000E+00 0.  1.
         23    2    1    2    0    0 -0.13370153077E+03  0.15807024625E+03  0.11352336317E+03  0.25297145153E+03  0.90800326139E+02 0.  0.
         23    2    1    2    0    0  0.64869610030E+02 -0.16161468569E+03  0.22557725169E+03  0.29930537819E+03  0.91494480699E+02 0.  0.
        -11    1    3    3    0    0 -0.28267685996E+02  0.10266375277E+03  0.61812079736E+02  0.12312449555E+03  0.00000000000E+00 0.  1.
         11    1    3    3    0    0 -0.10543384477E+03  0.55406493480E+02  0.51711283436E+02  0.12984695598E+03  0.00000000000E+00 0. -1.
        -13    1    4    4    0    0 -0.18331359967E+02 -0.39447805296E+02  0.84188386690E+02  0.94762083949E+02  0.00000000000E+00 0. -1.
         13    1    4    4    0    0  0.83200969997E+02 -0.12216688039E+03  0.14138886500E+03  0.20454329424E+03  0.00000000000E+00 0.  1.
         21    1    1    2  502  501  0.68831920736E+02  0.35444394427E+01  0.90683494972E+02  0.11390299655E+03  0.00000000000E+00 0.  1.
<scales pt_clust_5="13000.00000" pt_clust_6="13000.00000" pt_clust_7="13000.00000" pt_clust_8="13000.00000" pt_clust_9="68.92312"></scales>
<clustering>
<clus scale="   68.923">  1  9  2 -1</clus>
<clus scale="   90.800">  5  6 -1 -1</clus>
<clus scale="   91.494">  7  8 -1 -1</clus>
<clus scale="  211.667">  2  5  1 -1</clus>
<clus scale="   68.923">  1  5  2 -1</clus>
</clustering>
</event>
<event>
 9    1  0.1484717E-005  0.3766206E+03  0.7546771E-02  0.1085751E+00
          2   -1    0    0  502    0  0.00000000000E+00  0.00000000000E+00  0.23151589309E+04  0.23151589309E+04  0.00000000000E+00 0. -1.
         -2   -1    0    0    0  501 -0.00000000000E+00 -0.00000000000E+00 -0.21105571294E+03  0.21105571294E+03  0.00000000000E+00 0.  1.
         23    2    1    2    0    0  0.42294226230E+03 -0.17897572312E+03  0.16087948816E+04  0.16757104817E+04  0.94192254040E+02 0.  0.
         23    2    1    2    0    0 -0.11759777177E+03 -0.46448802061E+00  0.47249288944E+03  0.49560334241E+03  0.92432087296E+02 0.  0.
        -13    1    4    4    0    0 -0.64735534017E+02  0.45637197046E+02  0.26426129179E+03  0.27587582978E+03  0.00000000000E+00 0.  1.
         13    1    4    4    0    0 -0.52862237753E+02 -0.46101685067E+02  0.20823159765E+03  0.21972751263E+03  0.00000000000E+00 0. -1.
        -13    1    3    3    0    0  0.10279745761E+03 -0.23370991493E+01  0.32712449846E+03  0.34290409274E+03  0.00000000000E+00 0.  1.
         13    1    3    3    0    0  0.32014480469E+03 -0.17663862397E+03  0.12816703831E+04  0.13328063889E+04  0.00000000000E+00 0. -1.
         21    1    1    2  502  501 -0.30534449053E+03  0.17944021114E+03  0.22815447003E+02  0.35490081980E+03  0.00000000000E+00 0.  1.
<scales pt_clust_5="13000.00000" pt_clust_6="13000.00000" pt_clust_7="13000.00000" pt_clust_8="13000.00000" pt_clust_9="364.65179"></scales>
<clustering>
<clus scale="   92.432">  5  6 -1 -1</clus>
<clus scale="   94.192">  7  8 -1 -1</clus>
<clus scale="  149.577">  1  5  2 -1</clus>
<clus scale="  364.652">  2  9  1 -1</clus>
<clus scale="  149.577">  1  5  2 -1</clus>
</clustering>
</event>
<event>
 9    1  0.1484717E-005  0.1121879E+03  0.7546771E-02  0.1256571E+00
         -1   -1    0    0    0  501 -0.00000000000E+00  0.00000000000E+00  0.16322913107E+03  0.16322913107E+03  0.00000000000E+00 0.  1.
          1   -1    0    0  502    0  0.00000000000E+00 -0.00000000000E+00 -0.43762931758E+03  0.43762931758E+03  0.00000000000E+00 0. -1.
         23    2    1    2    0    0 -0.57754239810E+02 -0.73015337165E+02 -0.44624933991E+02  0.13667905751E+03  0.89571135697E+02 0.  0.
         23    2    1    2    0    0  0.63396212329E+01  0.64543858819E+02 -0.33173204488E+03  0.34967866427E+03  0.89570743740E+02 0.  0.
        -11    1    4    4    0    0  0.41230939030E+02  0.51737054840E+02 -0.26662171240E+03  0.27470684502E+03  0.00000000000E+00 0. -1.
         11    1    4    4    0    0 -0.34891317797E+02  0.12806803979E+02 -0.65110332483E+02  0.74971819250E+02  0.00000000000E+00 0.  1.
        -11    1    3    3    0    0 -0.95043805999E+01  0.19470991252E+02  0.32371221509E+01  0.21907343763E+02  0.00000000000E+00 0. -1.
         11    1    3    3    0    0 -0.48249859210E+02 -0.92486328417E+02 -0.47862056141E+02  0.11477171374E+03  0.00000000000E+00 0.  1.
         21    1    1    2  502  501  0.51414618577E+02  0.84714783455E+01  0.10195679236E+03  0.11450072688E+03  0.00000000000E+00 0.  1.
<scales pt_clust_5="13000.00000" pt_clust_6="13000.00000" pt_clust_7="13000.00000" pt_clust_8="13000.00000" pt_clust_9="52.10786"></scales>
<clustering>
<clus scale="   52.108">  1  9  2 -1</clus>
<clus scale="   89.571">  5  6 -1 -1</clus>
<clus scale="   89.571">  7  8 -1 -1</clus>
<clus scale="  112.188">  2  5  1 -1</clus>
<clus scale="  112.188">  2  5  1 -1</clus>
</clustering>
</event>
<event>
 9    1  0.1484717E-005  0.1011436E+03  0.7546771E-02  0.1277948E+00
          1   -1    0    0  502    0  0.00000000000E+00  0.00000000000E+00  0.48721461169E+03  0.48721461169E+03  0.00000000000E+00 0. -1.
         -1   -1    0    0    0  501 -0.00000000000E+00 -0.00000000000E+00 -0.52073729913E+02  0.52073729913E+02  0.00000000000E+00 0.  1.
         23    2    1    2    0    0 -0.16934619660E+02 -0.59526278106E+02  0.58991646786E+02  0.12412159511E+03  0.89977757552E+02 0.  0.
         23    2    1    2    0    0 -0.26691007666E+02  0.21603723321E+01  0.27764718388E+03  0.29311472243E+03  0.90062226761E+02 0.  0.
        -11    1    3    3    0    0 -0.23433522718E+02  0.13783496794E+02 -0.37069564389E+01  0.27438226927E+02  0.00000000000E+00 0.  1.
         11    1    3    3    0    0  0.64989030581E+01 -0.73309774900E+02  0.62698603225E+02  0.96683368183E+02  0.00000000000E+00 0. -1.
        -11    1    4    4    0    0 -0.22459765467E+02  0.45321911026E+02  0.14749044105E+03  0.15592288762E+03  0.00000000000E+00 0.  1.
         11    1    4    4    0    0 -0.42312421995E+01 -0.43161538694E+02  0.13015674284E+03  0.13719183481E+03  0.00000000000E+00 0. -1.
         21    1    1    2  502  501  0.43625627326E+02  0.57365905774E+02  0.98502051111E+02  0.12205202406E+03  0.00000000000E+00 0.  1.
<scales pt_clust_5="13000.00000" pt_clust_6="13000.00000" pt_clust_7="13000.00000" pt_clust_8="13000.00000" pt_clust_9="72.06971"></scales>
<clustering>
<clus scale="   72.070">  1  9  2 -1</clus>
<clus scale="   89.978">  5  6 -1 -1</clus>
<clus scale="   90.062">  7  8 -1 -1</clus>
<clus scale="  101.068">  2  5  1 -1</clus>
<clus scale="   72.070">  1  5  2 -1</clus>
</clustering>
</event>
<event>
 9    1  0.1484717E-005  0.9257103E+02  0.7546771E-02  0.1302531E+00
         -3   -1    0    0    0  501 -0.00000000000E+00  0.00000000000E+00  0.17896985736E+03  0.17896985736E+03  0.00000000000E+00 0.  1.
          3   -1    0    0  502    0  0.00000000000E+00 -0.00000000000E+00 -0.10994746591E+03  0.10994746591E+03  0.00000000000E+00 0. -1.
         23    2    1    2    0    0  0.30373069741E+02  0.24162728326E+02  0.70161299398E+02  0.12055753965E+03  0.90028615598E+02 0.  0.
         23    2    1    2    0    0  0.87476293111E-01 -0.20108755393E+02 -0.59781550778E+02  0.10215374824E+03  0.80356610005E+02 0.  0.
        -11    1    3    3    0    0 -0.31777471410E+02  0.15233383472E+02  0.24417888119E+02  0.42873032565E+02  0.00000000000E+00 0.  1.
         11    1    3    3    0    0  0.62150541151E+02  0.89293448545E+01  0.45743411279E+02  0.77684507080E+02  0.00000000000E+00 0. -1.
        -13    1    4    4    0    0 -0.11717444148E+02  0.23378049074E+02 -0.49427631832E+02  0.55918891838E+02  0.00000000000E+00 0. -1.
         13    1    4    4    0    0  0.11804920442E+02 -0.43486804467E+02 -0.10353918946E+02  0.46234856407E+02  0.00000000000E+00 0.  1.
         21    1    1    2  502  501 -0.30460546034E+02 -0.40539729327E+01  0.58642642835E+02  0.66206035374E+02  0.00000000000E+00 0. -1.
<scales pt_clust_5="13000.00000" pt_clust_6="13000.00000" pt_clust_7="13000.00000" pt_clust_8="13000.00000" pt_clust_9="30.72913"></scales>
<clustering>
<clus scale="   30.729">  1  9  2 -1</clus>
<clus scale="   80.357">  7  8 -1 -1</clus>
<clus scale="   83.195">  2  7  1 -1</clus>
<clus scale="   90.029">  5  6 -1 -1</clus>
<clus scale="   83.195">  2  5  1 -1</clus>
</clustering>
</event>
<event>
 9    1  0.1484717E-005  0.1430535E+03  0.7546771E-02  0.1209949E+00
         -2   -1    0    0    0  501 -0.00000000000E+00  0.00000000000E+00  0.29775992581E+02  0.29775992581E+02  0.00000000000E+00 0.  1.
          2   -1    0    0  502    0  0.00000000000E+00 -0.00000000000E+00 -0.10473674864E+04  0.10473674864E+04  0.00000000000E+00 0. -1.
         23    2    1    2    0    0  0.12029095060E+03  0.34941606589E+02 -0.40496846997E+03  0.43353791045E+03  0.90911107460E+02 0.  0.
         23    2    1    2    0    0 -0.86585500995E+02 -0.57650913865E+02 -0.56428554189E+03  0.58045272116E+03  0.87672754364E+02 0.  0.
        -11    1    3    3    0    0  0.85568275376E+01 -0.24730248249E+02 -0.46647547286E+02  0.53486429530E+02  0.00000000000E+00 0.  1.
         11    1    3    3    0    0  0.11173412307E+03  0.59671854839E+02 -0.35832092269E+03  0.38005148092E+03  0.00000000000E+00 0. -1.
        -13    1    4    4    0    0 -0.10128137018E+03 -0.31550037499E+02 -0.43780935902E+03  0.45047791917E+03  0.00000000000E+00 0.  1.
         13    1    4    4    0    0  0.14695869186E+02 -0.26100876366E+02 -0.12647618287E+03  0.12997480199E+03  0.00000000000E+00 0. -1.
         21    1    1    2  502  501 -0.33705449608E+02  0.22709307275E+02 -0.48337481974E+02  0.63152847393E+02  0.00000000000E+00 0. -1.
<scales pt_clust_5="13000.00000" pt_clust_6="13000.00000" pt_clust_7="13000.00000" pt_clust_8="13000.00000" pt_clust_9="40.64197"></scales>
<clustering>
<clus scale="   40.642">  1  9  2 -1</clus>
<clus scale="   87.673">  7  8 -1 -1</clus>
<clus scale="   90.911">  5  6 -1 -1</clus>
<clus scale="  141.018">  2  7  1 -1</clus>
<clus scale="  141.018">  2  5  1 -1</clus>
</clustering>
</event>
<event>
 9    1  0.1484717E-005  0.8954512E+02  0.7546771E-02  0.1304149E+00
         -1   -1    0    0    0  501 -0.00000000000E+00  0.00000000000E+00  0.77236147104E+02  0.77236147104E+02  0.00000000000E+00 0.  1.
          1   -1    0    0  502    0  0.00000000000E+00 -0.00000000000E+00 -0.17676595431E+03  0.17676595431E+03  0.00000000000E+00 0. -1.
         23    2    1    2    0    0 -0.45814087600E+01 -0.97235020043E+01 -0.37992009687E+02  0.96150544899E+02  0.87669827688E+02 0.  0.
         23    2    1    2    0    0  0.19974393702E+02 -0.26318981022E+02 -0.70690744512E+02  0.11760505348E+03  0.87989215692E+02 0.  0.
        -11    1    3    3    0    0  0.13976607209E+01  0.26226612153E+02  0.16189577637E+02  0.30852731882E+02  0.00000000000E+00 0.  1.
         11    1    3    3    0    0 -0.59790694809E+01 -0.35950114157E+02 -0.54181587324E+02  0.65297813017E+02  0.00000000000E+00 0. -1.
        -13    1    4    4    0    0  0.54521525644E+02 -0.91360280200E+01 -0.38668747710E+02  0.67463588816E+02  0.00000000000E+00 0. -1.
         13    1    4    4    0    0 -0.34547131941E+02 -0.17182953002E+02 -0.32021996802E+02  0.50141464662E+02  0.00000000000E+00 0.  1.
         21    1    1    2  502  501 -0.15392984942E+02  0.36042483027E+02  0.91529469926E+01  0.40246503038E+02  0.00000000000E+00 0. -1.
<scales pt_clust_5="13000.00000" pt_clust_6="13000.00000" pt_clust_7="13000.00000" pt_clust_8="13000.00000" pt_clust_9="39.19189"></scales>
<clustering>
<clus scale="   39.192">  1  9  2 -1</clus>
<clus scale="   87.670">  5  6 -1 -1</clus>
<clus scale="   87.989">  7  8 -1 -1</clus>
<clus scale="   89.231">  1  5  2 -1</clus>
<clus scale="   89.545">  2  5  1 -1</clus>
</clustering>
</event>
<event>
 9    1  0.1484717E-005  0.2793325E+03  0.7546771E-02  0.1096090E+00
          2   -1    0    0  502    0  0.00000000000E+00  0.00000000000E+00  0.19836277998E+04  0.19836277998E+04  0.00000000000E+00 0. -1.
         -2   -1    0    0    0  501 -0.00000000000E+00 -0.00000000000E+00 -0.94134402239E+02  0.94134402239E+02  0.00000000000E+00 0.  1.
         23    2    1    2    0    0 -0.24571357986E+03  0.14260545929E+03  0.28228292744E+03  0.41107615636E+03  0.92674024737E+02 0.  0.
         23    2    1    2    0    0  0.21143278009E+03 -0.15065049464E+03  0.16079635058E+04  0.16314658399E+04  0.93459931613E+02 0.  0.
        -11    1    4    4    0    0  0.15612932525E+02  0.12743769283E+02  0.90186197645E+02  0.92410592268E+02  0.00000000000E+00 0.  1.
         11    1    4    4    0    0  0.19581984756E+03 -0.16339426392E+03  0.15177773082E+04  0.15390552477E+04  0.00000000000E+00 0. -1.
        -13    1    3    3    0    0 -0.33754660239E+02  0.17576728554E+02  0.20249600208E+01  0.38110614500E+02  0.00000000000E+00 0. -1.
         13    1    3    3    0    0 -0.21195891962E+03  0.12502873073E+03  0.28025796742E+03  0.37296554186E+03  0.00000000000E+00 0.  1.
         21    1    1    2  502  501  0.34280799770E+02  0.80450353509E+01 -0.75303573650E+00  0.35220205699E+02  0.00000000000E+00 0. -1.
<scales pt_clust_5="13000.00000" pt_clust_6="13000.00000" pt_clust_7="13000.00000" pt_clust_8="13000.00000" pt_clust_9="35.21215"></scales>
<clustering>
<clus scale="   35.212">  2  9  1 -1</clus>
<clus scale="   92.674">  7  8 -1 -1</clus>
<clus scale="   93.460">  5  6 -1 -1</clus>
<clus scale="  279.071">  2  7  1 -1</clus>
<clus scale="  279.333">  1  5  2 -1</clus>
</clustering>
</event>
<event>
 9    1  0.1484717E-005  0.3238753E+03  0.7546771E-02  0.1073885E+00
         -2   -1    0    0    0  501 -0.00000000000E+00  0.00000000000E+00  0.52638131149E+03  0.52638131149E+03  0.00000000000E+00 0.  1.
          2   -1    0    0  502    0  0.00000000000E+00 -0.00000000000E+00 -0.35784680154E+03  0.35784680154E+03  0.00000000000E+00 0. -1.
         23    2    1    2    0    0 -0.19630482819E+02  0.24205243464E+03  0.99663722155E+02  0.27791124561E+03  0.91252758577E+02 0.  0.
         23    2    1    2    0    0 -0.84853128667E+02 -0.36489392285E+03 -0.71880257103E+02  0.39226614228E+03  0.91423884429E+02 0.  0.
        -11    1    4    4    0    0 -0.28346448398E+02 -0.81083869589E+02  0.20851525993E+02  0.88390617039E+02  0.00000000000E+00 0.  1.
         11    1    4    4    0    0 -0.56506680268E+02 -0.28381005326E+03 -0.92731783096E+02  0.30387552524E+03  0.00000000000E+00 0. -1.
        -11    1    3    3    0    0 -0.47064667670E+02  0.21400750847E+03  0.93336785995E+02  0.23817231628E+03  0.00000000000E+00 0.  1.
         11    1    3    3    0    0  0.27434184851E+02  0.28044926176E+02  0.63269361601E+01  0.39738929324E+02  0.00000000000E+00 0. -1.
         21    1    1    2  502  501  0.10448361149E+03  0.12284148820E+03  0.14075104490E+03  0.21405072514E+03  0.00000000000E+00 0.  1.
<scales pt_clust_5="13000.00000" pt_clust_6="13000.00000" pt_clust_7="13000.00000" pt_clust_8="13000.00000" pt_clust_9="161.26641"></scales>
<clustering>
<clus scale="   91.253">  7  8 -1 -1</clus>
<clus scale="   91.424">  5  6 -1 -1</clus>
<clus scale="  161.266">  1  9  2 -1</clus>
<clus scale="  323.827">  1  7  2 -1</clus>
<clus scale="  323.875">  2  5  1 -1</clus>
</clustering>
</event>
<event>
 9    1  0.2936934E-005  0.1270443E+03  0.7546771E-02  0.1233479E+00
         -2   -1    0    0    0  501 -0.00000000000E+00  0.00000000000E+00  0.96753078441E+02  0.96753078441E+02  0.00000000000E+00 0.  1.
          2   -1    0    0  502    0  0.00000000000E+00 -0.00000000000E+00 -0.54397502237E+03  0.54397502237E+03  0.00000000000E+00 0. -1.
         23    2    1    2    0    0 -0.41278344347E+02  0.79233034864E+02  0.32470196368E+02  0.13146453743E+03  0.90812088535E+02 0.  0.
         23    2    1    2    0    0  0.20320296827E+02 -0.86693232914E+02 -0.46839258367E+03  0.48431212472E+03  0.85076381122E+02 0.  0.
        -11    1    3    3    0    0 -0.24125091409E+02  0.28227657198E+02 -0.30915015058E+02  0.48317272506E+02  0.00000000000E+00 0. -1.
         11    1    3    3    0    0 -0.17153252938E+02  0.51005377666E+02  0.63385211425E+02  0.83147264926E+02  0.00000000000E+00 0.  1.
        -13    1    4    4    0    0 -0.31506847687E+02 -0.18335892314E+02 -0.11407925739E+03  0.11976211155E+03  0.00000000000E+00 0. -1.
         13    1    4    4    0    0  0.51827144514E+02 -0.68357340600E+02 -0.35431332628E+03  0.36455001317E+03  0.00000000000E+00 0.  1.
         21    1    1    2  502  501  0.20958047519E+02  0.74601980496E+01 -0.11299556625E+02  0.24951438650E+02  0.00000000000E+00 0.  1.
<scales pt_clust_5="13000.00000" pt_clust_6="13000.00000" pt_clust_7="13000.00000" pt_clust_8="13000.00000" pt_clust_9="22.24622"></scales>
<clustering>
<clus scale="   22.246">  1  9  2 -1</clus>
<clus scale="   85.076">  7  8 -1 -1</clus>
<clus scale="   90.812">  5  6 -1 -1</clus>
<clus scale="  123.010">  2  7  1 -1</clus>
<clus scale="  123.010">  2  5  1 -1</clus>
</clustering>
</event>
<event>
 9    1  0.1484717E-005  0.9934742E+02  0.7546771E-02  0.1281882E+00
         -3   -1    0    0    0  501 -0.00000000000E+00  0.00000000000E+00  0.16587079747E+03  0.16587079747E+03  0.00000000000E+00 0.  1.
          3   -1    0    0  502    0  0.00000000000E+00 -0.00000000000E+00 -0.19294954921E+03  0.19294954921E+03  0.00000000000E+00 0. -1.
         23    2    1    2    0    0  0.45165801378E+02 -0.34015094387E+02  0.53396081950E+02  0.11972828597E+03  0.91031558448E+02 0.  0.
         23    2    1    2    0    0 -0.28996804746E+02  0.20796208379E+02 -0.14284017645E+03  0.17332268047E+03  0.91455664599E+02 0.  0.
        -11    1    3    3    0    0  0.47462604098E+02  0.56210020573E-01  0.67720607821E+02  0.82696932658E+02  0.00000000000E+00 0. -1.
         11    1    3    3    0    0 -0.22968027201E+01 -0.34071304408E+02 -0.14324525871E+02  0.37031353313E+02  0.00000000000E+00 0.  1.
        -13    1    4    4    0    0 -0.60885743225E+02  0.13880144234E+02 -0.11298953680E+03  0.12909828643E+03  0.00000000000E+00 0. -1.
         13    1    4    4    0    0  0.31888938479E+02  0.69160641443E+01 -0.29850639650E+02  0.44224394039E+02  0.00000000000E+00 0.  1.
         21    1    1    2  502  501 -0.16168996632E+02  0.13218886008E+02  0.62365342763E+02  0.65769380241E+02  0.00000000000E+00 0. -1.
<scales pt_clust_5="13000.00000" pt_clust_6="13000.00000" pt_clust_7="13000.00000" pt_clust_8="13000.00000" pt_clust_9="20.88481"></scales>
<clustering>
<clus scale="   20.885">  1  9  2 -1</clus>
<clus scale="   91.032">  5  6 -1 -1</clus>
<clus scale="   91.456">  7  8 -1 -1</clus>
<clus scale="   98.957">  1  5  2 -1</clus>
<clus scale="   99.347">  2  5  1 -1</clus>
</clustering>
</event>
<event>
 9    1  0.1484717E-005  0.1246071E+03  0.7546771E-02  0.1240095E+00
         -1   -1    0    0    0  501 -0.00000000000E+00  0.00000000000E+00  0.97264863196E+02  0.97264863196E+02  0.00000000000E+00 0.  1.
          1   -1    0    0  502    0  0.00000000000E+00 -0.00000000000E+00 -0.20080266284E+03  0.20080266284E+03  0.00000000000E+00 0. -1.
         23    2    1    2    0    0  0.13910248352E+02 -0.86721342553E+01 -0.14718877020E+02  0.11552072025E+03  0.11340057559E+03 0.  0.
         23    2    1    2    0    0 -0.21529011430E+01 -0.19165496984E+02 -0.85870102062E+02  0.15218458471E+03  0.12415523403E+03 0.  0.
        -13    1    4    4    0    0 -0.57615847894E+02 -0.34757266424E+02 -0.37980244310E+02  0.77266761649E+02  0.00000000000E+00 0.  1.
         13    1    4    4    0    0  0.55462946751E+02  0.15591769441E+02 -0.47889857752E+02  0.74917823060E+02  0.00000000000E+00 0. -1.
        -13    1    3    3    0    0 -0.22732244224E+02 -0.15168470843E+02  0.40544988855E+02  0.48895128146E+02  0.00000000000E+00 0.  1.
         13    1    3    3    0    0  0.36642492576E+02  0.64963365876E+01 -0.55263865875E+02  0.66625592100E+02  0.00000000000E+00 0. -1.
         21    1    1    2  502  501 -0.11757347209E+02  0.27837631239E+02 -0.29488205634E+01  0.30362221083E+02  0.00000000000E+00 0.  1.
<scales pt_clust_5="13000.00000" pt_clust_6="13000.00000" pt_clust_7="13000.00000" pt_clust_8="13000.00000" pt_clust_9="30.21869"></scales>
<clustering>
<clus scale="   30.219">  1  9  2 -1</clus>
<clus scale="  113.401">  7  8 -1 -1</clus>
<clus scale="  113.895">  1  7  2 -1</clus>
<clus scale="  124.155">  5  6 -1 -1</clus>
<clus scale="  124.607">  2  5  1 -1</clus>
</clustering>
</event>
<event>
 9    1  0.1484717E-005  0.1072762E+03  0.7546771E-02  0.1266489E+00
         -1   -1    0    0    0  501 -0.00000000000E+00  0.00000000000E+00  0.15290224119E+02  0.15290224119E+02  0.00000000000E+00 0.  1.
          1   -1    0    0  502    0  0.00000000000E+00 -0.00000000000E+00 -0.94640220258E+03  0.94640220258E+03  0.00000000000E+00 0. -1.
         23    2    1    2    0    0 -0.45792092529E+02  0.70284864591E+01 -0.37111863659E+03  0.38502229718E+03  0.91470276839E+02 0.  0.
         23    2    1    2    0    0  0.65715515568E+02  0.96701151260E+01 -0.46559451497E+03  0.47875728765E+03  0.89544670421E+02 0.  0.
        -11    1    4    4    0    0 -0.63428765900E+01  0.34039543847E+02 -0.17342720025E+03  0.17684998279E+03  0.00000000000E+00 0. -1.
         11    1    4    4    0    0  0.72058392158E+02 -0.24369428721E+02 -0.29216731472E+03  0.30190730486E+03  0.00000000000E+00 0.  1.
        -11    1    3    3    0    0  0.19490038508E+02 -0.23381569527E+02 -0.11716830616E+03  0.12105771914E+03  0.00000000000E+00 0.  1.
         11    1    3    3    0    0 -0.65282131037E+02  0.30410055986E+02 -0.25395033043E+03  0.26396457804E+03  0.00000000000E+00 0. -1.
         21    1    1    2  502  501 -0.19923423039E+02 -0.16698601585E+02 -0.94398826904E+02  0.97912841862E+02  0.00000000000E+00 0. -1.
<scales pt_clust_5="13000.00000" pt_clust_6="13000.00000" pt_clust_7="13000.00000" pt_clust_8="13000.00000" pt_clust_9="25.99589"></scales>
<clustering>
<clus scale="   25.996">  1  9  2 -1</clus>
<clus scale="   89.545">  5  6 -1 -1</clus>
<clus scale="   91.470">  7  8 -1 -1</clus>
<clus scale="  105.639">  2  5  1 -1</clus>
<clus scale="  105.639">  2  5  1 -1</clus>
</clustering>
</event>
<event>
 9    1  0.1484717E-005  0.9778954E+02  0.7546771E-02  0.1285500E+00
          1   -1    0    0  502    0  0.00000000000E+00  0.00000000000E+00  0.15292103077E+03  0.15292103077E+03  0.00000000000E+00 0. -1.
         -1   -1    0    0    0  501 -0.00000000000E+00 -0.00000000000E+00 -0.14275010268E+03  0.14275010268E+03  0.00000000000E+00 0.  1.
         23    2    1    2    0    0  0.75691372140E+02 -0.11996971075E+01  0.97416007948E+01  0.11911046765E+03  0.91442777884E+02 0.  0.
         23    2    1    2    0    0 -0.11325444607E+02 -0.99691970479E+01  0.40113321959E+02  0.10012418070E+03  0.90488244412E+02 0.  0.
        -11    1    4    4    0    0 -0.14589599455E+02  0.29065297236E+02 -0.12231702319E+02  0.34745682570E+02  0.00000000000E+00 0.  1.
         11    1    4    4    0    0  0.32641548475E+01 -0.39034494284E+02  0.52345024278E+02  0.65378498128E+02  0.00000000000E+00 0. -1.
        -13    1    3    3    0    0  0.48724130385E+02  0.38730810689E+02 -0.16297695437E+02  0.64340744905E+02  0.00000000000E+00 0.  1.
         13    1    3    3    0    0  0.26967241755E+02 -0.39930507797E+02  0.26039296232E+02  0.54769722740E+02  0.00000000000E+00 0. -1.
         21    1    1    2  502  501 -0.64365927533E+02  0.11168894155E+02 -0.39683994664E+02  0.76436485112E+02  0.00000000000E+00 0.  1.
<scales pt_clust_5="13000.00000" pt_clust_6="13000.00000" pt_clust_7="13000.00000" pt_clust_8="13000.00000" pt_clust_9="65.32776"></scales>
<clustering>
<clus scale="   65.328">  2  9  1 -1</clus>
<clus scale="   90.488">  5  6 -1 -1</clus>
<clus scale="   91.443">  7  8 -1 -1</clus>
<clus scale="   96.898">  1  5  2 -1</clus>
<clus scale="   96.898">  1  5  2 -1</clus>
</clustering>
</event>
<event>
 9    1  0.1484717E-005  0.1639473E+03  0.7546771E-02  0.1209361E+00
         -2   -1    0    0    0  501 -0.00000000000E+00  0.00000000000E+00  0.12192773653E+03  0.12192773653E+03  0.00000000000E+00 0.  1.
          2   -1    0    0  502    0  0.00000000000E+00 -0.00000000000E+00 -0.45934193667E+03  0.45934193667E+03  0.00000000000E+00 0. -1.
         23    2    1    2    0    0 -0.31609710695E+02  0.76144573347E+01  0.12275709164E+02  0.95657752829E+02  0.89121034947E+02 0.  0.
         23    2    1    2    0    0  0.13564243028E+03  0.51642090467E+02 -0.31913503597E+03  0.36204920154E+03  0.90369678286E+02 0.  0.
        -13    1    4    4    0    0  0.15462600791E+02 -0.15284646989E+02 -0.10722205208E+03  0.10940420883E+03  0.00000000000E+00 0.  1.
         13    1    4    4    0    0  0.12017982949E+03  0.66926737456E+02 -0.21191298389E+03  0.25264499271E+03  0.00000000000E+00 0. -1.
        -13    1    3    3    0    0 -0.87106793853E+01  0.34035004012E+02 -0.26082992876E+02  0.43755913325E+02  0.00000000000E+00 0. -1.
         13    1    3    3    0    0 -0.22899031310E+02 -0.26420546678E+02  0.38358702040E+02  0.51901839504E+02  0.00000000000E+00 0.  1.
         21    1    1    2  502  501 -0.10403271958E+03 -0.59256547802E+02 -0.30554873330E+02  0.12356271883E+03  0.00000000000E+00 0.  1.
<scales pt_clust_5="13000.00000" pt_clust_6="13000.00000" pt_clust_7="13000.00000" pt_clust_8="13000.00000" pt_clust_9="136.79192"></scales>
<clustering>
<clus scale="   89.121">  7  8 -1 -1</clus>
<clus scale="   90.370">  5  6 -1 -1</clus>
<clus scale="   94.867">  1  7  2 -1</clus>
<clus scale="  136.792">  1  9  2 -1</clus>
<clus scale="  163.947">  2  5  1 -1</clus>
</clustering>
</event>
<event>
 9    1  0.1484717E-005  0.1458577E+03  0.7546771E-02  0.1206010E+00
         -1   -1    0    0    0  501 -0.00000000000E+00  0.00000000000E+00  0.41645477251E+03  0.41645477251E+03  0.00000000000E+00 0.  1.
          1   -1    0    0  502    0  0.00000000000E+00 -0.00000000000E+00 -0.20833076290E+03  0.20833076290E+03  0.00000000000E+00 0. -1.
         23    2    1    2    0    0  0.55845572046E+02  0.76262566768E+02  0.22389134442E+03  0.26020130192E+03  0.92965995976E+02 0.  0.
         23    2    1    2    0    0 -0.48607014813E+02 -0.10387096774E+03 -0.16034205329E+03  0.21721914353E+03  0.91229175347E+02 0.  0.
        -11    1    4    4    0    0 -0.52808197699E+02 -0.14124724140E+02 -0.43690305703E+02  0.69978971046E+02  0.00000000000E+00 0.  1.
         11    1    4    4    0    0  0.42011828860E+01 -0.89746243605E+02 -0.11665174759E+03  0.14724017249E+03  0.00000000000E+00 0. -1.
        -11    1    3    3    0    0  0.44039948116E+02  0.27348763541E+02  0.30018043251E+02  0.59904547557E+02  0.00000000000E+00 0. -1.
         11    1    3    3    0    0  0.11805623929E+02  0.48913803227E+02  0.19387330117E+03  0.20029675437E+03  0.00000000000E+00 0.  1.
         21    1    1    2  502  501 -0.72385572331E+01  0.27608400976E+02  0.14457471847E+03  0.14736508995E+03  0.00000000000E+00 0.  1.
<scales pt_clust_5="13000.00000" pt_clust_6="13000.00000" pt_clust_7="13000.00000" pt_clust_8="13000.00000" pt_clust_9="28.54156"></scales>
<clustering>
<clus scale="   28.542">  1  9  2 -1</clus>
<clus scale="   91.229">  5  6 -1 -1</clus>
<clus scale="   92.966">  7  8 -1 -1</clus>
<clus scale="  144.757">  2  5  1 -1</clus>
<clus scale="  144.757">  2  5  1 -1</clus>
</clustering>
</event>
<event>
 9    1  0.1484717E-005  0.1593114E+03  0.7546771E-02  0.1189518E+00
          1   -1    0    0  502    0  0.00000000000E+00  0.00000000000E+00  0.20915969509E+03  0.20915969509E+03  0.00000000000E+00 0. -1.
         -1   -1    0    0    0  501 -0.00000000000E+00 -0.00000000000E+00 -0.26784870098E+03  0.26784870098E+03  0.00000000000E+00 0.  1.
         23    2    1    2    0    0  0.11053017154E+03 -0.89070185022E+01 -0.48024722503E+02  0.15096459025E+03  0.90485798544E+02 0.  0.
         23    2    1    2    0    0 -0.12683721486E+03  0.68963869780E+02  0.10118526423E+03  0.19804745295E+03  0.90225503677E+02 0.  0.
        -11    1    4    4    0    0 -0.10748357411E+03  0.41434140895E+02  0.11397339501E+03  0.16204765195E+03  0.00000000000E+00 0. -1.
         11    1    4    4    0    0 -0.19353640752E+02  0.27529728885E+02 -0.12788130777E+02  0.35999800994E+02  0.00000000000E+00 0.  1.
        -13    1    3    3    0    0  0.36732967532E+02 -0.28513813549E+02 -0.57579382208E+02  0.74011713412E+02  0.00000000000E+00 0.  1.
         13    1    3    3    0    0  0.73797204006E+02  0.19606795047E+02  0.95546597043E+01  0.76952876835E+02  0.00000000000E+00 0. -1.
         21    1    1    2  502  501  0.16307043322E+02 -0.60056851277E+02 -0.11184954761E+03  0.12799635287E+03  0.00000000000E+00 0.  1.
<scales pt_clust_5="13000.00000" pt_clust_6="13000.00000" pt_clust_7="13000.00000" pt_clust_8="13000.00000" pt_clust_9="62.23138"></scales>
<clustering>
<clus scale="   62.231">  2  9  1 -1</clus>
<clus scale="   90.226">  5  6 -1 -1</clus>
<clus scale="   90.486">  7  8 -1 -1</clus>
<clus scale="  159.164">  1  5  2 -1</clus>
<clus scale="  159.164">  1  5  2 -1</clus>
</clustering>
</event>
<event>
 9    1  0.1484717E-005  0.9541488E+02  0.7546771E-02  0.1291059E+00
         -1   -1    0    0    0  501 -0.00000000000E+00  0.00000000000E+00  0.12645433731E+03  0.12645433731E+03  0.00000000000E+00 0.  1.
          1   -1    0    0  502    0  0.00000000000E+00 -0.00000000000E+00 -0.11092475752E+03  0.11092475752E+03  0.00000000000E+00 0. -1.
         23    2    1    2    0    0  0.30256304801E+01 -0.81303142581E+01  0.25339113997E+02  0.96583495846E+02  0.92795713920E+02 0.  0.
         23    2    1    2    0    0 -0.24785380448E+02  0.17160689545E+02 -0.38580387125E+02  0.10360962886E+03  0.91311032043E+02 0.  0.
        -11    1    4    4    0    0  0.30391586171E+01  0.28988822010E+02 -0.59899493737E+02  0.66614845467E+02  0.00000000000E+00 0. -1.
         11    1    4    4    0    0 -0.27824539065E+02 -0.11828132465E+02  0.21319106612E+02  0.36994783396E+02  0.00000000000E+00 0.  1.
        -11    1    3    3    0    0  0.22787374198E+02 -0.30201192828E+02  0.46669335900E+02  0.60078310433E+02  0.00000000000E+00 0.  1.
         11    1    3    3    0    0 -0.19761743718E+02  0.22070878570E+02 -0.21330221903E+02  0.36505185413E+02  0.00000000000E+00 0. -1.
         21    1    1    2  502  501  0.21759749968E+02 -0.90303752870E+01  0.28770852912E+02  0.37185970120E+02  0.00000000000E+00 0. -1.
<scales pt_clust_5="13000.00000" pt_clust_6="13000.00000" pt_clust_7="13000.00000" pt_clust_8="13000.00000" pt_clust_9="23.55917"></scales>
<clustering>
<clus scale="   23.559">  1  9  2 -1</clus>
<clus scale="   91.311">  5  6 -1 -1</clus>
<clus scale="   92.796">  7  8 -1 -1</clus>
<clus scale="   93.972">  2  5  1 -1</clus>
<clus scale="   93.972">  2  5  1 -1</clus>
</clustering>
</event>
<event>
 9    1  0.1484717E-005  0.1121791E+03  0.7546771E-02  0.1259237E+00
          4   -1    0    0  502    0  0.00000000000E+00  0.00000000000E+00  0.28495296107E+03  0.28495296107E+03  0.00000000000E+00 0. -1.
         -4   -1    0    0    0  501 -0.00000000000E+00 -0.00000000000E+00 -0.60488967392E+02  0.60488967392E+02  0.00000000000E+00 0.  1.
         23    2    1    2    0    0  0.73137754831E+02  0.64322343993E+01  0.12699293703E+03  0.17331300564E+03  0.92302150823E+02 0.  0.
         23    2    1    2    0    0 -0.54719645804E+02  0.15039290994E+02  0.10072423116E+03  0.14365373560E+03  0.85267843291E+02 0.  0.
        -13    1    3    3    0    0 -0.11502788076E+02  0.23318957951E+02  0.55315426267E+02  0.61121880833E+02  0.00000000000E+00 0.  1.
         13    1    3    3    0    0  0.84640542907E+02 -0.16886723552E+02  0.71677510767E+02  0.11219112481E+03  0.00000000000E+00 0. -1.
        -13    1    4    4    0    0 -0.51741471118E+02 -0.26872614374E+02  0.72506297544E+02  0.93040208621E+02  0.00000000000E+00 0.  1.
         13    1    4    4    0    0 -0.29781746859E+01  0.41911905368E+02  0.28217933615E+02  0.50613526982E+02  0.00000000000E+00 0. -1.
         21    1    1    2  502  501 -0.18418109027E+02 -0.21471525393E+02 -0.32531745132E+01  0.28475187221E+02  0.00000000000E+00 0.  1.
<scales pt_clust_5="13000.00000" pt_clust_6="13000.00000" pt_clust_7="13000.00000" pt_clust_8="13000.00000" pt_clust_9="28.28875"></scales>
<clustering>
<clus scale="   28.289">  2  9  1 -1</clus>
<clus scale="   85.268">  7  8 -1 -1</clus>
<clus scale="   92.302">  5  6 -1 -1</clus>
<clus scale="  106.466">  1  7  2 -1</clus>
<clus scale="  106.466">  1  5  2 -1</clus>
</clustering>
</event>
<event>
 9    1  0.1484717E-005  0.1075218E+03  0.7546771E-02  0.1265789E+00
          3   -1    0    0  502    0  0.00000000000E+00  0.00000000000E+00  0.23651776646E+03  0.23651776646E+03  0.00000000000E+00 0. -1.
         -3   -1    0    0    0  501 -0.00000000000E+00 -0.00000000000E+00 -0.13328517390E+03  0.13328517390E+03  0.00000000000E+00 0.  1.
         23    2    1    2    0    0  0.76545729673E+01 -0.24591383171E+02 -0.17614491264E+02  0.97864147048E+02  0.92756629743E+02 0.  0.
         23    2    1    2    0    0  0.36144593829E+02  0.54553893498E+02  0.16720121357E+03  0.20147728339E+03  0.91401810399E+02 0.  0.
        -11    1    4    4    0    0 -0.19396259064E+02 -0.69345279586E+01  0.73795340072E+02  0.76616282604E+02  0.00000000000E+00 0.  1.
         11    1    4    4    0    0  0.55540852893E+02  0.61488421457E+02  0.93405873493E+02  0.12486100078E+03  0.00000000000E+00 0. -1.
        -13    1    3    3    0    0  0.33600313067E+02 -0.22119544634E+02 -0.44795103961E+02  0.60206782274E+02  0.00000000000E+00 0.  1.
         13    1    3    3    0    0 -0.25945740100E+02 -0.24718385375E+01  0.27180612697E+02  0.37657364773E+02  0.00000000000E+00 0. -1.
         21    1    1    2  502  501 -0.43799166797E+02 -0.29962510327E+02 -0.46354129740E+02  0.70461509926E+02  0.00000000000E+00 0. -1.
<scales pt_clust_5="13000.00000" pt_clust_6="13000.00000" pt_clust_7="13000.00000" pt_clust_8="13000.00000" pt_clust_9="53.06712"></scales>
<clustering>
<clus scale="   53.067">  2  9  1 -1</clus>
<clus scale="   91.402">  5  6 -1 -1</clus>
<clus scale="   92.757">  7  8 -1 -1</clus>
<clus scale="  106.355">  1  5  2 -1</clus>
<clus scale="  106.355">  1  5  2 -1</clus>
</clustering>
</event>
<event>
 9    1  0.1484717E-005  0.1565482E+03  0.7546771E-02  0.1193150E+00
          2   -1    0    0  502    0  0.00000000000E+00  0.00000000000E+00  0.58619860767E+03  0.58619860767E+03  0.00000000000E+00 0. -1.
         -2   -1    0    0    0  501 -0.00000000000E+00 -0.00000000000E+00 -0.65665545427E+02  0.65665545427E+02  0.00000000000E+00 0.  1.
         23    2    1    2    0    0  0.63708556721E+02 -0.10101921646E+03  0.16324699506E+03  0.22052128822E+03  0.87843012631E+02 0.  0.
         23    2    1    2    0    0 -0.12512531910E+03  0.66676788256E+02  0.28077792069E+03  0.32739615952E+03  0.90828767187E+02 0.  0.
        -11    1    4    4    0    0 -0.10986990445E+02 -0.19586894710E+02  0.62468471196E+02  0.66382756021E+02  0.00000000000E+00 0. -1.
         11    1    4    4    0    0 -0.11413832865E+03  0.86263682966E+02  0.21830944950E+03  0.26101340350E+03  0.00000000000E+00 0.  1.
        -13    1    3    3    0    0 -0.20830207419E+02 -0.97835278514E+01  0.34802483671E+02  0.41723228879E+02  0.00000000000E+00 0.  1.
         13    1    3    3    0    0  0.84538764140E+02 -0.91235688605E+02  0.12844451139E+03  0.17879805934E+03  0.00000000000E+00 0. -1.
         21    1    1    2  502  501  0.61416762376E+02  0.34342428200E+02  0.76508146490E+02  0.10394670536E+03  0.00000000000E+00 0. -1.
<scales pt_clust_5="13000.00000" pt_clust_6="13000.00000" pt_clust_7="13000.00000" pt_clust_8="13000.00000" pt_clust_9="70.36633"></scales>
<clustering>
<clus scale="   70.366">  2  9  1 -1</clus>
<clus scale="   87.843">  7  8 -1 -1</clus>
<clus scale="   90.829">  5  6 -1 -1</clus>
<clus scale="  154.835">  2  7  1 -1</clus>
<clus scale="  156.548">  1  5  2 -1</clus>
</clustering>
</event>
<event>
 9    1  0.1484717E-005  0.9982601E+02  0.7546771E-02  0.1281231E+00
         -1   -1    0    0    0  501 -0.00000000000E+00  0.00000000000E+00  0.51426183913E+03  0.51426183913E+03  0.00000000000E+00 0.  1.
          1   -1    0    0  502    0  0.00000000000E+00 -0.00000000000E+00 -0.37314907041E+02  0.37314907041E+02  0.00000000000E+00 0. -1.
         23    2    1    2    0    0  0.35897731178E+02 -0.25896637259E+02  0.34847893702E+03  0.36320985037E+03  0.92328451353E+02 0.  0.
         23    2    1    2    0    0  0.25048513477E+01  0.29743229163E+02  0.71882007284E+02  0.11987216150E+03  0.91166760228E+02 0.  0.
        -11    1    4    4    0    0 -0.26726517020E+02 -0.19067998268E+02  0.69839386148E+01  0.33565915279E+02  0.00000000000E+00 0. -1.
         11    1    4    4    0    0  0.29231368368E+02  0.48811227431E+02  0.64898068669E+02  0.86306246222E+02  0.00000000000E+00 0.  1.
        -13    1    3    3    0    0  0.23787494167E+02  0.33449938944E+02  0.16316443141E+03  0.16824795681E+03  0.00000000000E+00 0.  1.
         13    1    3    3    0    0  0.12110237011E+02 -0.59346576204E+02  0.18531450561E+03  0.19496189355E+03  0.00000000000E+00 0. -1.
         21    1    1    2  502  501 -0.38402582526E+02 -0.38465919037E+01  0.56585987781E+02  0.68494734302E+02  0.00000000000E+00 0.  1.
<scales pt_clust_5="13000.00000" pt_clust_6="13000.00000" pt_clust_7="13000.00000" pt_clust_8="13000.00000" pt_clust_9="38.59475"></scales>
<clustering>
<clus scale="   38.595">  2  9  1 -1</clus>
<clus scale="   91.167">  5  6 -1 -1</clus>
<clus scale="   92.328">  7  8 -1 -1</clus>
<clus scale="   98.753">  2  5  1 -1</clus>
<clus scale="   38.595">  2  5  1 -1</clus>
</clustering>
</event>
<event>
 9    1  0.1484717E-005  0.1002351E+03  0.7546771E-02  0.1280468E+00
         -1   -1    0    0    0  501 -0.00000000000E+00  0.00000000000E+00  0.15252277807E+03  0.15252277807E+03  0.00000000000E+00 0.  1.
          1   -1    0    0  502    0  0.00000000000E+00 -0.00000000000E+00 -0.85034959314E+02  0.85034959314E+02  0.00000000000E+00 0. -1.
         23    2    1    2    0    0 -0.52960789889E+02 -0.12859251251E+02  0.32670484881E+02  0.11041056175E+03  0.90293554338E+02 0.  0.
         23    2    1    2    0    0  0.35694513502E+02 -0.13628184227E+01  0.14430473316E+02  0.96881425199E+02  0.88892161748E+02 0.  0.
        -13    1    3    3    0    0 -0.65311204317E+02  0.63957763851E+01 -0.55600770862E+01  0.65858741426E+02  0.00000000000E+00 0.  1.
         13    1    3    3    0    0  0.12350414428E+02 -0.19255027637E+02  0.38230561967E+02  0.44551820324E+02  0.00000000000E+00 0. -1.
        -13    1    4    4    0    0 -0.80329242988E+01  0.22317883831E+02  0.35646396470E+02  0.42816835390E+02  0.00000000000E+00 0.  1.
         13    1    4    4    0    0  0.43727437801E+02 -0.23680702254E+02 -0.21215923154E+02  0.54064589808E+02  0.00000000000E+00 0. -1.
         21    1    1    2  502  501  0.17266276387E+02  0.14222069674E+02  0.20386860562E+02  0.30265750439E+02  0.00000000000E+00 0. -1.
<scales pt_clust_5="13000.00000" pt_clust_6="13000.00000" pt_clust_7="13000.00000" pt_clust_8="13000.00000" pt_clust_9="22.36943"></scales>
<clustering>
<clus scale="   22.369">  1  9  2 -1</clus>
<clus scale="   88.892">  7  8 -1 -1</clus>
<clus scale="   90.294">  5  6 -1 -1</clus>
<clus scale="   98.975">  2  7  1 -1</clus>
<clus scale="   98.975">  2  5  1 -1</clus>
</clustering>
</event>
<event>
 9    1  0.1484717E-005  0.1001808E+03  0.7546771E-02  0.1281940E+00
          1   -1    0    0  502    0  0.00000000000E+00  0.00000000000E+00  0.12674302271E+04  0.12674302271E+04  0.00000000000E+00 0. -1.
         -1   -1    0    0    0  501 -0.00000000000E+00 -0.00000000000E+00 -0.16408680327E+02  0.16408680327E+02  0.00000000000E+00 0.  1.
         23    2    1    2    0    0  0.69105961975E+01  0.23230061376E+02  0.27661451440E+03  0.29192767055E+03  0.90104290506E+02 0.  0.
         23    2    1    2    0    0 -0.68269394584E+02 -0.10001173181E+02  0.50417335178E+03  0.51750674702E+03  0.94136766830E+02 0.  0.
        -13    1    4    4    0    0 -0.63196200843E+02  0.33841449361E+02  0.34218796027E+03  0.34961636639E+03  0.00000000000E+00 0. -1.
         13    1    4    4    0    0 -0.50731937417E+01 -0.43842622543E+02  0.16198539151E+03  0.16789038063E+03  0.00000000000E+00 0.  1.
        -13    1    3    3    0    0  0.98054414910E+01 -0.30620999975E+02  0.53763883080E+02  0.62644612267E+02  0.00000000000E+00 0.  1.
         13    1    3    3    0    0 -0.28948452936E+01  0.53851061352E+02  0.22285063132E+03  0.22928305828E+03  0.00000000000E+00 0. -1.
         21    1    1    2  502  501  0.61358798387E+02 -0.13228888195E+02  0.47023368056E+03  0.47440448982E+03  0.00000000000E+00 0. -1.
<scales pt_clust_5="13000.00000" pt_clust_6="13000.00000" pt_clust_7="13000.00000" pt_clust_8="13000.00000" pt_clust_9="62.76867"></scales>
<clustering>
<clus scale="   62.769">  1  9  2 -1</clus>
<clus scale="   90.104">  7  8 -1 -1</clus>
<clus scale="   94.137">  5  6 -1 -1</clus>
<clus scale="   96.401">  2  7  1 -1</clus>
<clus scale="   62.769">  1  5  2 -1</clus>
</clustering>
</event>
<event>
 9    1  0.1484717E-005  0.1168708E+03  0.7546771E-02  0.1259455E+00
          2   -1    0    0  502    0  0.00000000000E+00  0.00000000000E+00  0.39989109280E+03  0.39989109280E+03  0.00000000000E+00 0. -1.
         -2   -1    0    0    0  501 -0.00000000000E+00 -0.00000000000E+00 -0.59390586030E+02  0.59390586030E+02  0.00000000000E+00 0.  1.
         23    2    1    2    0    0 -0.12518553118E+02 -0.55049946827E+01  0.95632383073E+01  0.93515239605E+02  0.92014267224E+02 0.  0.
         23    2    1    2    0    0  0.13474272603E+02 -0.16444690862E+02  0.32071293276E+03  0.34153342175E+03  0.11548293837E+03 0.  0.
        -13    1    4    4    0    0 -0.12146623464E+02  0.41072413976E+02  0.62591340734E+02  0.75842992993E+02  0.00000000000E+00 0. -1.
         13    1    4    4    0    0  0.25620896067E+02 -0.57517104838E+02  0.25812159202E+03  0.26569042876E+03  0.00000000000E+00 0.  1.
        -13    1    3    3    0    0  0.74457055935E+01  0.21555457035E+02 -0.32474472880E+02  0.39682082211E+02  0.00000000000E+00 0.  1.
         13    1    3    3    0    0 -0.19964258712E+02 -0.27060451718E+02  0.42037711187E+02  0.53833157393E+02  0.00000000000E+00 0. -1.
         21    1    1    2  502  501 -0.95571948477E+00  0.21949685544E+02  0.10224335703E+02  0.24233017472E+02  0.00000000000E+00 0. -1.
<scales pt_clust_5="13000.00000" pt_clust_6="13000.00000" pt_clust_7="13000.00000" pt_clust_8="13000.00000" pt_clust_9="21.97048"></scales>
<clustering>
<clus scale="   21.970">  2  9  1 -1</clus>
<clus scale="   92.014">  7  8 -1 -1</clus>
<clus scale="   93.750">  2  7  1 -1</clus>
<clus scale="  115.483">  5  6 -1 -1</clus>
<clus scale="  116.871">  1  5  2 -1</clus>
</clustering>
</event>
<event>
 9    1  0.1484717E-005  0.9997013E+02  0.7546771E-02  0.1282184E+00
         -1   -1    0    0    0  501 -0.00000000000E+00  0.00000000000E+00  0.41376567593E+03  0.41376567593E+03  0.00000000000E+00 0.  1.
          1   -1    0    0  502    0  0.00000000000E+00 -0.00000000000E+00 -0.41968033123E+02  0.41968033123E+02  0.00000000000E+00 0. -1.
         23    2    1    2    0    0  0.54644678136E+01  0.56248603616E+01  0.12802403504E+03  0.15861706722E+03  0.93315170267E+02 0.  0.
         23    2    1    2    0    0 -0.17083516516E+02 -0.33648518019E+02  0.81615786389E+02  0.13214547249E+03  0.96836047061E+02 0.  0.
        -11    1    3    3    0    0 -0.31676309396E+01  0.31476418050E+02  0.42995457459E+01  0.31926241129E+02  0.00000000000E+00 0.  1.
         11    1    3    3    0    0  0.86320987532E+01 -0.25851557688E+02  0.12372448929E+03  0.12669082609E+03  0.00000000000E+00 0. -1.
        -11    1    4    4    0    0  0.18049844484E+02 -0.52824796544E+02  0.21283072727E+02  0.59742992899E+02  0.00000000000E+00 0. -1.
         11    1    4    4    0    0 -0.35133361000E+02  0.19176278525E+02  0.60332713661E+02  0.72402479591E+02  0.00000000000E+00 0.  1.
         21    1    1    2  502  501  0.11619048703E+02  0.28023657658E+02  0.16215782138E+03  0.16497116935E+03  0.00000000000E+00 0.  1.
<scales pt_clust_5="13000.00000" pt_clust_6="13000.00000" pt_clust_7="13000.00000" pt_clust_8="13000.00000" pt_clust_9="30.33690"></scales>
<clustering>
<clus scale="   30.337">  1  9  2 -1</clus>
<clus scale="   93.315">  5  6 -1 -1</clus>
<clus scale="   96.564">  1  5  2 -1</clus>
<clus scale="   96.836">  7  8 -1 -1</clus>
<clus scale="   99.970">  2  5  1 -1</clus>
</clustering>
</event>
<event>
 9    1  0.1484717E-005  0.2321672E+03  0.7546771E-02  0.1125179E+00
          2   -1    0    0  502    0  0.00000000000E+00  0.00000000000E+00  0.10805488492E+04  0.10805488492E+04  0.00000000000E+00 0. -1.
         -2   -1    0    0    0  501 -0.00000000000E+00 -0.00000000000E+00 -0.63582016887E+02  0.63582016887E+02  0.00000000000E+00 0.  1.
         23    2    1    2    0    0 -0.64890026126E+02 -0.17418693414E+03  0.34144493842E+03  0.39883428268E+03  0.89063660114E+02 0.  0.
         23    2    1    2    0    0  0.84780770649E+02  0.22415883411E+03  0.60241077195E+03  0.65453277645E+03  0.89885790283E+02 0.  0.
        -13    1    4    4    0    0  0.44927908321E+02  0.19378792369E+03  0.41008671767E+03  0.45578875844E+03  0.00000000000E+00 0.  1.
         13    1    4    4    0    0  0.39852862327E+02  0.30370910420E+02  0.19232405429E+03  0.19874401801E+03  0.00000000000E+00 0. -1.
        -13    1    3    3    0    0 -0.64441141241E+02 -0.53482919965E+02  0.16526306371E+03  0.18526997501E+03  0.00000000000E+00 0.  1.
         13    1    3    3    0    0 -0.44888488486E+00 -0.12070401417E+03  0.17618187471E+03  0.21356430767E+03  0.00000000000E+00 0. -1.
         21    1    1    2  502  501 -0.19890744523E+02 -0.49971899971E+02  0.73111121986E+02  0.90763807007E+02  0.00000000000E+00 0. -1.
<scales pt_clust_5="13000.00000" pt_clust_6="13000.00000" pt_clust_7="13000.00000" pt_clust_8="13000.00000" pt_clust_9="53.78506"></scales>
<clustering>
<clus scale="   53.785">  2  9  1 -1</clus>
<clus scale="   89.064">  7  8 -1 -1</clus>
<clus scale="   89.886">  5  6 -1 -1</clus>
<clus scale="  231.850">  2  7  1 -1</clus>
<clus scale="  232.167">  1  5  2 -1</clus>
</clustering>
</event>
<event>
 9    1  0.1484717E-005  0.9645080E+02  0.7546771E-02  0.1289598E+00
         -2   -1    0    0    0  501 -0.00000000000E+00  0.00000000000E+00  0.23961504259E+03  0.23961504259E+03  0.00000000000E+00 0.  1.
          2   -1    0    0  502    0  0.00000000000E+00 -0.00000000000E+00 -0.20981222559E+03  0.20981222559E+03  0.00000000000E+00 0. -1.
         23    2    1    2    0    0 -0.13752096322E+02  0.30670896023E+02  0.47333908586E+02  0.10730514439E+03  0.90244507284E+02 0.  0.
         23    2    1    2    0    0 -0.28341854689E+02 -0.70317769135E+01 -0.16232529211E+03  0.18949162496E+03  0.93299886712E+02 0.  0.
        -11    1    4    4    0    0  0.16927910834E+02 -0.30587580248E+02 -0.11388697637E+03  0.11913184972E+03  0.00000000000E+00 0.  1.
         11    1    4    4    0    0 -0.45269765523E+02  0.23555803335E+02 -0.48438315737E+02  0.70359775246E+02  0.00000000000E+00 0. -1.
        -13    1    3    3    0    0  0.25228126166E+02  0.44598671498E+02  0.40583691340E+02  0.65364637626E+02  0.00000000000E+00 0.  1.
         13    1    3    3    0    0 -0.38980222489E+02 -0.13927775475E+02  0.67502172463E+01  0.41940506766E+02  0.00000000000E+00 0. -1.
         21    1    1    2  502  501  0.42093951012E+02 -0.23639119110E+02  0.14479420053E+03  0.15263049882E+03  0.00000000000E+00 0.  1.
<scales pt_clust_5="13000.00000" pt_clust_6="13000.00000" pt_clust_7="13000.00000" pt_clust_8="13000.00000" pt_clust_9="48.27741"></scales>
<clustering>
<clus scale="   48.277">  1  9  2 -1</clus>
<clus scale="   90.245">  7  8 -1 -1</clus>
<clus scale="   93.300">  5  6 -1 -1</clus>
<clus scale="   93.498">  1  7  2 -1</clus>
<clus scale="   96.451">  2  5  1 -1</clus>
</clustering>
</event>
<event>
 9    1  0.1484717E-005  0.2078106E+03  0.7546771E-02  0.1143468E+00
         -1   -1    0    0    0  501 -0.00000000000E+00  0.00000000000E+00  0.11550161280E+03  0.11550161280E+03  0.00000000000E+00 0.  1.
          1   -1    0    0  502    0  0.00000000000E+00 -0.00000000000E+00 -0.93382499625E+03  0.93382499625E+03  0.00000000000E+00 0. -1.
         23    2    1    2    0    0  0.22771703932E+03 -0.60966509138E+02 -0.45577921245E+03  0.52080536609E+03  0.89059382464E+02 0.  0.
         23    2    1    2    0    0 -0.84531175721E+02  0.14910709571E+03 -0.28149742360E+03  0.34186774098E+03  0.90853217740E+02 0.  0.
        -11    1    3    3    0    0  0.18517170474E+02 -0.27303036049E+02 -0.11395506947E+03  0.11863430886E+03  0.00000000000E+00 0. -1.
         11    1    3    3    0    0  0.20919986885E+03 -0.33663473088E+02 -0.34182414298E+03  0.40217105723E+03  0.00000000000E+00 0.  1.
        -13    1    4    4    0    0 -0.55045574258E+01  0.90610906680E+02 -0.97294895147E+02  0.13306740090E+03  0.00000000000E+00 0.  1.
         13    1    4    4    0    0 -0.79026618295E+02  0.58496189035E+02 -0.18420252845E+03  0.20880034008E+03  0.00000000000E+00 0. -1.
         21    1    1    2  502  501 -0.14318586360E+03 -0.88140586577E+02 -0.81046747402E+02  0.18665350198E+03  0.00000000000E+00 0. -1.
<scales pt_clust_5="13000.00000" pt_clust_6="13000.00000" pt_clust_7="13000.00000" pt_clust_8="13000.00000" pt_clust_9="168.13969"></scales>
<clustering>
<clus scale="   89.059">  5  6 -1 -1</clus>
<clus scale="   90.853">  7  8 -1 -1</clus>
<clus scale="  168.140">  1  9  2 -1</clus>
<clus scale="  207.033">  1  5  2 -1</clus>
<clus scale="  207.811">  2  5  1 -1</clus>
</clustering>
</event>
<event>
 9    1  0.1484717E-005  0.1084850E+03  0.7546771E-02  0.1264119E+00
         -1   -1    0    0    0  501 -0.00000000000E+00  0.00000000000E+00  0.70249685124E+02  0.70249685124E+02  0.00000000000E+00 0.  1.
          1   -1    0    0  502    0  0.00000000000E+00 -0.00000000000E+00 -0.60442229093E+03  0.60442229093E+03  0.00000000000E+00 0. -1.
         23    2    1    2    0    0  0.67483214844E+02 -0.70019147863E+02 -0.38912424696E+02  0.14065935649E+03  0.93884037092E+02 0.  0.
         23    2    1    2    0    0 -0.17049446620E+01  0.51440821745E+02 -0.41680715258E+03  0.42996064834E+03  0.92135181670E+02 0.  0.
        -11    1    3    3    0    0  0.65841742357E+02 -0.18109817276E+02  0.10361953294E+02  0.69068593401E+02  0.00000000000E+00 0.  1.
         11    1    3    3    0    0  0.16414724866E+01 -0.51909330587E+02 -0.49274377990E+02  0.71590763093E+02  0.00000000000E+00 0. -1.
        -13    1    4    4    0    0 -0.37056788595E+02  0.54167114768E+02 -0.20628546548E+03  0.21647395957E+03  0.00000000000E+00 0. -1.
         13    1    4    4    0    0  0.35351843933E+02 -0.27262930230E+01 -0.21052168709E+03  0.21348668877E+03  0.00000000000E+00 0.  1.
         21    1    1    2  502  501 -0.65778270182E+02  0.18578326118E+02 -0.78453028535E+02  0.10405197122E+03  0.00000000000E+00 0. -1.
<scales pt_clust_5="13000.00000" pt_clust_6="13000.00000" pt_clust_7="13000.00000" pt_clust_8="13000.00000" pt_clust_9="68.35155"></scales>
<clustering>
<clus scale="   68.352">  1  9  2 -1</clus>
<clus scale="   92.135">  7  8 -1 -1</clus>
<clus scale="   93.884">  5  6 -1 -1</clus>
<clus scale="  106.975">  2  7  1 -1</clus>
<clus scale="  106.975">  2  5  1 -1</clus>
</clustering>
</event>
<event>
 9    1  0.1484717E-005  0.1058403E+03  0.7546771E-02  0.1268873E+00
          1   -1    0    0  502    0  0.00000000000E+00  0.00000000000E+00  0.25552360127E+03  0.25552360127E+03  0.00000000000E+00 0. -1.
         -1   -1    0    0    0  501 -0.00000000000E+00 -0.00000000000E+00 -0.67126178418E+02  0.67126178418E+02  0.00000000000E+00 0.  1.
         23    2    1    2    0    0 -0.50045808076E+02  0.47452043222E+02  0.71248299575E+02  0.13502519613E+03  0.91647171732E+02 0.  0.
         23    2    1    2    0    0  0.27839512097E+02 -0.34286646894E+02  0.12500948378E+03  0.16063880009E+03  0.90701932022E+02 0.  0.
        -13    1    4    4    0    0 -0.21680383950E+02  0.18143414531E+02  0.42619967852E+02  0.51143760116E+02  0.00000000000E+00 0. -1.
         13    1    4    4    0    0  0.49519896047E+02 -0.52430061425E+02  0.82389515924E+02  0.10949503998E+03  0.00000000000E+00 0.  1.
        -13    1    3    3    0    0 -0.37334120911E+02 -0.22503260766E+02  0.27682165104E+02  0.51638508830E+02  0.00000000000E+00 0.  1.
         13    1    3    3    0    0 -0.12711687164E+02  0.69955303988E+02  0.43566134471E+02  0.83386687303E+02  0.00000000000E+00 0. -1.
         21    1    1    2  502  501  0.22206295978E+02 -0.13165396328E+02 -0.78603605038E+01  0.26985783457E+02  0.00000000000E+00 0.  1.
<scales pt_clust_5="13000.00000" pt_clust_6="13000.00000" pt_clust_7="13000.00000" pt_clust_8="13000.00000" pt_clust_9="25.81564"></scales>
<clustering>
<clus scale="   25.816">  2  9  1 -1</clus>
<clus scale="   90.702">  5  6 -1 -1</clus>
<clus scale="   91.647">  7  8 -1 -1</clus>
<clus scale="  105.023">  1  5  2 -1</clus>
<clus scale="  105.023">  1  5  2 -1</clus>
</clustering>
</event>
<event>
 9    1  0.1484717E-005  0.2057237E+03  0.7546771E-02  0.1145372E+00
         -1   -1    0    0    0  501 -0.00000000000E+00  0.00000000000E+00  0.84691648744E+02  0.84691648744E+02  0.00000000000E+00 0.  1.
          1   -1    0    0  502    0  0.00000000000E+00 -0.00000000000E+00 -0.70513994258E+03  0.70513994258E+03  0.00000000000E+00 0. -1.
         23    2    1    2    0    0  0.18574322112E+03  0.12128689169E+02 -0.12165970626E+03  0.23896821793E+03  0.87504718504E+02 0.  0.
         23    2    1    2    0    0 -0.17610590564E+03 -0.39686718544E+02 -0.45743972839E+03  0.50024666678E+03  0.91691313012E+02 0.  0.
        -11    1    4    4    0    0 -0.60050726221E+02  0.18762932209E+02 -0.22847387172E+03  0.23697773609E+03  0.00000000000E+00 0. -1.
         11    1    4    4    0    0 -0.11605517942E+03 -0.58449650753E+02 -0.22896585667E+03  0.26326893069E+03  0.00000000000E+00 0.  1.
        -11    1    3    3    0    0  0.15101396562E+03 -0.24674218658E+02 -0.10545248174E+03  0.18583396026E+03  0.00000000000E+00 0.  1.
         11    1    3    3    0    0  0.34729255496E+02  0.36802907827E+02 -0.16207224521E+02  0.53134257674E+02  0.00000000000E+00 0. -1.
         21    1    1    2  502  501 -0.96373154791E+01  0.27558029375E+02 -0.41348859186E+02  0.50616706616E+02  0.00000000000E+00 0. -1.
<scales pt_clust_5="13000.00000" pt_clust_6="13000.00000" pt_clust_7="13000.00000" pt_clust_8="13000.00000" pt_clust_9="29.19457"></scales>
<clustering>
<clus scale="   29.195">  2  9  1 -1</clus>
<clus scale="   87.505">  7  8 -1 -1</clus>
<clus scale="   91.691">  5  6 -1 -1</clus>
<clus scale="  203.892">  1  7  2 -1</clus>
<clus scale="   29.195">  2  5  1 -1</clus>
</clustering>
</event>
<event>
 9    1  0.1484717E-005  0.9351776E+02  0.7546771E-02  0.1296980E+00
          1   -1    0    0  502    0  0.00000000000E+00  0.00000000000E+00  0.28145421156E+03  0.28145421156E+03  0.00000000000E+00 0. -1.
         -1   -1    0    0    0  501 -0.00000000000E+00 -0.00000000000E+00 -0.80183965769E+02  0.80183965769E+02  0.00000000000E+00 0.  1.
         23    2    1    2    0    0 -0.17983833124E+02 -0.14444701493E+02  0.40667662780E+02  0.10399666066E+03  0.92894450738E+02 0.  0.
         23    2    1    2    0    0 -0.14566071131E+02  0.65230491364E+01  0.19175486326E+03  0.21189533203E+03  0.88741104086E+02 0.  0.
        -11    1    4    4    0    0 -0.17907502379E+02 -0.33514013355E+02  0.41093463089E+02  0.55969102559E+02  0.00000000000E+00 0.  1.
         11    1    4    4    0    0  0.33414312483E+01  0.40037062491E+02  0.15066140017E+03  0.15592622947E+03  0.00000000000E+00 0. -1.
        -13    1    3    3    0    0  0.30982731070E+02 -0.61261011315E+01  0.44063002376E+02  0.54212608479E+02  0.00000000000E+00 0.  1.
         13    1    3    3    0    0 -0.48966564194E+02 -0.83186003618E+01 -0.33953395964E+01  0.49784052184E+02  0.00000000000E+00 0. -1.
         21    1    1    2  502  501  0.32549904255E+02  0.79216523568E+01 -0.31152280255E+02  0.45746184629E+02  0.00000000000E+00 0.  1.
<scales pt_clust_5="13000.00000" pt_clust_6="13000.00000" pt_clust_7="13000.00000" pt_clust_8="13000.00000" pt_clust_9="33.49998"></scales>
<clustering>
<clus scale="   33.500">  2  9  1 -1</clus>
<clus scale="   88.741">  5  6 -1 -1</clus>
<clus scale="   89.393">  1  5  2 -1</clus>
<clus scale="   92.894">  7  8 -1 -1</clus>
<clus scale="   89.393">  1  5  2 -1</clus>
</clustering>
</event>
<event>
 9    1  0.1484717E-005  0.1052443E+03  0.7546771E-02  0.1270100E+00
         -2   -1    0    0    0  501 -0.00000000000E+00  0.00000000000E+00  0.22183280534E+03  0.22183280534E+03  0.00000000000E+00 0.  1.
          2   -1    0    0  502    0  0.00000000000E+00 -0.00000000000E+00 -0.46528346128E+03  0.46528346128E+03  0.00000000000E+00 0. -1.
         23    2    1    2    0    0  0.46475090090E+02 -0.21457929242E+01  0.15982130195E+03  0.19014981206E+03  0.91921510235E+02 0.  0.
         23    2    1    2    0    0 -0.54969502051E+01  0.52587294907E+02 -0.41742309378E+03  0.43045474343E+03  0.90849363604E+02 0.  0.
        -11    1    4    4    0    0 -0.40734599693E+02  0.56200166272E+02 -0.29094618206E+03  0.29911109501E+03  0.00000000000E+00 0. -1.
         11    1    4    4    0    0  0.35237649487E+02 -0.36128713652E+01 -0.12647691172E+03  0.13134364842E+03  0.00000000000E+00 0.  1.
        -13    1    3    3    0    0  0.64672048766E+02  0.63606267915E+01  0.15693386644E+03  0.16985632135E+03  0.00000000000E+00 0.  1.
         13    1    3    3    0    0 -0.18196958676E+02 -0.85064197157E+01  0.28874355022E+01  0.20293490710E+02  0.00000000000E+00 0. -1.
         21    1    1    2  502  501 -0.40978139885E+02 -0.50441501983E+02  0.14151135893E+02  0.66511711133E+02  0.00000000000E+00 0.  1.
<scales pt_clust_5="13000.00000" pt_clust_6="13000.00000" pt_clust_7="13000.00000" pt_clust_8="13000.00000" pt_clust_9="64.98887"></scales>
<clustering>
<clus scale="   64.989">  1  9  2 -1</clus>
<clus scale="   90.849">  5  6 -1 -1</clus>
<clus scale="   91.922">  7  8 -1 -1</clus>
<clus scale="  104.309">  2  5  1 -1</clus>
<clus scale="  104.309">  2  5  1 -1</clus>
</clustering>
</event>
<event>
 9    1  0.1484717E-005  0.1116183E+03  0.7546771E-02  0.1259252E+00
          1   -1    0    0  502    0  0.00000000000E+00  0.00000000000E+00  0.61141032198E+03  0.61141032198E+03  0.00000000000E+00 0. -1.
         -1   -1    0    0    0  501 -0.00000000000E+00 -0.00000000000E+00 -0.28079660281E+02  0.28079660281E+02  0.00000000000E+00 0.  1.
         23    2    1    2    0    0  0.47177764295E+02 -0.12184903433E+02  0.18801128812E+03  0.21328039045E+03  0.88125292494E+02 0.  0.
         23    2    1    2    0    0 -0.72083837049E+02  0.78863879335E+01  0.37728321563E+03  0.39515974979E+03  0.92467985713E+02 0.  0.
        -11    1    4    4    0    0 -0.39304289655E+02 -0.29621814862E+02  0.81473289198E+02  0.95184956552E+02  0.00000000000E+00 0.  1.
         11    1    4    4    0    0 -0.32779547393E+02  0.37508202795E+02  0.29580992643E+03  0.29997479324E+03  0.00000000000E+00 0. -1.
        -11    1    3    3    0    0  0.50324728791E+02 -0.43985562265E+02  0.14531969200E+03  0.15995349605E+03  0.00000000000E+00 0.  1.
         11    1    3    3    0    0 -0.31469644959E+01  0.31800658832E+02  0.42691596112E+02  0.53326894400E+02  0.00000000000E+00 0. -1.
         21    1    1    2  502  501  0.24906072754E+02  0.42985155000E+01  0.18036157953E+02  0.31049842016E+02  0.00000000000E+00 0.  1.
<scales pt_clust_5="13000.00000" pt_clust_6="13000.00000" pt_clust_7="13000.00000" pt_clust_8="13000.00000" pt_clust_9="25.27429"></scales>
<clustering>
<clus scale="   25.274">  2  9  1 -1</clus>
<clus scale="   88.125">  7  8 -1 -1</clus>
<clus scale="   92.468">  5  6 -1 -1</clus>
<clus scale="  108.048">  2  7  1 -1</clus>
<clus scale="  111.618">  1  5  2 -1</clus>
</clustering>
</event>
<event>
 9    1  0.1484717E-005  0.1295132E+03  0.7546771E-02  0.1228521E+00
         -1   -1    0    0    0  501 -0.00000000000E+00  0.00000000000E+00  0.56760137836E+02  0.56760137836E+02  0.00000000000E+00 0.  1.
          1   -1    0    0  502    0  0.00000000000E+00 -0.00000000000E+00 -0.47277936312E+03  0.47277936312E+03  0.00000000000E+00 0. -1.
         23    2    1    2    0    0 -0.64084308564E+02  0.52263032771E+02 -0.74528655051E+02  0.14382076261E+03  0.91058597259E+02 0.  0.
         23    2    1    2    0    0  0.76193640234E+02 -0.82973658025E+02 -0.26464184173E+03  0.30207959985E+03  0.92340032006E+02 0.  0.
        -13    1    4    4    0    0  0.52325495318E+01 -0.73592334917E+02 -0.14405353595E+03  0.16184755962E+03  0.00000000000E+00 0.  1.
         13    1    4    4    0    0  0.70961090702E+02 -0.93813231077E+01 -0.12058830578E+03  0.14023204023E+03  0.00000000000E+00 0. -1.
        -13    1    3    3    0    0  0.13240357302E+02  0.38277919912E+02 -0.89691050894E+01  0.41484347173E+02  0.00000000000E+00 0. -1.
         13    1    3    3    0    0 -0.77324665865E+02  0.13985112859E+02 -0.65559549962E+02  0.10233641543E+03  0.00000000000E+00 0.  1.
         21    1    1    2  502  501 -0.12109331670E+02  0.30710625254E+02 -0.76848728500E+02  0.83639138500E+02  0.00000000000E+00 0.  1.
<scales pt_clust_5="13000.00000" pt_clust_6="13000.00000" pt_clust_7="13000.00000" pt_clust_8="13000.00000" pt_clust_9="33.01179"></scales>
<clustering>
<clus scale="   33.012">  2  9  1 -1</clus>
<clus scale="   91.059">  7  8 -1 -1</clus>
<clus scale="   92.340">  5  6 -1 -1</clus>
<clus scale="  128.603">  1  7  2 -1</clus>
<clus scale="   33.012">  2  5  1 -1</clus>
</clustering>
</event>
<event>
 9    1  0.1484717E-005  0.9432448E+02  0.7546771E-02  0.1296606E+00
          1   -1    0    0  502    0  0.00000000000E+00  0.00000000000E+00  0.11408379368E+03  0.11408379368E+03  0.00000000000E+00 0. -1.
         -1   -1    0    0    0  501 -0.00000000000E+00 -0.00000000000E+00 -0.23055784478E+03  0.23055784478E+03  0.00000000000E+00 0.  1.
         23    2    1    2    0    0  0.82857659948E+01  0.13414163893E+02 -0.15851876065E+03  0.17847743309E+03  0.80482314402E+02 0.  0.
         23    2    1    2    0    0 -0.28045760839E+02 -0.24965250428E+02  0.78246546050E+02  0.12333363262E+03  0.87628959462E+02 0.  0.
        -11    1    3    3    0    0  0.29562057107E+02  0.36731973379E+02 -0.69127052321E+02  0.83676176128E+02  0.00000000000E+00 0.  1.
         11    1    3    3    0    0 -0.21276291112E+02 -0.23317809486E+02 -0.89391708331E+02  0.94801256959E+02  0.00000000000E+00 0. -1.
        -13    1    4    4    0    0 -0.25268856460E+01 -0.50680512789E+02  0.69519714075E+02  0.86069101149E+02  0.00000000000E+00 0.  1.
         13    1    4    4    0    0 -0.25518875193E+02  0.25715262360E+02  0.87268319750E+01  0.37264531470E+02  0.00000000000E+00 0. -1.
         21    1    1    2  502  501  0.19759994844E+02  0.11551086535E+02 -0.36201836499E+02  0.42830572752E+02  0.00000000000E+00 0.  1.
<scales pt_clust_5="13000.00000" pt_clust_6="13000.00000" pt_clust_7="13000.00000" pt_clust_8="13000.00000" pt_clust_9="22.88853"></scales>
<clustering>
<clus scale="   22.889">  2  9  1 -1</clus>
<clus scale="   80.482">  5  6 -1 -1</clus>
<clus scale="   87.629">  7  8 -1 -1</clus>
<clus scale="   87.725">  2  5  1 -1</clus>
<clus scale="   94.324">  1  5  2 -1</clus>
</clustering>
</event>
<event>
 9    1  0.1484717E-005  0.1200874E+03  0.7546771E-02  0.1244830E+00
         -3   -1    0    0    0  501 -0.00000000000E+00  0.00000000000E+00  0.20863179870E+03  0.20863179870E+03  0.00000000000E+00 0.  1.
          3   -1    0    0  502    0  0.00000000000E+00 -0.00000000000E+00 -0.86494976805E+02  0.86494976805E+02  0.00000000000E+00 0. -1.
         23    2    1    2    0    0  0.47699736585E+02  0.61270461451E+02  0.57483948425E+02  0.13565928551E+03  0.95234988853E+02 0.  0.
         23    2    1    2    0    0 -0.61114932420E+02 -0.37418120010E+02  0.36860030929E+02  0.12046308296E+03  0.89540727087E+02 0.  0.
        -13    1    3    3    0    0  0.69378607535E+02  0.63931076158E+02  0.62605227508E+02  0.11322538670E+03  0.00000000000E+00 0.  1.
         13    1    3    3    0    0 -0.21678870950E+02 -0.26606147072E+01 -0.51212790833E+01  0.22433898808E+02  0.00000000000E+00 0. -1.
        -13    1    4    4    0    0  0.17231207268E+02 -0.29814891336E+02  0.23498950389E+01  0.34516144860E+02  0.00000000000E+00 0.  1.
         13    1    4    4    0    0 -0.78346139688E+02 -0.76032286738E+01  0.34510135890E+02  0.85946938104E+02  0.00000000000E+00 0. -1.
         21    1    1    2  502  501  0.13415195835E+02 -0.23852341441E+02  0.27792842545E+02  0.39004407036E+02  0.00000000000E+00 0.  1.
<scales pt_clust_5="13000.00000" pt_clust_6="13000.00000" pt_clust_7="13000.00000" pt_clust_8="13000.00000" pt_clust_9="27.36607"></scales>
<clustering>
<clus scale="   27.366">  1  9  2 -1</clus>
<clus scale="   89.541">  7  8 -1 -1</clus>
<clus scale="   95.235">  5  6 -1 -1</clus>
<clus scale="  115.624">  2  7  1 -1</clus>
<clus scale="  115.624">  2  5  1 -1</clus>
</clustering>
</event>
<event>
 9    1  0.1484717E-005  0.1123093E+03  0.7546771E-02  0.1262300E+00
         -1   -1    0    0    0  501 -0.00000000000E+00  0.00000000000E+00  0.93046376795E+02  0.93046376795E+02  0.00000000000E+00 0.  1.
          1   -1    0    0  502    0  0.00000000000E+00 -0.00000000000E+00 -0.41609964534E+03  0.41609964534E+03  0.00000000000E+00 0. -1.
         23    2    1    2    0    0 -0.48688686864E+00 -0.34128201966E+02 -0.28837629476E+02  0.98403209222E+02  0.87673322528E+02 0.  0.
         23    2    1    2    0    0 -0.11451884489E+02  0.50506898266E+02 -0.34110644307E+03  0.35965912222E+03  0.10158241120E+03 0.  0.
        -11    1    4    4    0    0 -0.38223136329E+02  0.68731799830E+02 -0.27533309998E+03  0.28634486969E+03  0.00000000000E+00 0. -1.
         11    1    4    4    0    0  0.26771251840E+02 -0.18224901564E+02 -0.65773343094E+02  0.73314252529E+02  0.00000000000E+00 0.  1.
        -13    1    3    3    0    0 -0.37394323368E+02 -0.92798066114E+01 -0.36712513002E+02  0.53218970695E+02  0.00000000000E+00 0. -1.
         13    1    3    3    0    0  0.36907436500E+02 -0.24848395354E+02  0.78748835260E+01  0.45184238526E+02  0.00000000000E+00 0.  1.
         21    1    1    2  502  501  0.11938771357E+02 -0.16378696300E+02  0.46890804004E+02  0.51083690686E+02  0.00000000000E+00 0.  1.
<scales pt_clust_5="13000.00000" pt_clust_6="13000.00000" pt_clust_7="13000.00000" pt_clust_8="13000.00000" pt_clust_9="20.26810"></scales>
<clustering>
<clus scale="   20.268">  1  9  2 -1</clus>
<clus scale="   87.673">  7  8 -1 -1</clus>
<clus scale="   99.905">  1  7  2 -1</clus>
<clus scale="  101.582">  5  6 -1 -1</clus>
<clus scale="  112.309">  2  5  1 -1</clus>
</clustering>
</event>
<event>
 9    1  0.1484717E-005  0.1464285E+03  0.7546771E-02  0.1205866E+00
          2   -1    0    0  502    0  0.00000000000E+00  0.00000000000E+00  0.23319707343E+03  0.23319707343E+03  0.00000000000E+00 0. -1.
         -2   -1    0    0    0  501 -0.00000000000E+00 -0.00000000000E+00 -0.27886329428E+03  0.27886329428E+03  0.00000000000E+00 0.  1.
         23    2    1    2    0    0  0.10383853112E+03 -0.26365526998E+02 -0.13225848268E+03  0.19303138067E+03  0.91056170170E+02 0.  0.
         23    2    1    2    0    0 -0.11363238947E+03 -0.32195683124E+02  0.16511457357E+03  0.22058566104E+03  0.86292117262E+02 0.  0.
        -11    1    4    4    0    0 -0.26868129684E+02 -0.50829064555E+02  0.67283731014E+02  0.88501924586E+02  0.00000000000E+00 0.  1.
         11    1    4    4    0    0 -0.86764259784E+02  0.18633381431E+02  0.97830842557E+02  0.13208373645E+03  0.00000000000E+00 0. -1.
        -13    1    3    3    0    0  0.73100169483E+02 -0.88788190059E+00 -0.22892647730E+02  0.76606112242E+02  0.00000000000E+00 0. -1.
         13    1    3    3    0    0  0.30738361635E+02 -0.25477645097E+02 -0.10936583495E+03  0.11642526843E+03  0.00000000000E+00 0.  1.
         21    1    1    2  502  501  0.97938583492E+01  0.58561210121E+02 -0.78522311738E+02  0.98443325995E+02  0.00000000000E+00 0.  1.
<scales pt_clust_5="13000.00000" pt_clust_6="13000.00000" pt_clust_7="13000.00000" pt_clust_8="13000.00000" pt_clust_9="59.37453"></scales>
<clustering>
<clus scale="   59.375">  2  9  1 -1</clus>
<clus scale="   86.292">  5  6 -1 -1</clus>
<clus scale="   91.056">  7  8 -1 -1</clus>
<clus scale="  143.515">  1  5  2 -1</clus>
<clus scale="  143.515">  1  5  2 -1</clus>
</clustering>
</event>
<event>
 9    1  0.1484717E-005  0.9082976E+02  0.7546771E-02  0.1301310E+00
          2   -1    0    0  502    0  0.00000000000E+00  0.00000000000E+00  0.61695057107E+02  0.61695057107E+02  0.00000000000E+00 0. -1.
         -2   -1    0    0    0  501 -0.00000000000E+00 -0.00000000000E+00 -0.30385041874E+03  0.30385041874E+03  0.00000000000E+00 0.  1.
         23    2    1    2    0    0  0.10892941108E+02  0.12473631506E+02 -0.18314891805E+03  0.20470987839E+03  0.89935312760E+02 0.  0.
         23    2    1    2    0    0  0.17715299585E+01  0.87654252436E+01  0.59534038838E+01  0.91328273075E+02  0.90694208453E+02 0.  0.
        -11    1    3    3    0    0  0.14014087568E+02  0.40131095832E+02 -0.38318959871E+02  0.57229731684E+02  0.00000000000E+00 0. -1.
         11    1    3    3    0    0 -0.31211464602E+01 -0.27657464326E+02 -0.14482995818E+03  0.14748014671E+03  0.00000000000E+00 0.  1.
        -13    1    4    4    0    0 -0.17500041876E+02 -0.21957030547E+02 -0.29419353039E+02  0.40667689747E+02  0.00000000000E+00 0.  1.
         13    1    4    4    0    0  0.19271571835E+02  0.30722455791E+02  0.35372756923E+02  0.50660583328E+02  0.00000000000E+00 0. -1.
         21    1    1    2  502  501 -0.12664471066E+02 -0.21239056750E+02 -0.64959847467E+02  0.69507324377E+02  0.00000000000E+00 0.  1.
<scales pt_clust_5="13000.00000" pt_clust_6="13000.00000" pt_clust_7="13000.00000" pt_clust_8="13000.00000" pt_clust_9="24.72825"></scales>
<clustering>
<clus scale="   24.728">  2  9  1 -1</clus>
<clus scale="   89.935">  5  6 -1 -1</clus>
<clus scale="   90.072">  2  5  1 -1</clus>
<clus scale="   90.694">  7  8 -1 -1</clus>
<clus scale="   90.830">  1  5  2 -1</clus>
</clustering>
</event>
<event>
 9    1  0.1484717E-005  0.2259935E+03  0.7546771E-02  0.1129868E+00
          1   -1    0    0  502    0  0.00000000000E+00  0.00000000000E+00  0.86085088442E+03  0.86085088442E+03  0.00000000000E+00 0. -1.
         -1   -1    0    0    0  501 -0.00000000000E+00 -0.00000000000E+00 -0.11327519706E+03  0.11327519706E+03  0.00000000000E+00 0.  1.
         23    2    1    2    0    0 -0.20889479732E+03  0.60006263304E+02  0.33423568644E+03  0.40808580046E+03  0.87078920892E+02 0.  0.
         23    2    1    2    0    0  0.18126611902E+03 -0.84029665025E+02  0.45809346726E+03  0.50821865492E+03  0.92294019081E+02 0.  0.
        -11    1    3    3    0    0 -0.32896837037E+02 -0.25045842985E+01  0.11012465902E+02  0.34781449579E+02  0.00000000000E+00 0.  1.
         11    1    3    3    0    0 -0.17599796029E+03  0.62510847603E+02  0.32322322054E+03  0.37330435088E+03  0.00000000000E+00 0. -1.
        -13    1    4    4    0    0  0.12484378386E+03 -0.73334614348E+02  0.22053376045E+03  0.26381636706E+03  0.00000000000E+00 0.  1.
         13    1    4    4    0    0  0.56422335154E+02 -0.10695050677E+02  0.23755970681E+03  0.24440228786E+03  0.00000000000E+00 0. -1.
         21    1    1    2  502  501  0.27628678307E+02  0.24023401721E+02 -0.44753466337E+02  0.57821626096E+02  0.00000000000E+00 0.  1.
<scales pt_clust_5="13000.00000" pt_clust_6="13000.00000" pt_clust_7="13000.00000" pt_clust_8="13000.00000" pt_clust_9="36.61240"></scales>
<clustering>
<clus scale="   36.612">  2  9  1 -1</clus>
<clus scale="   87.079">  5  6 -1 -1</clus>
<clus scale="   92.294">  7  8 -1 -1</clus>
<clus scale="  223.914">  2  5  1 -1</clus>
<clus scale="  225.994">  1  5  2 -1</clus>
</clustering>
</event>
<event>
 9    1  0.1484717E-005  0.1316986E+03  0.7546771E-02  0.1230548E+00
         -1   -1    0    0    0  501 -0.00000000000E+00  0.00000000000E+00  0.19978135646E+03  0.19978135646E+03  0.00000000000E+00 0.  1.
          1   -1    0    0  502    0  0.00000000000E+00 -0.00000000000E+00 -0.10692429224E+03  0.10692429224E+03  0.00000000000E+00 0. -1.
         23    2    1    2    0    0  0.37048855171E+02  0.65239321796E+02  0.48697097247E+02  0.12689869469E+03  0.90017135350E+02 0.  0.
         23    2    1    2    0    0 -0.64336409766E+02 -0.45355602112E+02  0.13893536262E+02  0.13446348952E+03  0.10812536889E+03 0.  0.
        -11    1    3    3    0    0  0.39069390316E+02  0.40094051352E+02 -0.15362261711E+02  0.58051264399E+02  0.00000000000E+00 0. -1.
         11    1    3    3    0    0 -0.20205351451E+01  0.25145270445E+02  0.64059358958E+02  0.68847430294E+02  0.00000000000E+00 0.  1.
        -13    1    4    4    0    0 -0.89254818041E+02 -0.55167177026E+02  0.20426857999E+02  0.10689759816E+03  0.00000000000E+00 0.  1.
         13    1    4    4    0    0  0.24918408275E+02  0.98115749147E+01 -0.65333217378E+01  0.27565891355E+02  0.00000000000E+00 0. -1.
         21    1    1    2  502  501  0.27287554595E+02 -0.19883719684E+02  0.30266430710E+02  0.45343464492E+02  0.00000000000E+00 0. -1.
<scales pt_clust_5="13000.00000" pt_clust_6="13000.00000" pt_clust_7="13000.00000" pt_clust_8="13000.00000" pt_clust_9="33.76349"></scales>
<clustering>
<clus scale="   33.763">  1  9  2 -1</clus>
<clus scale="   90.017">  5  6 -1 -1</clus>
<clus scale="  108.125">  7  8 -1 -1</clus>
<clus scale="  117.288">  1  5  2 -1</clus>
<clus scale="  131.699">  2  5  1 -1</clus>
</clustering>
</event>
<event>
 9    1  0.1484717E-005  0.1457220E+03  0.7546771E-02  0.1215718E+00
         -3   -1    0    0    0  501 -0.00000000000E+00  0.00000000000E+00  0.17142277277E+03  0.17142277277E+03  0.00000000000E+00 0.  1.
          3   -1    0    0  502    0  0.00000000000E+00 -0.00000000000E+00 -0.38286546416E+03  0.38286546416E+03  0.00000000000E+00 0. -1.
         23    2    1    2    0    0 -0.89532579658E+02 -0.50393153815E+02 -0.25669966412E+02  0.16365940712E+03  0.12477941173E+03 0.  0.
         23    2    1    2    0    0  0.10102941851E+02  0.75789507562E+02 -0.25560702415E+03  0.28185902019E+03  0.90903451969E+02 0.  0.
        -11    1    4    4    0    0  0.48079249113E+02  0.58342666871E+02 -0.18436550221E+03  0.19926394400E+03  0.00000000000E+00 0. -1.
         11    1    4    4    0    0 -0.37976307262E+02  0.17446840691E+02 -0.71241521933E+02  0.82595076190E+02  0.00000000000E+00 0.  1.
        -11    1    3    3    0    0 -0.31908603645E+02 -0.58571003189E+02  0.38511396152E+02  0.77018498003E+02  0.00000000000E+00 0.  1.
         11    1    3    3    0    0 -0.57623976013E+02  0.81778493743E+01 -0.64181362564E+02  0.86640909116E+02  0.00000000000E+00 0. -1.
         21    1    1    2  502  501  0.79429637807E+02 -0.25396353747E+02  0.69834299161E+02  0.10876980962E+03  0.00000000000E+00 0.  1.
<scales pt_clust_5="13000.00000" pt_clust_6="13000.00000" pt_clust_7="13000.00000" pt_clust_8="13000.00000" pt_clust_9="83.39090"></scales>
<clustering>
<clus scale="   83.391">  1  9  2 -1</clus>
<clus scale="   90.903">  5  6 -1 -1</clus>
<clus scale="  118.019">  2  5  1 -1</clus>
<clus scale="  124.779">  7  8 -1 -1</clus>
<clus scale="  118.019">  2  5  1 -1</clus>
</clustering>
</event>
<event>
 9    1  0.1484717E-005  0.9271299E+02  0.7546771E-02  0.1299783E+00
         -1   -1    0    0    0  501 -0.00000000000E+00  0.00000000000E+00  0.10398324042E+03  0.10398324042E+03  0.00000000000E+00 0.  1.
          1   -1    0    0  502    0  0.00000000000E+00 -0.00000000000E+00 -0.34418167091E+03  0.34418167091E+03  0.00000000000E+00 0. -1.
         23    2    1    2    0    0 -0.33072496271E+02 -0.16985048568E+02  0.11772893071E+02  0.91832387508E+02  0.83140270025E+02 0.  0.
         23    2    1    2    0    0 -0.11831773962E+02 -0.32007200426E+02 -0.27094415745E+03  0.28721955562E+03  0.88993735278E+02 0.  0.
        -11    1    4    4    0    0  0.16645045084E+02 -0.46512395792E+02 -0.83090835671E+02  0.96667199508E+02  0.00000000000E+00 0.  1.
         11    1    4    4    0    0 -0.28476819046E+02  0.14505195366E+02 -0.18785332178E+03  0.19055235611E+03  0.00000000000E+00 0. -1.
        -11    1    3    3    0    0 -0.58180829688E+02  0.25986919246E+01  0.14046181971E+02  0.59908742023E+02  0.00000000000E+00 0. -1.
         11    1    3    3    0    0  0.25108333416E+02 -0.19583740493E+02 -0.22732888998E+01  0.31923645485E+02  0.00000000000E+00 0.  1.
         21    1    1    2  502  501  0.44904270233E+02  0.48992248994E+02  0.18972833894E+02  0.69112968195E+02  0.00000000000E+00 0.  1.
<scales pt_clust_5="13000.00000" pt_clust_6="13000.00000" pt_clust_7="13000.00000" pt_clust_8="13000.00000" pt_clust_9="66.45776"></scales>
<clustering>
<clus scale="   66.458">  1  9  2 -1</clus>
<clus scale="   83.140">  7  8 -1 -1</clus>
<clus scale="   87.110">  1  7  2 -1</clus>
<clus scale="   88.994">  5  6 -1 -1</clus>
<clus scale="   92.713">  2  5  1 -1</clus>
</clustering>
</event>
<event>
 9    1  0.1484717E-005  0.9623436E+02  0.7546771E-02  0.1290381E+00
         -1   -1    0    0    0  501 -0.00000000000E+00  0.00000000000E+00  0.19336841669E+03  0.19336841669E+03  0.00000000000E+00 0.  1.
          1   -1    0    0  502    0  0.00000000000E+00 -0.00000000000E+00 -0.59818845485E+02  0.59818845485E+02  0.00000000000E+00 0. -1.
         23    2    1    2    0    0  0.18961619609E+02  0.25857966353E+02  0.70204316944E+02  0.11861840602E+03  0.90074983688E+02 0.  0.
         23    2    1    2    0    0 -0.17015151906E+02 -0.26174302516E+01  0.47816266081E+02  0.10654992098E+03  0.93648940317E+02 0.  0.
        -11    1    4    4    0    0 -0.43204754952E+02  0.28523531220E+02  0.39251310315E+02  0.64968515800E+02  0.00000000000E+00 0.  1.
         11    1    4    4    0    0  0.26189603046E+02 -0.31140961472E+02  0.85649557652E+01  0.41581405175E+02  0.00000000000E+00 0. -1.
        -13    1    3    3    0    0  0.37234708864E+02 -0.21043082084E+02  0.18945822543E+02  0.46777976010E+02  0.00000000000E+00 0. -1.
         13    1    3    3    0    0 -0.18273089255E+02  0.46901048436E+02  0.51258494401E+02  0.71840430007E+02  0.00000000000E+00 0.  1.
         21    1    1    2  502  501 -0.19464677031E+01 -0.23240536101E+02  0.15528988178E+02  0.28018935180E+02  0.00000000000E+00 0. -1.
<scales pt_clust_5="13000.00000" pt_clust_6="13000.00000" pt_clust_7="13000.00000" pt_clust_8="13000.00000" pt_clust_9="23.32191"></scales>
<clustering>
<clus scale="   23.322">  1  9  2 -1</clus>
<clus scale="   90.075">  7  8 -1 -1</clus>
<clus scale="   92.760">  1  7  2 -1</clus>
<clus scale="   93.649">  5  6 -1 -1</clus>
<clus scale="   96.234">  2  5  1 -1</clus>
</clustering>
</event>
<event>
 9    1  0.1484717E-005  0.1008956E+03  0.7546771E-02  0.1280366E+00
         -1   -1    0    0    0  501 -0.00000000000E+00  0.00000000000E+00  0.47754878299E+02  0.47754878299E+02  0.00000000000E+00 0.  1.
          1   -1    0    0  502    0  0.00000000000E+00 -0.00000000000E+00 -0.25466142161E+03  0.25466142161E+03  0.00000000000E+00 0. -1.
         23    2    1    2    0    0  0.41861136540E+02 -0.25500658867E+02 -0.86750692361E+02  0.13317714876E+03  0.88361937350E+02 0.  0.
         23    2    1    2    0    0 -0.21896554370E+02  0.26735652734E+02 -0.10561955751E+03  0.14451237259E+03  0.92380088120E+02 0.  0.
        -11    1    3    3    0    0  0.69215799594E+02 -0.24705455186E+02 -0.59527526037E+02  0.94576491717E+02  0.00000000000E+00 0.  1.
         11    1    3    3    0    0 -0.27354663053E+02 -0.79520368068E+00 -0.27223166324E+02  0.38600657046E+02  0.00000000000E+00 0. -1.
        -13    1    4    4    0    0 -0.12976835210E+02 -0.31354313439E+02 -0.64187710405E+02  0.72605463916E+02  0.00000000000E+00 0. -1.
         13    1    4    4    0    0 -0.89197191601E+01  0.58089966174E+02 -0.41431847107E+02  0.71906908671E+02  0.00000000000E+00 0.  1.
         21    1    1    2  502  501 -0.19964582171E+02 -0.12349938675E+01 -0.14536293440E+02  0.24726778563E+02  0.00000000000E+00 0. -1.
<scales pt_clust_5="13000.00000" pt_clust_6="13000.00000" pt_clust_7="13000.00000" pt_clust_8="13000.00000" pt_clust_9="20.00274"></scales>
<clustering>
<clus scale="   20.003">  1  9  2 -1</clus>
<clus scale="   88.362">  5  6 -1 -1</clus>
<clus scale="   92.380">  7  8 -1 -1</clus>
<clus scale="   97.230">  1  5  2 -1</clus>
<clus scale="  100.896">  2  5  1 -1</clus>
</clustering>
</event>
<event>
 9    1  0.1484717E-005  0.1118413E+03  0.7546771E-02  0.1258226E+00
         -2   -1    0    0    0  501 -0.00000000000E+00  0.00000000000E+00  0.46157459637E+02  0.46157459637E+02  0.00000000000E+00 0.  1.
          2   -1    0    0  502    0  0.00000000000E+00 -0.00000000000E+00 -0.36877871716E+03  0.36877871716E+03  0.00000000000E+00 0. -1.
         23    2    1    2    0    0  0.44787648476E+02 -0.30345223286E+01 -0.11482287471E+03  0.15279663858E+03  0.90262829699E+02 0.  0.
         23    2    1    2    0    0 -0.78557694032E+02  0.78538852657E+01 -0.18316809094E+03  0.22006468213E+03  0.92978061823E+02 0.  0.
        -11    1    4    4    0    0 -0.97141199773E+02  0.16856155068E+02 -0.16661241048E+03  0.19359813527E+03  0.00000000000E+00 0.  1.
         11    1    4    4    0    0  0.18583505741E+02 -0.90022698018E+01 -0.16555680460E+02  0.26466546860E+02  0.00000000000E+00 0. -1.
        -13    1    3    3    0    0 -0.11711676058E+02 -0.34094885568E+02 -0.35763405353E+02  0.50780367668E+02  0.00000000000E+00 0.  1.
         13    1    3    3    0    0  0.56499324534E+02  0.31060363240E+02 -0.79059469353E+02  0.10201627092E+03  0.00000000000E+00 0. -1.
         21    1    1    2  502  501  0.33770045556E+02 -0.48193629371E+01 -0.24630291884E+02  0.42074856081E+02  0.00000000000E+00 0. -1.
<scales pt_clust_5="13000.00000" pt_clust_6="13000.00000" pt_clust_7="13000.00000" pt_clust_8="13000.00000" pt_clust_9="34.11220"></scales>
<clustering>
<clus scale="   34.112">  1  9  2 -1</clus>
<clus scale="   90.263">  7  8 -1 -1</clus>
<clus scale="   92.978">  5  6 -1 -1</clus>
<clus scale="  109.594">  1  7  2 -1</clus>
<clus scale="  111.841">  2  5  1 -1</clus>
</clustering>
</event>
<event>
 9    1  0.1484717E-005  0.1104117E+03  0.7546771E-02  0.1260737E+00
         -2   -1    0    0    0  501 -0.00000000000E+00  0.00000000000E+00  0.70110080519E+02  0.70110080519E+02  0.00000000000E+00 0.  1.
          2   -1    0    0  502    0  0.00000000000E+00 -0.00000000000E+00 -0.29122547041E+03  0.29122547041E+03  0.00000000000E+00 0. -1.
         23    2    1    2    0    0  0.87580284783E+01  0.64472119842E+02 -0.10701094260E+02  0.11276773835E+03  0.91480555823E+02 0.  0.
         23    2    1    2    0    0 -0.18664129589E+02 -0.36215428702E+02 -0.15883309054E+03  0.18892561148E+03  0.93835116103E+02 0.  0.
        -11    1    3    3    0    0 -0.80985323977E+01  0.85108359648E+02 -0.10374294862E+02  0.86119946022E+02  0.00000000000E+00 0.  1.
         11    1    3    3    0    0  0.16856560876E+02 -0.20636239806E+02 -0.32679939787E+00  0.26647792324E+02  0.00000000000E+00 0. -1.
        -11    1    4    4    0    0 -0.44782864091E+02 -0.24927481234E+01 -0.31959702582E+02  0.55073962074E+02  0.00000000000E+00 0.  1.
         11    1    4    4    0    0  0.26118734502E+02 -0.33722680579E+02 -0.12687338796E+03  0.13385164941E+03  0.00000000000E+00 0. -1.
         21    1    1    2  502  501  0.99061011106E+01 -0.28256691140E+02 -0.51581205089E+02  0.59642201098E+02  0.00000000000E+00 0. -1.
<scales pt_clust_5="13000.00000" pt_clust_6="13000.00000" pt_clust_7="13000.00000" pt_clust_8="13000.00000" pt_clust_9="29.94280"></scales>
<clustering>
<clus scale="   29.943">  2  9  1 -1</clus>
<clus scale="   91.481">  5  6 -1 -1</clus>
<clus scale="   93.835">  7  8 -1 -1</clus>
<clus scale="  108.418">  1  5  2 -1</clus>
<clus scale="   29.943">  2  5  1 -1</clus>
</clustering>
</event>
<event>
 9    1  0.1484717E-005  0.1012708E+03  0.7546771E-02  0.1280335E+00
          1   -1    0    0  502    0  0.00000000000E+00  0.00000000000E+00  0.51242651795E+03  0.51242651795E+03  0.00000000000E+00 0. -1.
         -1   -1    0    0    0  501 -0.00000000000E+00 -0.00000000000E+00 -0.28966238780E+02  0.28966238780E+02  0.00000000000E+00 0.  1.
         23    2    1    2    0    0  0.23219835133E+02 -0.96629416824E+01  0.14192833713E+03  0.16836336347E+03  0.87005954360E+02 0.  0.
         23    2    1    2    0    0 -0.52538048888E+02  0.48580017021E+00  0.31479258731E+03  0.33230138477E+03  0.92570809172E+02 0.  0.
        -11    1    4    4    0    0 -0.44994317082E+01 -0.32526771609E+02  0.41799077778E+02  0.53154479211E+02  0.00000000000E+00 0.  1.
         11    1    4    4    0    0 -0.48038617180E+02  0.33012571779E+02  0.27299350953E+03  0.27914690556E+03  0.00000000000E+00 0. -1.
        -13    1    3    3    0    0 -0.29355851160E+02 -0.12906342866E+01  0.87176131943E+02  0.91995161366E+02  0.00000000000E+00 0. -1.
         13    1    3    3    0    0  0.52575686293E+02 -0.83723073958E+01  0.54752205188E+02  0.76368202109E+02  0.00000000000E+00 0.  1.
         21    1    1    2  502  501  0.29318213754E+02  0.91771415122E+01  0.26739354728E+02  0.40728008487E+02  0.00000000000E+00 0.  1.
<scales pt_clust_5="13000.00000" pt_clust_6="13000.00000" pt_clust_7="13000.00000" pt_clust_8="13000.00000" pt_clust_9="30.72096"></scales>
<clustering>
<clus scale="   30.721">  2  9  1 -1</clus>
<clus scale="   87.006">  7  8 -1 -1</clus>
<clus scale="   92.571">  5  6 -1 -1</clus>
<clus scale="   96.210">  2  7  1 -1</clus>
<clus scale="  101.271">  1  5  2 -1</clus>
</clustering>
</event>
<event>
 9    1  0.1484717E-005  0.9171993E+02  0.7546771E-02  0.1298779E+00
         -1   -1    0    0    0  501 -0.00000000000E+00  0.00000000000E+00  0.21175955637E+03  0.21175955637E+03  0.00000000000E+00 0.  1.
          1   -1    0    0  502    0  0.00000000000E+00 -0.00000000000E+00 -0.72693829811E+02  0.72693829811E+02  0.00000000000E+00 0. -1.
         23    2    1    2    0    0 -0.22084729598E+02  0.56521282442E+01  0.27635578786E+02  0.97941088234E+02  0.91153989022E+02 0.  0.
         23    2    1    2    0    0 -0.42999710980E+01  0.15591723045E+02  0.28294888483E+02  0.96740782500E+02  0.91085600978E+02 0.  0.
        -11    1    4    4    0    0 -0.26386407463E+02 -0.15495234000E+02 -0.18975780010E+02  0.36005902329E+02  0.00000000000E+00 0.  1.
         11    1    4    4    0    0  0.22086436365E+02  0.31086957045E+02  0.47270668493E+02  0.60734880171E+02  0.00000000000E+00 0. -1.
        -11    1    3    3    0    0 -0.43510128086E+02  0.31573539667E+01 -0.18211538214E+02  0.47273250938E+02  0.00000000000E+00 0.  1.
         11    1    3    3    0    0  0.21425398489E+02  0.24947742775E+01  0.45847117000E+02  0.50667837296E+02  0.00000000000E+00 0. -1.
         21    1    1    2  502  501  0.26384700696E+02 -0.21243851289E+02  0.83135259291E+02  0.89771515448E+02  0.00000000000E+00 0. -1.
<scales pt_clust_5="13000.00000" pt_clust_6="13000.00000" pt_clust_7="13000.00000" pt_clust_8="13000.00000" pt_clust_9="33.87409"></scales>
<clustering>
<clus scale="   33.874">  1  9  2 -1</clus>
<clus scale="   91.086">  5  6 -1 -1</clus>
<clus scale="   91.154">  7  8 -1 -1</clus>
<clus scale="   91.652">  2  5  1 -1</clus>
<clus scale="   91.652">  2  5  1 -1</clus>
</clustering>
</event>
<event>
 9    1  0.1484717E-005  0.9587900E+02  0.7546771E-02  0.1289809E+00
         -2   -1    0    0    0  501 -0.00000000000E+00  0.00000000000E+00  0.14037702100E+03  0.14037702100E+03  0.00000000000E+00 0.  1.
          2   -1    0    0  502    0  0.00000000000E+00 -0.00000000000E+00 -0.15575628065E+03  0.15575628065E+03  0.00000000000E+00 0. -1.
         23    2    1    2    0    0 -0.56603429306E+01  0.60360384401E+02  0.30010712260E+02  0.11204290700E+03  0.89317157762E+02 0.  0.
         23    2    1    2    0    0  0.34291673754E+02  0.44399723801E+01  0.84948083919E+01  0.95082479886E+02  0.88163960710E+02 0.  0.
        -11    1    3    3    0    0 -0.10096950202E+02 -0.21342523066E+02  0.17226890536E+02  0.29226998679E+02  0.00000000000E+00 0.  1.
         11    1    3    3    0    0  0.44366072711E+01  0.81702907467E+02  0.12783821724E+02  0.82815908318E+02  0.00000000000E+00 0. -1.
        -13    1    4    4    0    0  0.43269064944E+02 -0.17210252573E+02 -0.26034669180E+02  0.53349871359E+02  0.00000000000E+00 0.  1.
         13    1    4    4    0    0 -0.89773911897E+01  0.21650224953E+02  0.34529477571E+02  0.41732608527E+02  0.00000000000E+00 0. -1.
         21    1    1    2  502  501 -0.28631330824E+02 -0.64800356781E+02 -0.53884780301E+02  0.89007914770E+02  0.00000000000E+00 0.  1.
<scales pt_clust_5="13000.00000" pt_clust_6="13000.00000" pt_clust_7="13000.00000" pt_clust_8="13000.00000" pt_clust_9="70.84377"></scales>
<clustering>
<clus scale="   70.844">  2  9  1 -1</clus>
<clus scale="   88.164">  7  8 -1 -1</clus>
<clus scale="   89.317">  5  6 -1 -1</clus>
<clus scale="   94.806">  2  7  1 -1</clus>
<clus scale="   70.844">  2  5  1 -1</clus>
</clustering>
</event>
<event>
 9    1  0.1484717E-005  0.9954178E+02  0.7546771E-02  0.1281561E+00
         -2   -1    0    0    0  501 -0.00000000000E+00  0.00000000000E+00  0.20714712426E+03  0.20714712426E+03  0.00000000000E+00 0.  1.
          2   -1    0    0  502    0  0.00000000000E+00 -0.00000000000E+00 -0.11112572029E+03  0.11112572029E+03  0.00000000000E+00 0. -1.
         23    2    1    2    0    0  0.27145770721E+02 -0.20094777055E+02  0.34929834610E+02  0.10276377418E+03  0.90551681409E+02 0.  0.
         23    2    1    2    0    0  0.31830342634E+02  0.51903331670E+02 -0.18809129696E+02  0.11123017603E+03  0.91166014217E+02 0.  0.
        -13    1    3    3    0    0 -0.22822449550E+02 -0.35326292114E+02  0.26868782011E+02  0.49907339789E+02  0.00000000000E+00 0. -1.
         13    1    3    3    0    0  0.49968220271E+02  0.15231515060E+02  0.80610525993E+01  0.52856434396E+02  0.00000000000E+00 0.  1.
        -13    1    4    4    0    0 -0.19025590661E+02 -0.14933652451E+02 -0.11916200931E+02  0.26962620795E+02  0.00000000000E+00 0. -1.
         13    1    4    4    0    0  0.50855933295E+02  0.66836984121E+02 -0.68929287644E+01  0.84267555231E+02  0.00000000000E+00 0.  1.
         21    1    1    2  502  501 -0.58976113355E+02 -0.31808554616E+02  0.79900699056E+02  0.10427889433E+03  0.00000000000E+00 0. -1.
<scales pt_clust_5="13000.00000" pt_clust_6="13000.00000" pt_clust_7="13000.00000" pt_clust_8="13000.00000" pt_clust_9="67.00721"></scales>
<clustering>
<clus scale="   67.007">  1  9  2 -1</clus>
<clus scale="   90.552">  5  6 -1 -1</clus>
<clus scale="   91.166">  7  8 -1 -1</clus>
<clus scale="   98.979">  1  5  2 -1</clus>
<clus scale="   99.542">  2  5  1 -1</clus>
</clustering>
</event>
<event>
 9    1  0.1484717E-005  0.2028747E+03  0.7546771E-02  0.1147528E+00
          2   -1    0    0  502    0  0.00000000000E+00  0.00000000000E+00  0.31913774897E+03  0.31913774897E+03  0.00000000000E+00 0. -1.
         -2   -1    0    0    0  501 -0.00000000000E+00 -0.00000000000E+00 -0.52868324375E+03  0.52868324375E+03  0.00000000000E+00 0.  1.
         23    2    1    2    0    0  0.13727892961E+03 -0.37229894840E+02 -0.24278990249E+03  0.29485227035E+03  0.88087201077E+02 0.  0.
         23    2    1    2    0    0 -0.15510643393E+03  0.10682053579E+03  0.24935068180E+03  0.32523510843E+03  0.90185811134E+02 0.  0.
        -11    1    3    3    0    0  0.85753689740E+02 -0.22974108404E+02 -0.21905149850E+03  0.23635791495E+03  0.00000000000E+00 0.  1.
         11    1    3    3    0    0  0.51525239865E+02 -0.14255786436E+02 -0.23738403992E+02  0.58494355404E+02  0.00000000000E+00 0. -1.
        -13    1    4    4    0    0 -0.91428875854E+02  0.11004863887E+03  0.15092289086E+03  0.20796072043E+03  0.00000000000E+00 0. -1.
         13    1    4    4    0    0 -0.63677558079E+02 -0.32281030766E+01  0.98427790939E+02  0.11727438800E+03  0.00000000000E+00 0.  1.
         21    1    1    2  502  501  0.17827504327E+02 -0.69590640949E+02 -0.21610627409E+03  0.22773361394E+03  0.00000000000E+00 0. -1.
<scales pt_clust_5="13000.00000" pt_clust_6="13000.00000" pt_clust_7="13000.00000" pt_clust_8="13000.00000" pt_clust_9="71.83785"></scales>
<clustering>
<clus scale="   71.838">  2  9  1 -1</clus>
<clus scale="   88.087">  5  6 -1 -1</clus>
<clus scale="   90.186">  7  8 -1 -1</clus>
<clus scale="  201.951">  2  5  1 -1</clus>
<clus scale="  202.875">  1  5  2 -1</clus>
</clustering>
</event>
<event>
 9    1  0.1484717E-005  0.1198662E+03  0.7546771E-02  0.1243395E+00
          1   -1    0    0  502    0  0.00000000000E+00  0.00000000000E+00  0.53820416463E+02  0.53820416463E+02  0.00000000000E+00 0. -1.
         -1   -1    0    0    0  501 -0.00000000000E+00 -0.00000000000E+00 -0.52652473666E+03  0.52652473666E+03  0.00000000000E+00 0.  1.
         23    2    1    2    0    0 -0.69244868494E+02 -0.63709470064E+02 -0.19657942907E+03  0.23580546773E+03  0.90038870993E+02 0.  0.
         23    2    1    2    0    0  0.31561997064E+02  0.66417112890E+02 -0.71907545619E+02  0.13685710467E+03  0.90287205285E+02 0.  0.
        -11    1    3    3    0    0 -0.26241288880E+02 -0.24596064814E+02 -0.16652577845E+03  0.17036550864E+03  0.00000000000E+00 0.  1.
         11    1    3    3    0    0 -0.43003579614E+02 -0.39113405250E+02 -0.30053650617E+02  0.65439959087E+02  0.00000000000E+00 0. -1.
        -13    1    4    4    0    0  0.17361125889E+02  0.84953018631E+02 -0.35694416193E+02  0.93768413733E+02  0.00000000000E+00 0.  1.
         13    1    4    4    0    0  0.14200871175E+02 -0.18535905741E+02 -0.36213129426E+02  0.43088690936E+02  0.00000000000E+00 0. -1.
         21    1    1    2  502  501  0.37682871430E+02 -0.27076428259E+01 -0.20421734551E+03  0.20768258073E+03  0.00000000000E+00 0.  1.
<scales pt_clust_5="13000.00000" pt_clust_6="13000.00000" pt_clust_7="13000.00000" pt_clust_8="13000.00000" pt_clust_9="37.78002"></scales>
<clustering>
<clus scale="   37.780">  2  9  1 -1</clus>
<clus scale="   90.039">  5  6 -1 -1</clus>
<clus scale="   90.287">  7  8 -1 -1</clus>
<clus scale="  119.679">  2  5  1 -1</clus>
<clus scale="  119.866">  1  5  2 -1</clus>
</clustering>
</event>
<event>
 9    1  0.1484717E-005  0.1040355E+03  0.7546771E-02  0.1273099E+00
          3   -1    0    0  502    0  0.00000000000E+00  0.00000000000E+00  0.13633127186E+03  0.13633127186E+03  0.00000000000E+00 0. -1.
         -3   -1    0    0    0  501 -0.00000000000E+00 -0.00000000000E+00 -0.18863626470E+03  0.18863626470E+03  0.00000000000E+00 0.  1.
         23    2    1    2    0    0 -0.68592849865E+01 -0.12602143052E+02 -0.11709840388E+03  0.14986468897E+03  0.92420371167E+02 0.  0.
         23    2    1    2    0    0 -0.10467818277E+02  0.54294232872E+02  0.74041901329E+02  0.12901604435E+03  0.90030537060E+02 0.  0.
        -11    1    4    4    0    0 -0.48003573414E+02  0.47123786988E+02  0.50724342732E+02  0.84249351963E+02  0.00000000000E+00 0. -1.
         11    1    4    4    0    0  0.37535755137E+02  0.71704458837E+01  0.23317558598E+02  0.44766692382E+02  0.00000000000E+00 0.  1.
        -13    1    3    3    0    0 -0.11086221435E+01  0.25352742238E+02  0.12883068025E+01  0.25409650065E+02  0.00000000000E+00 0. -1.
         13    1    3    3    0    0 -0.57506628430E+01 -0.37954885290E+02 -0.11838671069E+03  0.12445503890E+03  0.00000000000E+00 0.  1.
         21    1    1    2  502  501  0.17327103264E+02 -0.41692089820E+02 -0.92484902850E+01  0.46086803248E+02  0.00000000000E+00 0.  1.
<scales pt_clust_5="13000.00000" pt_clust_6="13000.00000" pt_clust_7="13000.00000" pt_clust_8="13000.00000" pt_clust_9="45.14930"></scales>
<clustering>
<clus scale="   45.149">  2  9  1 -1</clus>
<clus scale="   90.031">  5  6 -1 -1</clus>
<clus scale="   92.420">  7  8 -1 -1</clus>
<clus scale="  101.918">  1  5  2 -1</clus>
<clus scale="  101.918">  1  5  2 -1</clus>
</clustering>
</event>
<event>
 9    1  0.1484717E-005  0.1292121E+03  0.7546771E-02  0.1229042E+00
          3   -1    0    0  502    0  0.00000000000E+00  0.00000000000E+00  0.66692245893E+03  0.66692245893E+03  0.00000000000E+00 0. -1.
         -3   -1    0    0    0  501 -0.00000000000E+00 -0.00000000000E+00 -0.50303118972E+02  0.50303118972E+02  0.00000000000E+00 0.  1.
         23    2    1    2    0    0 -0.12317252700E+02  0.37819621466E+02  0.96076391968E+02  0.13845567096E+03  0.91418057546E+02 0.  0.
         23    2    1    2    0    0  0.45802181960E+02 -0.11080968936E+03  0.43834228561E+03  0.46385367922E+03  0.92949713495E+02 0.  0.
        -11    1    4    4    0    0  0.31875706540E+02  0.44849857567E+01  0.14121495553E+03  0.14483728604E+03  0.00000000000E+00 0.  1.
         11    1    4    4    0    0  0.13926475419E+02 -0.11529467512E+03  0.29712733008E+03  0.31901639317E+03  0.00000000000E+00 0. -1.
        -11    1    3    3    0    0  0.38820445923E+02  0.62921480367E+01  0.32877060992E+02  0.51259333668E+02  0.00000000000E+00 0. -1.
         11    1    3    3    0    0 -0.51137698623E+02  0.31527473429E+02  0.63199330976E+02  0.87196337292E+02  0.00000000000E+00 0.  1.
         21    1    1    2  502  501 -0.33484929260E+02  0.72990067897E+02  0.82200662377E+02  0.11491622772E+03  0.00000000000E+00 0.  1.
<scales pt_clust_5="13000.00000" pt_clust_6="13000.00000" pt_clust_7="13000.00000" pt_clust_8="13000.00000" pt_clust_9="80.30436"></scales>
<clustering>
<clus scale="   80.304">  2  9  1 -1</clus>
<clus scale="   91.418">  7  8 -1 -1</clus>
<clus scale="   92.950">  5  6 -1 -1</clus>
<clus scale="  128.115">  2  7  1 -1</clus>
<clus scale="  129.212">  1  5  2 -1</clus>
</clustering>
</event>
<event>
 9    1  0.1484717E-005  0.1377783E+03  0.7546771E-02  0.1217331E+00
          2   -1    0    0  502    0  0.00000000000E+00  0.00000000000E+00  0.25588777213E+03  0.25588777213E+03  0.00000000000E+00 0. -1.
         -2   -1    0    0    0  501 -0.00000000000E+00 -0.00000000000E+00 -0.18261129819E+03  0.18261129819E+03  0.00000000000E+00 0.  1.
         23    2    1    2    0    0 -0.94884753367E+02 -0.42173980069E+02 -0.10958029625E+03  0.17732029862E+03  0.93020889911E+02 0.  0.
         23    2    1    2    0    0  0.64356444928E+02  0.78191383334E+02  0.10781350852E+03  0.17251805844E+03  0.88786730073E+02 0.  0.
        -11    1    4    4    0    0 -0.15907588146E+02  0.42170014742E+02  0.49635800631E+02  0.67045314588E+02  0.00000000000E+00 0.  1.
         11    1    4    4    0    0  0.80264033074E+02  0.36021368592E+02  0.58177707893E+02  0.10547274385E+03  0.00000000000E+00 0. -1.
        -13    1    3    3    0    0 -0.83934420801E+02 -0.67611533069E+02 -0.68256220121E+02  0.12757436257E+03  0.00000000000E+00 0.  1.
         13    1    3    3    0    0 -0.10950332566E+02  0.25437553000E+02 -0.41324076125E+02  0.49745936050E+02  0.00000000000E+00 0. -1.
         21    1    1    2  502  501  0.30528308440E+02 -0.36017403266E+02  0.75043261662E+02  0.88660713256E+02  0.00000000000E+00 0. -1.
<scales pt_clust_5="13000.00000" pt_clust_6="13000.00000" pt_clust_7="13000.00000" pt_clust_8="13000.00000" pt_clust_9="47.21473"></scales>
<clustering>
<clus scale="   47.215">  1  9  2 -1</clus>
<clus scale="   88.787">  5  6 -1 -1</clus>
<clus scale="   93.021">  7  8 -1 -1</clus>
<clus scale="  134.956">  1  5  2 -1</clus>
<clus scale="   47.215">  1  5  2 -1</clus>
</clustering>
</event>
<event>
 9    1  0.1484717E-005  0.9383929E+02  0.7546771E-02  0.1294161E+00
         -1   -1    0    0    0  501 -0.00000000000E+00  0.00000000000E+00  0.13815365774E+03  0.13815365774E+03  0.00000000000E+00 0.  1.
          1   -1    0    0  502    0  0.00000000000E+00 -0.00000000000E+00 -0.14789631668E+03  0.14789631668E+03  0.00000000000E+00 0. -1.
         23    2    1    2    0    0 -0.59494153807E+01  0.36766782849E+01 -0.37230772468E+02  0.98752220498E+02  0.91197352637E+02 0.  0.
         23    2    1    2    0    0  0.28936939484E+02 -0.12678006759E+02 -0.47682227428E+02  0.10817740042E+03  0.91818717199E+02 0.  0.
        -11    1    4    4    0    0  0.51575662453E+02 -0.11642940534E+02 -0.61912834615E+02  0.81417480383E+02  0.00000000000E+00 0. -1.
         11    1    4    4    0    0 -0.22638722969E+02 -0.10350662245E+01  0.14230607187E+02  0.26759920042E+02  0.00000000000E+00 0.  1.
        -13    1    3    3    0    0  0.40261789685E+02 -0.12542376763E+02 -0.21351475774E+02  0.47267414159E+02  0.00000000000E+00 0. -1.
         13    1    3    3    0    0 -0.46211205066E+02  0.16219055048E+02 -0.15879296694E+02  0.51484806339E+02  0.00000000000E+00 0.  1.
         21    1    1    2  502  501 -0.22987524103E+02  0.90013284740E+01  0.75170340955E+02  0.79120353500E+02  0.00000000000E+00 0.  1.
<scales pt_clust_5="13000.00000" pt_clust_6="13000.00000" pt_clust_7="13000.00000" pt_clust_8="13000.00000" pt_clust_9="24.68704"></scales>
<clustering>
<clus scale="   24.687">  1  9  2 -1</clus>
<clus scale="   91.197">  7  8 -1 -1</clus>
<clus scale="   91.819">  5  6 -1 -1</clus>
<clus scale="   93.231">  1  7  2 -1</clus>
<clus scale="   93.839">  2  5  1 -1</clus>
</clustering>
</event>
<event>
 9    1  0.1484717E-005  0.9896675E+02  0.7546771E-02  0.1283750E+00
         -1   -1    0    0    0  501 -0.00000000000E+00  0.00000000000E+00  0.72220697133E+02  0.72220697133E+02  0.00000000000E+00 0.  1.
          1   -1    0    0  502    0  0.00000000000E+00 -0.00000000000E+00 -0.22148792383E+03  0.22148792383E+03  0.00000000000E+00 0. -1.
         23    2    1    2    0    0 -0.13490947167E+02 -0.21122591341E+02 -0.29472866599E+02  0.97479290151E+02  0.89472859697E+02 0.  0.
         23    2    1    2    0    0  0.36393688006E+02  0.23090237969E+02 -0.13478528773E+03  0.16878602411E+03  0.91999937656E+02 0.  0.
        -13    1    3    3    0    0  0.48485911250E+01 -0.45234955864E+02  0.11115093498E+02  0.46832204426E+02  0.00000000000E+00 0.  1.
         13    1    3    3    0    0 -0.18339538292E+02  0.24112364523E+02 -0.40587960097E+02  0.50647085725E+02  0.00000000000E+00 0. -1.
        -13    1    4    4    0    0  0.19098828003E+02 -0.26740592028E+02 -0.11711342922E+02  0.34885241093E+02  0.00000000000E+00 0.  1.
         13    1    4    4    0    0  0.17294860003E+02  0.49830829996E+02 -0.12307394481E+03  0.13390078302E+03  0.00000000000E+00 0. -1.
         21    1    1    2  502  501 -0.22902740839E+02 -0.19676466273E+01  0.14990927638E+02  0.27443306700E+02  0.00000000000E+00 0. -1.
<scales pt_clust_5="13000.00000" pt_clust_6="13000.00000" pt_clust_7="13000.00000" pt_clust_8="13000.00000" pt_clust_9="22.98711"></scales>
<clustering>
<clus scale="   22.987">  1  9  2 -1</clus>
<clus scale="   89.473">  5  6 -1 -1</clus>
<clus scale="   92.000">  7  8 -1 -1</clus>
<clus scale="   96.622">  1  5  2 -1</clus>
<clus scale="   98.967">  2  5  1 -1</clus>
</clustering>
</event>
<event>
 9    1  0.1484717E-005  0.2066360E+03  0.7546771E-02  0.1144777E+00
         -1   -1    0    0    0  501 -0.00000000000E+00  0.00000000000E+00  0.53640680403E+03  0.53640680403E+03  0.00000000000E+00 0.  1.
          1   -1    0    0  502    0  0.00000000000E+00 -0.00000000000E+00 -0.17979379739E+03  0.17979379739E+03  0.00000000000E+00 0. -1.
         23    2    1    2    0    0 -0.48694475174E+02 -0.12898332993E+03  0.17930084635E+03  0.24592215673E+03  0.96545649086E+02 0.  0.
         23    2    1    2    0    0  0.55043683083E+02  0.19319299258E+03 -0.56571187312E+02  0.22765813742E+03  0.90964767177E+02 0.  0.
        -13    1    4    4    0    0  0.23572039878E+02  0.17384181067E+03 -0.69238778917E+02  0.18860176221E+03  0.00000000000E+00 0. -1.
         13    1    4    4    0    0  0.31471643206E+02  0.19351181911E+02  0.12667591605E+02  0.39056375209E+02  0.00000000000E+00 0.  1.
        -13    1    3    3    0    0  0.21610139158E+02 -0.75237752966E+02  0.67707985523E+02  0.10349922169E+03  0.00000000000E+00 0.  1.
         13    1    3    3    0    0 -0.70304614333E+02 -0.53745576961E+02  0.11159286083E+03  0.14242293504E+03  0.00000000000E+00 0. -1.
         21    1    1    2  502  501 -0.63492079092E+01 -0.64209662656E+02  0.23388334760E+03  0.24262030728E+03  0.00000000000E+00 0.  1.
<scales pt_clust_5="13000.00000" pt_clust_6="13000.00000" pt_clust_7="13000.00000" pt_clust_8="13000.00000" pt_clust_9="64.52281"></scales>
<clustering>
<clus scale="   64.523">  1  9  2 -1</clus>
<clus scale="   90.965">  5  6 -1 -1</clus>
<clus scale="   96.546">  7  8 -1 -1</clus>
<clus scale="  204.088">  2  5  1 -1</clus>
<clus scale="  204.088">  2  5  1 -1</clus>
</clustering>
</event>
<event>
 9    1  0.1484717E-005  0.1182978E+03  0.7546771E-02  0.1256417E+00
         -2   -1    0    0    0  501 -0.00000000000E+00  0.00000000000E+00  0.36170897955E+03  0.36170897955E+03  0.00000000000E+00 0.  1.
          2   -1    0    0  502    0  0.00000000000E+00 -0.00000000000E+00 -0.28977569932E+03  0.28977569932E+03  0.00000000000E+00 0. -1.
         23    2    1    2    0    0 -0.11516336816E+00 -0.37739135355E+02  0.31448831489E+03  0.33709169103E+03  0.11534145983E+03 0.  0.
         23    2    1    2    0    0  0.13273345933E+02  0.22491192066E+02 -0.26641958985E+03  0.28316552336E+03  0.92310781238E+02 0.  0.
        -13    1    4    4    0    0  0.53104026961E+02  0.14369801980E+02 -0.14260716452E+03  0.15285068617E+03  0.00000000000E+00 0. -1.
         13    1    4    4    0    0 -0.39830681028E+02  0.81213900858E+01 -0.12381242533E+03  0.13031483720E+03  0.00000000000E+00 0.  1.
        -13    1    3    3    0    0 -0.47350896030E+02 -0.53332301241E+02  0.17354835021E+03  0.18763121162E+03  0.00000000000E+00 0.  1.
         13    1    3    3    0    0  0.47235732662E+02  0.15593165887E+02  0.14093996468E+03  0.14946047941E+03  0.00000000000E+00 0. -1.
         21    1    1    2  502  501 -0.13158182565E+02  0.15247943289E+02  0.23864555188E+02  0.31227464471E+02  0.00000000000E+00 0.  1.
<scales pt_clust_5="13000.00000" pt_clust_6="13000.00000" pt_clust_7="13000.00000" pt_clust_8="13000.00000" pt_clust_9="20.14045"></scales>
<clustering>
<clus scale="   20.140">  1  9  2 -1</clus>
<clus scale="   92.311">  5  6 -1 -1</clus>
<clus scale="   95.979">  2  5  1 -1</clus>
<clus scale="  115.341">  7  8 -1 -1</clus>
<clus scale="   95.979">  2  5  1 -1</clus>
</clustering>
</event>
<event>
 9    1  0.1674549E-005  0.1308459E+03  0.7546771E-02  0.1226307E+00
          1   -1    0    0  502    0  0.00000000000E+00  0.00000000000E+00  0.42646535030E+03  0.42646535030E+03  0.00000000000E+00 0. -1.
         -1   -1    0    0    0  501 -0.00000000000E+00 -0.00000000000E+00 -0.32911995816E+03  0.32911995816E+03  0.00000000000E+00 0.  1.
         23    2    1    2    0    0 -0.18074122864E+02  0.59879361546E+02 -0.17175146416E+03  0.20400878632E+03  0.90602470150E+02 0.  0.
         23    2    1    2    0    0  0.43130423891E+02 -0.85617639346E+02  0.39715661617E+03  0.41857434449E+03  0.90997200283E+02 0.  0.
        -13    1    3    3    0    0  0.99961516361E+01  0.67742221884E+02 -0.69033600270E+02  0.97234611325E+02  0.00000000000E+00 0.  1.
         13    1    3    3    0    0 -0.28070274501E+02 -0.78628603385E+01 -0.10271786389E+03  0.10677417499E+03  0.00000000000E+00 0. -1.
        -13    1    4    4    0    0 -0.21564806406E+02 -0.43077023650E+02  0.93237158896E+02  0.10494683721E+03  0.00000000000E+00 0.  1.
         13    1    4    4    0    0  0.64695230297E+02 -0.42540615696E+02  0.30391945728E+03  0.31362750727E+03  0.00000000000E+00 0. -1.
         21    1    1    2  502  501 -0.25056301027E+02  0.25738277800E+02 -0.12805975987E+03  0.13300217766E+03  0.00000000000E+00 0.  1.
<scales pt_clust_5="13000.00000" pt_clust_6="13000.00000" pt_clust_7="13000.00000" pt_clust_8="13000.00000" pt_clust_9="35.92043"></scales>
<clustering>
<clus scale="   35.920">  2  9  1 -1</clus>
<clus scale="   90.602">  5  6 -1 -1</clus>
<clus scale="   90.997">  7  8 -1 -1</clus>
<clus scale="  130.572">  2  5  1 -1</clus>
<clus scale="  130.846">  1  5  2 -1</clus>
</clustering>
</event>
<event>
 9    1  0.1484717E-005  0.1503785E+03  0.7546771E-02  0.1219048E+00
         -1   -1    0    0    0  501 -0.00000000000E+00  0.00000000000E+00  0.62380380515E+02  0.62380380515E+02  0.00000000000E+00 0.  1.
          1   -1    0    0  502    0  0.00000000000E+00 -0.00000000000E+00 -0.68989921586E+03  0.68989921586E+03  0.00000000000E+00 0. -1.
         23    2    1    2    0    0 -0.39677215449E+02 -0.78632607403E+01 -0.11566028698E+03  0.15296674516E+03  0.91571888943E+02 0.  0.
         23    2    1    2    0    0  0.10473430506E+03 -0.76191029898E+02 -0.44944310929E+03  0.47605200699E+03  0.88611834324E+02 0.  0.
        -13    1    4    4    0    0  0.41648906148E+02 -0.77356730429E+02 -0.19458306651E+03  0.21349769296E+03  0.00000000000E+00 0.  1.
         13    1    4    4    0    0  0.63085398914E+02  0.11657005305E+01 -0.25486004278E+03  0.26255431403E+03  0.00000000000E+00 0. -1.
        -13    1    3    3    0    0  0.25832942777E+02 -0.19658909512E+02 -0.48884514920E+02  0.58681423421E+02  0.00000000000E+00 0.  1.
         13    1    3    3    0    0 -0.65510158226E+02  0.11795648772E+02 -0.66775772058E+02  0.94285321735E+02  0.00000000000E+00 0. -1.
         21    1    1    2  502  501 -0.65057089613E+02  0.84054290639E+02 -0.62415439078E+02  0.12326084422E+03  0.00000000000E+00 0. -1.
<scales pt_clust_5="13000.00000" pt_clust_6="13000.00000" pt_clust_7="13000.00000" pt_clust_8="13000.00000" pt_clust_9="121.49745"></scales>
<clustering>
<clus scale="   88.612">  5  6 -1 -1</clus>
<clus scale="   91.572">  7  8 -1 -1</clus>
<clus scale="  100.108">  1  7  2 -1</clus>
<clus scale="  121.497">  1  9  2 -1</clus>
<clus scale="  150.378">  2  5  1 -1</clus>
</clustering>
</event>
<event>
 9    1  0.1484717E-005  0.1037059E+03  0.7546771E-02  0.1276384E+00
          1   -1    0    0  502    0  0.00000000000E+00  0.00000000000E+00  0.39358535443E+02  0.39358535443E+02  0.00000000000E+00 0. -1.
         -1   -1    0    0    0  501 -0.00000000000E+00 -0.00000000000E+00 -0.43067843678E+03  0.43067843678E+03  0.00000000000E+00 0.  1.
         23    2    1    2    0    0 -0.35112660331E+01 -0.16906208585E+02 -0.23265349074E+03  0.25021710782E+03  0.90458860342E+02 0.  0.
         23    2    1    2    0    0  0.24154627004E+02  0.33426778288E+02 -0.70016637442E+02  0.12731116289E+03  0.98005138463E+02 0.  0.
        -13    1    4    4    0    0  0.97458122718E+01 -0.29734867715E+02 -0.50928363478E+02  0.59773250049E+02  0.00000000000E+00 0.  1.
         13    1    4    4    0    0  0.14408814732E+02  0.63161646004E+02 -0.19088273964E+02  0.67537912840E+02  0.00000000000E+00 0. -1.
        -13    1    3    3    0    0  0.35019109828E+02  0.84336623980E+01 -0.16119115989E+03  0.16516674829E+03  0.00000000000E+00 0.  1.
         13    1    3    3    0    0 -0.38530375861E+02 -0.25339870983E+02 -0.71462330853E+02  0.85050359532E+02  0.00000000000E+00 0. -1.
         21    1    1    2  502  501 -0.20643360971E+02 -0.16520569703E+02 -0.88649773155E+02  0.92508701515E+02  0.00000000000E+00 0. -1.
<scales pt_clust_5="13000.00000" pt_clust_6="13000.00000" pt_clust_7="13000.00000" pt_clust_8="13000.00000" pt_clust_9="26.44008"></scales>
<clustering>
<clus scale="   26.440">  2  9  1 -1</clus>
<clus scale="   90.459">  7  8 -1 -1</clus>
<clus scale="   96.606">  2  7  1 -1</clus>
<clus scale="   98.005">  5  6 -1 -1</clus>
<clus scale="  103.706">  1  5  2 -1</clus>
</clustering>
</event>
<event>
 9    1  0.1484717E-005  0.8835621E+02  0.7546771E-02  0.1307624E+00
         -1   -1    0    0    0  501 -0.00000000000E+00  0.00000000000E+00  0.93441404723E+02  0.93441404723E+02  0.00000000000E+00 0.  1.
          1   -1    0    0  502    0  0.00000000000E+00 -0.00000000000E+00 -0.18374906316E+03  0.18374906316E+03  0.00000000000E+00 0. -1.
         23    2    1    2    0    0 -0.16352807800E+01 -0.48147608548E+02  0.20961307215E+02  0.98728862407E+02  0.83589147141E+02 0.  0.
         23    2    1    2    0    0  0.25827665240E+01  0.24143694548E+02 -0.12435609344E+03  0.15110546302E+03  0.82333676644E+02 0.  0.
        -11    1    3    3    0    0  0.30981077602E+02 -0.53894551407E+02  0.62121488033E+01  0.62474319792E+02  0.00000000000E+00 0.  1.
         11    1    3    3    0    0 -0.32616358382E+02  0.57469428590E+01  0.14749158411E+02  0.36254542614E+02  0.00000000000E+00 0. -1.
        -13    1    4    4    0    0  0.12836106981E+02 -0.24643259526E+02 -0.16576822121E+02  0.32355013740E+02  0.00000000000E+00 0.  1.
         13    1    4    4    0    0 -0.10253340457E+02  0.48786954074E+02 -0.10777927132E+03  0.11875044928E+03  0.00000000000E+00 0. -1.
         21    1    1    2  502  501 -0.94748574395E+00  0.24003914000E+02  0.13087127785E+02  0.27356142458E+02  0.00000000000E+00 0. -1.
<scales pt_clust_5="13000.00000" pt_clust_6="13000.00000" pt_clust_7="13000.00000" pt_clust_8="13000.00000" pt_clust_9="24.02261"></scales>
<clustering>
<clus scale="   24.023">  1  9  2 -1</clus>
<clus scale="   82.334">  7  8 -1 -1</clus>
<clus scale="   83.589">  5  6 -1 -1</clus>
<clus scale="   87.169">  2  7  1 -1</clus>
<clus scale="   87.169">  2  5  1 -1</clus>
</clustering>
</event>
<event>
 9    1  0.1484717E-005  0.2457594E+03  0.7546771E-02  0.1116022E+00
         -1   -1    0    0    0  501 -0.00000000000E+00  0.00000000000E+00  0.56848644099E+02  0.56848644099E+02  0.00000000000E+00 0.  1.
          1   -1    0    0  502    0  0.00000000000E+00 -0.00000000000E+00 -0.16213647536E+04  0.16213647536E+04  0.00000000000E+00 0. -1.
         23    2    1    2    0    0  0.16302395582E+03  0.13326962011E+03 -0.62814368578E+03  0.66888632970E+03  0.92232479445E+02 0.  0.
         23    2    1    2    0    0 -0.18927381084E+03 -0.15183739752E+03 -0.94163275936E+03  0.97674657730E+03  0.92100228069E+02 0.  0.
        -11    1    3    3    0    0  0.14259749669E+03  0.63574022215E+02 -0.39680923752E+03  0.42641912872E+03  0.00000000000E+00 0. -1.
         11    1    3    3    0    0  0.20426459134E+02  0.69695597897E+02 -0.23133444826E+03  0.24246720098E+03  0.00000000000E+00 0.  1.
        -13    1    4    4    0    0 -0.14057984199E+03 -0.74627858624E+02 -0.71335040868E+03  0.73089042601E+03  0.00000000000E+00 0.  1.
         13    1    4    4    0    0 -0.48693968843E+02 -0.77209538896E+02 -0.22828235068E+03  0.24585615129E+03  0.00000000000E+00 0. -1.
         21    1    1    2  502  501  0.26249855017E+02  0.18567777407E+02  0.52603355943E+01  0.32580490739E+02  0.00000000000E+00 0.  1.
<scales pt_clust_5="13000.00000" pt_clust_6="13000.00000" pt_clust_7="13000.00000" pt_clust_8="13000.00000" pt_clust_9="32.15303"></scales>
<clustering>
<clus scale="   32.153">  1  9  2 -1</clus>
<clus scale="   92.100">  7  8 -1 -1</clus>
<clus scale="   92.232">  5  6 -1 -1</clus>
<clus scale="  245.710">  2  7  1 -1</clus>
<clus scale="  245.710">  2  5  1 -1</clus>
</clustering>
</event>
<event>
 9    1  0.2224329E-005  0.1208350E+03  0.7546771E-02  0.1251244E+00
         -2   -1    0    0    0  501 -0.00000000000E+00  0.00000000000E+00  0.10932612909E+03  0.10932612909E+03  0.00000000000E+00 0.  1.
          2   -1    0    0  502    0  0.00000000000E+00 -0.00000000000E+00 -0.42769265288E+03  0.42769265288E+03  0.00000000000E+00 0. -1.
         23    2    1    2    0    0 -0.35144712148E+02 -0.83852779580E+01  0.29695666037E+01  0.93398607832E+02  0.86075652427E+02 0.  0.
         23    2    1    2    0    0  0.44015426672E+02  0.31139205243E+02 -0.36971977260E+03  0.38942228224E+03  0.10977247270E+03 0.  0.
        -11    1    3    3    0    0  0.25093888595E+02  0.78693298655E+01 -0.12496979931E+02  0.29117075828E+02  0.00000000000E+00 0. -1.
         11    1    3    3    0    0 -0.60238600744E+02 -0.16254607823E+02  0.15466546535E+02  0.64281532004E+02  0.00000000000E+00 0.  1.
        -11    1    4    4    0    0 -0.16247859117E+02 -0.24342754976E+02 -0.39301508606E+02  0.49001747157E+02  0.00000000000E+00 0.  1.
         11    1    4    4    0    0  0.60263285789E+02  0.55481960220E+02 -0.33041826399E+03  0.34042053508E+03  0.00000000000E+00 0. -1.
         21    1    1    2  502  501 -0.88707145237E+01 -0.22753927285E+02  0.48383682207E+02  0.54197891905E+02  0.00000000000E+00 0.  1.
<scales pt_clust_5="13000.00000" pt_clust_6="13000.00000" pt_clust_7="13000.00000" pt_clust_8="13000.00000" pt_clust_9="24.42193"></scales>
<clustering>
<clus scale="   24.422">  1  9  2 -1</clus>
<clus scale="   86.076">  5  6 -1 -1</clus>
<clus scale="   99.800">  1  5  2 -1</clus>
<clus scale="  109.772">  7  8 -1 -1</clus>
<clus scale="  120.835">  2  5  1 -1</clus>
</clustering>
</event>
<event>
 9    1  0.1484717E-005  0.1110526E+03  0.7546771E-02  0.1258700E+00
          1   -1    0    0  502    0  0.00000000000E+00  0.00000000000E+00  0.15503203899E+03  0.15503203899E+03  0.00000000000E+00 0. -1.
         -1   -1    0    0    0  501 -0.00000000000E+00 -0.00000000000E+00 -0.28553439175E+03  0.28553439175E+03  0.00000000000E+00 0.  1.
         23    2    1    2    0    0  0.52245593164E+02  0.17340699645E+02 -0.46113090011E+02  0.11591122518E+03  0.90987324293E+02 0.  0.
         23    2    1    2    0    0 -0.67101131488E+02  0.87421740289E+01  0.91751729515E+02  0.14597489755E+03  0.91166350104E+02 0.  0.
        -13    1    4    4    0    0 -0.44305416374E+02 -0.33614352250E+02  0.78277460658E+02  0.96022161215E+02  0.00000000000E+00 0. -1.
         13    1    4    4    0    0 -0.22795715114E+02  0.42356526279E+02  0.13474268857E+02  0.49952736333E+02  0.00000000000E+00 0.  1.
        -13    1    3    3    0    0  0.25612836480E+02 -0.35854623883E+02 -0.32849864207E+02  0.54960758954E+02  0.00000000000E+00 0. -1.
         13    1    3    3    0    0  0.26632756684E+02  0.53195323528E+02 -0.13263225803E+02  0.60950466221E+02  0.00000000000E+00 0.  1.
         21    1    1    2  502  501  0.14855538324E+02 -0.26082873674E+02 -0.17614099226E+03  0.17868030802E+03  0.00000000000E+00 0.  1.
<scales pt_clust_5="13000.00000" pt_clust_6="13000.00000" pt_clust_7="13000.00000" pt_clust_8="13000.00000" pt_clust_9="30.01672"></scales>
<clustering>
<clus scale="   30.017">  2  9  1 -1</clus>
<clus scale="   90.987">  7  8 -1 -1</clus>
<clus scale="   91.166">  5  6 -1 -1</clus>
<clus scale="  110.906">  2  7  1 -1</clus>
<clus scale="  111.053">  1  5  2 -1</clus>
</clustering>
</event>
<event>
 9    1  0.1484717E-005  0.1257785E+03  0.7546771E-02  0.1234052E+00
          1   -1    0    0  502    0  0.00000000000E+00  0.00000000000E+00  0.32377433115E+03  0.32377433115E+03  0.00000000000E+00 0. -1.
         -1   -1    0    0    0  501 -0.00000000000E+00 -0.00000000000E+00 -0.15956360907E+03  0.15956360907E+03  0.00000000000E+00 0.  1.
         23    2    1    2    0    0  0.91481497004E+02  0.56026220252E+02 -0.74538974439E+02  0.15918314453E+03  0.90969297798E+02 0.  0.
         23    2    1    2    0    0 -0.64839983750E+02 -0.52938588984E+02  0.26119045287E+03  0.28918493379E+03  0.91655635763E+02 0.  0.
        -11    1    4    4    0    0 -0.12069676932E+02 -0.39903915520E+02  0.21139946245E+03  0.21547095465E+03  0.00000000000E+00 0. -1.
         11    1    4    4    0    0 -0.52770306818E+02 -0.13034673464E+02  0.49790990423E+02  0.73713979144E+02  0.00000000000E+00 0.  1.
        -13    1    3    3    0    0  0.63687262710E+02  0.66863552043E+02 -0.86984754704E+02  0.12685877807E+03  0.00000000000E+00 0.  1.
         13    1    3    3    0    0  0.27794234294E+02 -0.10837331791E+02  0.12445780265E+02  0.32324366455E+02  0.00000000000E+00 0. -1.
         21    1    1    2  502  501 -0.26641513254E+02 -0.30876312682E+01 -0.22440756350E+02  0.34969861893E+02  0.00000000000E+00 0. -1.
<scales pt_clust_5="13000.00000" pt_clust_6="13000.00000" pt_clust_7="13000.00000" pt_clust_8="13000.00000" pt_clust_9="26.81984"></scales>
<clustering>
<clus scale="   26.820">  2  9  1 -1</clus>
<clus scale="   90.969">  7  8 -1 -1</clus>
<clus scale="   91.656">  5  6 -1 -1</clus>
<clus scale="  125.279">  2  7  1 -1</clus>
<clus scale="  125.778">  1  5  2 -1</clus>
</clustering>
</event>
<event>
 9    1  0.1484717E-005  0.1998307E+03  0.7546771E-02  0.1149898E+00
          2   -1    0    0  502    0  0.00000000000E+00  0.00000000000E+00  0.46358623866E+03  0.46358623866E+03  0.00000000000E+00 0. -1.
         -2   -1    0    0    0  501 -0.00000000000E+00 -0.00000000000E+00 -0.13609686748E+03  0.13609686748E+03  0.00000000000E+00 0.  1.
         23    2    1    2    0    0 -0.17732030956E+03 -0.10356110937E+03  0.10530928371E+03  0.24796856885E+03  0.90724695348E+02 0.  0.
         23    2    1    2    0    0  0.14503021570E+03  0.80035450955E+02  0.24215375216E+03  0.30704850940E+03  0.90558879008E+02 0.  0.
        -11    1    3    3    0    0 -0.35172147298E+02  0.16104295791E+02  0.18366550194E+02  0.42822405987E+02  0.00000000000E+00 0. -1.
         11    1    3    3    0    0 -0.14214816227E+03 -0.11966540516E+03  0.86942733512E+02  0.20514616286E+03  0.00000000000E+00 0.  1.
        -13    1    4    4    0    0  0.48501953872E+02 -0.68040335298E+01  0.27470783516E+02  0.56154949459E+02  0.00000000000E+00 0.  1.
         13    1    4    4    0    0  0.96528261827E+02  0.86839484484E+02  0.21468296864E+03  0.25089355994E+03  0.00000000000E+00 0. -1.
         21    1    1    2  502  501  0.32290093865E+02  0.23525658411E+02 -0.19973664685E+02  0.44666027879E+02  0.00000000000E+00 0.  1.
<scales pt_clust_5="13000.00000" pt_clust_6="13000.00000" pt_clust_7="13000.00000" pt_clust_8="13000.00000" pt_clust_9="39.95130"></scales>
<clustering>
<clus scale="   39.951">  2  9  1 -1</clus>
<clus scale="   90.559">  7  8 -1 -1</clus>
<clus scale="   90.725">  5  6 -1 -1</clus>
<clus scale="  199.755">  1  7  2 -1</clus>
<clus scale="  199.755">  1  5  2 -1</clus>
</clustering>
</event>
<event>
 9    1  0.1484717E-005  0.1132118E+03  0.7546771E-02  0.1255904E+00
          1   -1    0    0  502    0  0.00000000000E+00  0.00000000000E+00  0.27706843739E+03  0.27706843739E+03  0.00000000000E+00 0. -1.
         -1   -1    0    0    0  501 -0.00000000000E+00 -0.00000000000E+00 -0.10578267741E+03  0.10578267741E+03  0.00000000000E+00 0.  1.
         23    2    1    2    0    0 -0.76210312202E+01 -0.53872709126E+02  0.42476399186E+01  0.10600607944E+03  0.90878476700E+02 0.  0.
         23    2    1    2    0    0  0.38801227357E+02  0.61303062097E+02  0.20048774609E+03  0.23051694176E+03  0.87630607891E+02 0.  0.
        -11    1    3    3    0    0 -0.27233272258E+02 -0.30965626318E+02 -0.36665413156E+02  0.55180373803E+02  0.00000000000E+00 0.  1.
         11    1    3    3    0    0  0.19612241038E+02 -0.22907082808E+02  0.40913053074E+02  0.50825705634E+02  0.00000000000E+00 0. -1.
        -13    1    4    4    0    0 -0.20418805142E+02 -0.52416657145E+01  0.19147473307E+02  0.28478560303E+02  0.00000000000E+00 0.  1.
         13    1    4    4    0    0  0.59220032500E+02  0.66544727812E+02  0.18134027278E+03  0.20203838145E+03  0.00000000000E+00 0. -1.
         21    1    1    2  502  501 -0.31180196137E+02 -0.74303529714E+01 -0.33449626019E+02  0.46328093607E+02  0.00000000000E+00 0. -1.
<scales pt_clust_5="13000.00000" pt_clust_6="13000.00000" pt_clust_7="13000.00000" pt_clust_8="13000.00000" pt_clust_9="32.05331"></scales>
<clustering>
<clus scale="   32.053">  2  9  1 -1</clus>
<clus scale="   87.631">  7  8 -1 -1</clus>
<clus scale="   90.878">  5  6 -1 -1</clus>
<clus scale="  110.622">  1  7  2 -1</clus>
<clus scale="  110.622">  1  5  2 -1</clus>
</clustering>
</event>
<event>
 9    1  0.1484717E-005  0.1377102E+03  0.7546771E-02  0.1217192E+00
         -2   -1    0    0    0  501 -0.00000000000E+00  0.00000000000E+00  0.30212121333E+03  0.30212121333E+03  0.00000000000E+00 0.  1.
          2   -1    0    0  502    0  0.00000000000E+00 -0.00000000000E+00 -0.86155475252E+02  0.86155475252E+02  0.00000000000E+00 0. -1.
         23    2    1    2    0    0  0.70150930458E+02 -0.77240406539E+02  0.90564561202E+02  0.16550195395E+03  0.91113794620E+02 0.  0.
         23    2    1    2    0    0 -0.44164854677E+02  0.88490468100E+02  0.55739935845E+02  0.14757813549E+03  0.94293522017E+02 0.  0.
        -13    1    3    3    0    0 -0.98324934138E+01 -0.21815791515E+02  0.58238841983E+02  0.62963238494E+02  0.00000000000E+00 0.  1.
         13    1    3    3    0    0  0.79983423872E+02 -0.55424615024E+02  0.32325719219E+02  0.10253871546E+03  0.00000000000E+00 0. -1.
        -13    1    4    4    0    0 -0.41913268116E+02  0.37036614531E+02  0.74153301161E+02  0.92882425319E+02  0.00000000000E+00 0.  1.
         13    1    4    4    0    0 -0.22515865607E+01  0.51453853569E+02 -0.18413365316E+02  0.54695710174E+02  0.00000000000E+00 0. -1.
         21    1    1    2  502  501 -0.25986075781E+02 -0.11250061561E+02  0.69661241033E+02  0.75196599138E+02  0.00000000000E+00 0.  1.
<scales pt_clust_5="13000.00000" pt_clust_6="13000.00000" pt_clust_7="13000.00000" pt_clust_8="13000.00000" pt_clust_9="28.31678"></scales>
<clustering>
<clus scale="   28.317">  1  9  2 -1</clus>
<clus scale="   91.114">  5  6 -1 -1</clus>
<clus scale="   94.294">  7  8 -1 -1</clus>
<clus scale="  135.553">  1  5  2 -1</clus>
<clus scale="  137.710">  2  5  1 -1</clus>
</clustering>
</event>
<event>
 9    1  0.1484717E-005  0.9724957E+02  0.7546771E-02  0.1286767E+00
          1   -1    0    0  502    0  0.00000000000E+00  0.00000000000E+00  0.36247339776E+03  0.36247339776E+03  0.00000000000E+00 0. -1.
         -1   -1    0    0    0  501 -0.00000000000E+00 -0.00000000000E+00 -0.39193132352E+02  0.39193132352E+02  0.00000000000E+00 0.  1.
         23    2    1    2    0    0  0.26093330258E+02 -0.20582112743E+02  0.12672332697E+03  0.15939413779E+03  0.90792093890E+02 0.  0.
         23    2    1    2    0    0 -0.72825639454E+01  0.33212318093E+02  0.19653821339E+03  0.21961478064E+03  0.91909133087E+02 0.  0.
        -11    1    3    3    0    0 -0.21900857598E+02  0.58250156539E+01  0.14983381045E+01  0.22711745595E+02  0.00000000000E+00 0.  1.
         11    1    3    3    0    0  0.47994187856E+02 -0.26407128397E+02  0.12522498887E+03  0.13668239219E+03  0.00000000000E+00 0. -1.
        -13    1    4    4    0    0  0.47230677417E+01  0.62023370923E+02  0.96413280553E+02  0.11473764237E+03  0.00000000000E+00 0. -1.
         13    1    4    4    0    0 -0.12005631687E+02 -0.28811052830E+02  0.10012493284E+03  0.10487713827E+03  0.00000000000E+00 0.  1.
         21    1    1    2  502  501 -0.18810766313E+02 -0.12630205349E+02  0.18725046615E-01  0.22657611681E+02  0.00000000000E+00 0. -1.
<scales pt_clust_5="13000.00000" pt_clust_6="13000.00000" pt_clust_7="13000.00000" pt_clust_8="13000.00000" pt_clust_9="22.65760"></scales>
<clustering>
<clus scale="   22.658">  2  9  1 -1</clus>
<clus scale="   90.792">  5  6 -1 -1</clus>
<clus scale="   91.909">  7  8 -1 -1</clus>
<clus scale="   96.195">  2  5  1 -1</clus>
<clus scale="   97.250">  1  5  2 -1</clus>
</clustering>
</event>
<event>
 9    1  0.1484717E-005  0.1077439E+03  0.7546771E-02  0.1265014E+00
          2   -1    0    0  502    0  0.00000000000E+00  0.00000000000E+00  0.49232051951E+03  0.49232051951E+03  0.00000000000E+00 0. -1.
         -2   -1    0    0    0  501 -0.00000000000E+00 -0.00000000000E+00 -0.42055455293E+02  0.42055455293E+02  0.00000000000E+00 0.  1.
         23    2    1    2    0    0 -0.66364760680E+02 -0.47161780587E+02  0.24412419800E+03  0.27308671915E+03  0.91384993944E+02 0.  0.
         23    2    1    2    0    0  0.17746895886E+02  0.34097440434E+02  0.17825445388E+03  0.20373905363E+03  0.90870038442E+02 0.  0.
        -11    1    3    3    0    0 -0.60808035444E+02 -0.31653081854E+01  0.20532513339E+03  0.21416359810E+03  0.00000000000E+00 0. -1.
         11    1    3    3    0    0 -0.55567252363E+01 -0.43996472402E+02  0.38799064606E+02  0.58923121043E+02  0.00000000000E+00 0.  1.
        -11    1    4    4    0    0  0.44726684442E+02 -0.85968232506E+01  0.10803870791E+03  0.11724650988E+03  0.00000000000E+00 0.  1.
         11    1    4    4    0    0 -0.26979788557E+02  0.42694263685E+02  0.70215745971E+02  0.86492543750E+02  0.00000000000E+00 0. -1.
         21    1    1    2  502  501  0.48617864794E+02  0.13064340153E+02  0.27886412344E+02  0.57550202035E+02  0.00000000000E+00 0. -1.
<scales pt_clust_5="13000.00000" pt_clust_6="13000.00000" pt_clust_7="13000.00000" pt_clust_8="13000.00000" pt_clust_9="50.34256"></scales>
<clustering>
<clus scale="   50.343">  2  9  1 -1</clus>
<clus scale="   90.870">  7  8 -1 -1</clus>
<clus scale="   91.385">  5  6 -1 -1</clus>
<clus scale="  107.307">  1  7  2 -1</clus>
<clus scale="  107.307">  1  5  2 -1</clus>
</clustering>
</event>
<event>
 9    1  0.1484717E-005  0.1862280E+03  0.7546771E-02  0.1162253E+00
          1   -1    0    0  502    0  0.00000000000E+00  0.00000000000E+00  0.34810474275E+03  0.34810474275E+03  0.00000000000E+00 0. -1.
         -1   -1    0    0    0  501 -0.00000000000E+00 -0.00000000000E+00 -0.18990034087E+03  0.18990034087E+03  0.00000000000E+00 0.  1.
         23    2    1    2    0    0  0.76363785865E+02  0.78388042446E+02 -0.41398421947E+02  0.14957690371E+03  0.93184267957E+02 0.  0.
         23    2    1    2    0    0 -0.95701809019E+02 -0.15670739819E+03  0.22476844402E+03  0.30392262350E+03  0.90177950480E+02 0.  0.
        -11    1    3    3    0    0  0.59421267535E+02  0.45346874153E+02 -0.70231126124E+02  0.10256528217E+03  0.00000000000E+00 0.  1.
         11    1    3    3    0    0  0.16942518330E+02  0.33041168293E+02  0.28832704177E+02  0.47011621539E+02  0.00000000000E+00 0. -1.
        -11    1    4    4    0    0  0.16472840467E+02 -0.18135446146E+02  0.41840255736E+02  0.48485625499E+02  0.00000000000E+00 0.  1.
         11    1    4    4    0    0 -0.11217464949E+03 -0.13857195204E+03  0.18292818828E+03  0.25543699800E+03  0.00000000000E+00 0. -1.
         21    1    1    2  502  501  0.19338023154E+02  0.78319355743E+02 -0.25165620197E+02  0.84505556406E+02  0.00000000000E+00 0.  1.
<scales pt_clust_5="13000.00000" pt_clust_6="13000.00000" pt_clust_7="13000.00000" pt_clust_8="13000.00000" pt_clust_9="80.67144"></scales>
<clustering>
<clus scale="   80.671">  2  9  1 -1</clus>
<clus scale="   90.178">  7  8 -1 -1</clus>
<clus scale="   93.184">  5  6 -1 -1</clus>
<clus scale="  184.742">  1  7  2 -1</clus>
<clus scale="  184.742">  1  5  2 -1</clus>
</clustering>
</event>
<event>
 9    1  0.1484717E-005  0.1243613E+03  0.7546771E-02  0.1237765E+00
         -1   -1    0    0    0  501 -0.00000000000E+00  0.00000000000E+00  0.14234802358E+03  0.14234802358E+03  0.00000000000E+00 0.  1.
          1   -1    0    0  502    0  0.00000000000E+00 -0.00000000000E+00 -0.16749923156E+03  0.16749923156E+03  0.00000000000E+00 0. -1.
         23    2    1    2    0    0  0.73421692893E+02  0.64660753650E+02 -0.29420807406E+02  0.13631328661E+03  0.90243947980E+02 0.  0.
         23    2    1    2    0    0 -0.70012281023E+02 -0.33361880286E+02 -0.38111892938E+02  0.12073780903E+03  0.84322995651E+02 0.  0.
        -11    1    3    3    0    0  0.41612613505E+02  0.32886450738E+02 -0.61402811872E+02  0.81138360537E+02  0.00000000000E+00 0. -1.
         11    1    3    3    0    0  0.31809079388E+02  0.31774302912E+02  0.31982004466E+02  0.55174926069E+02  0.00000000000E+00 0.  1.
        -11    1    4    4    0    0 -0.37162241838E+02  0.26935566127E+02 -0.15653007681E+02  0.48493026204E+02  0.00000000000E+00 0. -1.
         11    1    4    4    0    0 -0.32850039186E+02 -0.60297446413E+02 -0.22458885257E+02  0.72244782825E+02  0.00000000000E+00 0.  1.
         21    1    1    2  502  501 -0.34094118697E+01 -0.31298873365E+02  0.42381492363E+02  0.52796159501E+02  0.00000000000E+00 0. -1.
<scales pt_clust_5="13000.00000" pt_clust_6="13000.00000" pt_clust_7="13000.00000" pt_clust_8="13000.00000" pt_clust_9="31.48402"></scales>
<clustering>
<clus scale="   31.484">  1  9  2 -1</clus>
<clus scale="   84.323">  7  8 -1 -1</clus>
<clus scale="   90.244">  5  6 -1 -1</clus>
<clus scale="  120.134">  2  7  1 -1</clus>
<clus scale="  120.134">  2  5  1 -1</clus>
</clustering>
</event>
<event>
 9    1  0.1484717E-005  0.9556932E+02  0.7546771E-02  0.1290811E+00
         -2   -1    0    0    0  501 -0.00000000000E+00  0.00000000000E+00  0.20728740511E+02  0.20728740511E+02  0.00000000000E+00 0.  1.
          2   -1    0    0  502    0  0.00000000000E+00 -0.00000000000E+00 -0.73515433688E+03  0.73515433688E+03  0.00000000000E+00 0. -1.
         23    2    1    2    0    0  0.25340001968E+02  0.30935792018E+02 -0.21974543269E+03  0.24209562065E+03  0.93397512945E+02 0.  0.
         23    2    1    2    0    0 -0.13852497667E+02 -0.19321003081E+01 -0.44887815926E+03  0.45837084825E+03  0.91742073000E+02 0.  0.
        -11    1    4    4    0    0  0.15142342032E+02 -0.39915118847E+02 -0.16151150064E+03  0.16705828945E+03  0.00000000000E+00 0. -1.
         11    1    4    4    0    0 -0.28994839699E+02  0.37983018539E+02 -0.28736665862E+03  0.29131255880E+03  0.00000000000E+00 0.  1.
        -13    1    3    3    0    0  0.44319846462E+02 -0.18385387212E+02 -0.89799969858E+02  0.10181505704E+03  0.00000000000E+00 0. -1.
         13    1    3    3    0    0 -0.18979844493E+02  0.49321179230E+02 -0.12994546283E+03  0.14028056361E+03  0.00000000000E+00 0.  1.
         21    1    1    2  502  501 -0.11487504302E+02 -0.29003691710E+02 -0.45802004422E+02  0.55416608493E+02  0.00000000000E+00 0. -1.
<scales pt_clust_5="13000.00000" pt_clust_6="13000.00000" pt_clust_7="13000.00000" pt_clust_8="13000.00000" pt_clust_9="31.19578"></scales>
<clustering>
<clus scale="   31.196">  1  9  2 -1</clus>
<clus scale="   91.742">  5  6 -1 -1</clus>
<clus scale="   93.398">  7  8 -1 -1</clus>
<clus scale="   93.952">  2  5  1 -1</clus>
<clus scale="   93.952">  2  5  1 -1</clus>
</clustering>
</event>
<event>
 9    1  0.1484717E-005  0.1550916E+03  0.7546771E-02  0.1194473E+00
          1   -1    0    0  502    0  0.00000000000E+00  0.00000000000E+00  0.66475489961E+02  0.66475489961E+02  0.00000000000E+00 0. -1.
         -1   -1    0    0    0  501 -0.00000000000E+00 -0.00000000000E+00 -0.68945096142E+03  0.68945096142E+03  0.00000000000E+00 0.  1.
         23    2    1    2    0    0 -0.59672203037E+02 -0.12578654351E+03 -0.34220382285E+03  0.38083544948E+03  0.92461650775E+02 0.  0.
         23    2    1    2    0    0  0.95915558934E+02  0.76499974835E+02 -0.96841587735E+02  0.18125340495E+03  0.91773978313E+02 0.  0.
        -13    1    3    3    0    0  0.16065052621E+02 -0.61132097940E+02 -0.17691402658E+03  0.18786642094E+03  0.00000000000E+00 0.  1.
         13    1    3    3    0    0 -0.75737255658E+02 -0.64654445572E+02 -0.16528979627E+03  0.19296902855E+03  0.00000000000E+00 0. -1.
        -13    1    4    4    0    0  0.59515094419E+02  0.72867783286E+02 -0.20053844681E+02  0.96197281621E+02  0.00000000000E+00 0. -1.
         13    1    4    4    0    0  0.36400464514E+02  0.36321915485E+01 -0.76787743054E+02  0.85056123328E+02  0.00000000000E+00 0.  1.
         21    1    1    2  502  501 -0.36243355896E+02  0.49286568677E+02 -0.18393006088E+03  0.19383759695E+03  0.00000000000E+00 0.  1.
<scales pt_clust_5="13000.00000" pt_clust_6="13000.00000" pt_clust_7="13000.00000" pt_clust_8="13000.00000" pt_clust_9="61.17799"></scales>
<clustering>
<clus scale="   61.178">  2  9  1 -1</clus>
<clus scale="   91.774">  7  8 -1 -1</clus>
<clus scale="   92.462">  5  6 -1 -1</clus>
<clus scale="  154.683">  1  7  2 -1</clus>
<clus scale="  154.683">  1  5  2 -1</clus>
</clustering>
</event>
<event>
 9    1  0.1484717E-005  0.1120853E+03  0.7546771E-02  0.1256905E+00
         -3   -1    0    0    0  501 -0.00000000000E+00  0.00000000000E+00  0.36135877558E+02  0.36135877558E+02  0.00000000000E+00 0.  1.
          3   -1    0    0  502    0  0.00000000000E+00 -0.00000000000E+00 -0.55994844958E+03  0.55994844958E+03  0.00000000000E+00 0. -1.
         23    2    1    2    0    0 -0.22302074758E+02 -0.44715435525E+02 -0.15291692036E+03  0.18472157780E+03  0.90783390884E+02 0.  0.
         23    2    1    2    0    0  0.38240684074E+02  0.63321313077E+02 -0.36849025137E+03  0.38674560293E+03  0.91187485017E+02 0.  0.
        -13    1    3    3    0    0 -0.28189710919E+02  0.10054894295E+02 -0.11246223452E+03  0.11637660802E+03  0.00000000000E+00 0. -1.
         13    1    3    3    0    0  0.58876361618E+01 -0.54770329820E+02 -0.40454685845E+02  0.68344969786E+02  0.00000000000E+00 0.  1.
        -13    1    4    4    0    0 -0.20989217063E+02 -0.55289650726E+01 -0.35659851147E+02  0.41746157566E+02  0.00000000000E+00 0.  1.
         13    1    4    4    0    0  0.59229901137E+02  0.68850278150E+02 -0.33283040022E+03  0.34499944536E+03  0.00000000000E+00 0. -1.
         21    1    1    2  502  501 -0.15938609316E+02 -0.18605877552E+02 -0.24054002883E+01  0.24617146402E+02  0.00000000000E+00 0. -1.
<scales pt_clust_5="13000.00000" pt_clust_6="13000.00000" pt_clust_7="13000.00000" pt_clust_8="13000.00000" pt_clust_9="24.49935"></scales>
<clustering>
<clus scale="   24.499">  1  9  2 -1</clus>
<clus scale="   90.783">  5  6 -1 -1</clus>
<clus scale="   91.187">  7  8 -1 -1</clus>
<clus scale="  111.757">  1  5  2 -1</clus>
<clus scale="  112.085">  2  5  1 -1</clus>
</clustering>
</event>
<event>
 9    1  0.1484717E-005  0.9408016E+02  0.7546771E-02  0.1294540E+00
         -1   -1    0    0    0  501 -0.00000000000E+00  0.00000000000E+00  0.15220313307E+03  0.15220313307E+03  0.00000000000E+00 0.  1.
          1   -1    0    0  502    0  0.00000000000E+00 -0.00000000000E+00 -0.90856865924E+02  0.90856865924E+02  0.00000000000E+00 0. -1.
         23    2    1    2    0    0 -0.10233958206E+02 -0.55422048262E+01  0.16718850036E+02  0.95885670536E+02  0.93696808551E+02 0.  0.
         23    2    1    2    0    0  0.19905761448E+01 -0.15700997757E+02 -0.45799117210E+01  0.92947137728E+02  0.91475193886E+02 0.  0.
        -11    1    4    4    0    0  0.32214911037E+02 -0.39763211756E+02 -0.14250211167E+02  0.53122330715E+02  0.00000000000E+00 0. -1.
         11    1    4    4    0    0 -0.30224334892E+02  0.24062213999E+02  0.96702994462E+01  0.39824807013E+02  0.00000000000E+00 0.  1.
        -11    1    3    3    0    0 -0.34452623968E+02 -0.23924716701E+02 -0.21430236923E+02  0.47102339879E+02  0.00000000000E+00 0. -1.
         11    1    3    3    0    0  0.24218665761E+02  0.18382511875E+02  0.38149086959E+02  0.48783330657E+02  0.00000000000E+00 0.  1.
         21    1    1    2  502  501  0.82433820615E+01  0.21243202584E+02  0.49207328833E+02  0.54227190732E+02  0.00000000000E+00 0.  1.
<scales pt_clust_5="13000.00000" pt_clust_6="13000.00000" pt_clust_7="13000.00000" pt_clust_8="13000.00000" pt_clust_9="22.78655"></scales>
<clustering>
<clus scale="   22.787">  1  9  2 -1</clus>
<clus scale="   91.475">  5  6 -1 -1</clus>
<clus scale="   91.868">  2  5  1 -1</clus>
<clus scale="   93.697">  7  8 -1 -1</clus>
<clus scale="   91.868">  2  5  1 -1</clus>
</clustering>
</event>
<event>
 9    1  0.1484717E-005  0.1037525E+03  0.7546771E-02  0.1273247E+00
          2   -1    0    0  502    0  0.00000000000E+00  0.00000000000E+00  0.55483141040E+03  0.55483141040E+03  0.00000000000E+00 0. -1.
         -2   -1    0    0    0  501 -0.00000000000E+00 -0.00000000000E+00 -0.10963005088E+03  0.10963005088E+03  0.00000000000E+00 0.  1.
         23    2    1    2    0    0 -0.48458308752E+01  0.69913071456E+02 -0.59139974016E+02  0.12888000948E+03  0.90560480791E+02 0.  0.
         23    2    1    2    0    0 -0.53643889938E+01 -0.46441324842E+02  0.49883372101E+03  0.50939929614E+03  0.92016239683E+02 0.  0.
        -11    1    4    4    0    0  0.55006355114E+01  0.24565987395E+02  0.65863844779E+02  0.70510926648E+02  0.00000000000E+00 0.  1.
         11    1    4    4    0    0 -0.10865024505E+02 -0.71007312237E+02  0.43296987623E+03  0.43888836949E+03  0.00000000000E+00 0. -1.
        -11    1    3    3    0    0  0.49896054469E+01  0.90222400072E+02 -0.38226215829E+02  0.98113308037E+02  0.00000000000E+00 0.  1.
         11    1    3    3    0    0 -0.98354363221E+01 -0.20309328617E+02 -0.20913758187E+02  0.30766701448E+02  0.00000000000E+00 0. -1.
         21    1    1    2  502  501  0.10210219869E+02 -0.23471746614E+02  0.55076125160E+01  0.26182155651E+02  0.00000000000E+00 0.  1.
<scales pt_clust_5="13000.00000" pt_clust_6="13000.00000" pt_clust_7="13000.00000" pt_clust_8="13000.00000" pt_clust_9="25.59632"></scales>
<clustering>
<clus scale="   25.596">  2  9  1 -1</clus>
<clus scale="   90.560">  7  8 -1 -1</clus>
<clus scale="   92.016">  5  6 -1 -1</clus>
<clus scale="  102.464">  2  7  1 -1</clus>
<clus scale="  103.752">  1  5  2 -1</clus>
</clustering>
</event>
<event>
 9    1  0.1484717E-005  0.9945616E+02  0.7546771E-02  0.1281447E+00
         -1   -1    0    0    0  501 -0.00000000000E+00  0.00000000000E+00  0.61782027669E+02  0.61782027669E+02  0.00000000000E+00 0.  1.
          1   -1    0    0  502    0  0.00000000000E+00 -0.00000000000E+00 -0.22079369503E+03  0.22079369503E+03  0.00000000000E+00 0. -1.
         23    2    1    2    0    0 -0.52671065277E+02  0.20944798102E+02 -0.65934706056E+02  0.12545534398E+03  0.90436343273E+02 0.  0.
         23    2    1    2    0    0  0.30720326903E+02  0.87468964196E+00 -0.73081379186E+02  0.12027274291E+03  0.90444132685E+02 0.  0.
        -13    1    3    3    0    0 -0.55983360411E+02 -0.26598952220E+01 -0.80075114309E+02  0.97740654884E+02  0.00000000000E+00 0.  1.
         13    1    3    3    0    0  0.33122951334E+01  0.23604693324E+02  0.14140408253E+02  0.27714689093E+02  0.00000000000E+00 0. -1.
        -13    1    4    4    0    0 -0.25951573269E+02  0.22507667274E+02 -0.32498191523E+02  0.47288600037E+02  0.00000000000E+00 0. -1.
         13    1    4    4    0    0  0.56671900173E+02 -0.21632977632E+02 -0.40583187664E+02  0.72984142876E+02  0.00000000000E+00 0.  1.
         21    1    1    2  502  501  0.21950738374E+02 -0.21819487744E+02 -0.19995582122E+02  0.36847635812E+02  0.00000000000E+00 0. -1.
<scales pt_clust_5="13000.00000" pt_clust_6="13000.00000" pt_clust_7="13000.00000" pt_clust_8="13000.00000" pt_clust_9="30.95036"></scales>
<clustering>
<clus scale="   30.950">  1  9  2 -1</clus>
<clus scale="   90.436">  5  6 -1 -1</clus>
<clus scale="   90.444">  7  8 -1 -1</clus>
<clus scale="   99.449">  1  5  2 -1</clus>
<clus scale="   99.456">  2  5  1 -1</clus>
</clustering>
</event>
<event>
 9    1  0.1484717E-005  0.1054974E+03  0.7546771E-02  0.1270370E+00
          2   -1    0    0  502    0  0.00000000000E+00  0.00000000000E+00  0.11084049745E+03  0.11084049745E+03  0.00000000000E+00 0. -1.
         -2   -1    0    0    0  501 -0.00000000000E+00 -0.00000000000E+00 -0.46470051282E+03  0.46470051282E+03  0.00000000000E+00 0.  1.
         23    2    1    2    0    0 -0.33218096525E+02 -0.50829746796E+01 -0.27790278072E+03  0.29379461458E+03  0.89196644876E+02 0.  0.
         23    2    1    2    0    0  0.51443732516E+02  0.13973716113E+02  0.74542543348E+02  0.12988658446E+03  0.92044617967E+02 0.  0.
        -11    1    3    3    0    0 -0.49003007675E+02 -0.24336780778E+02 -0.25198167331E+03  0.25785332525E+03  0.00000000000E+00 0.  1.
         11    1    3    3    0    0  0.15784911150E+02  0.19253806098E+02 -0.25921107410E+02  0.35941289329E+02  0.00000000000E+00 0. -1.
        -13    1    4    4    0    0  0.14000653084E+02 -0.35649272855E+02  0.85839000826E+01  0.39250124617E+02  0.00000000000E+00 0.  1.
         13    1    4    4    0    0  0.37443079432E+02  0.49622988968E+02  0.65958643265E+02  0.90636459843E+02  0.00000000000E+00 0. -1.
         21    1    1    2  502  501 -0.18225635991E+02 -0.88907414334E+01 -0.15049977799E+03  0.15185981123E+03  0.00000000000E+00 0.  1.
<scales pt_clust_5="13000.00000" pt_clust_6="13000.00000" pt_clust_7="13000.00000" pt_clust_8="13000.00000" pt_clust_9="20.27854"></scales>
<clustering>
<clus scale="   20.279">  2  9  1 -1</clus>
<clus scale="   89.197">  5  6 -1 -1</clus>
<clus scale="   92.045">  7  8 -1 -1</clus>
<clus scale="  103.022">  2  5  1 -1</clus>
<clus scale="  105.497">  1  5  2 -1</clus>
</clustering>
</event>
<event>
 9    1  0.1484717E-005  0.9724518E+02  0.7546771E-02  0.1286795E+00
         -2   -1    0    0    0  501 -0.00000000000E+00  0.00000000000E+00  0.54645682321E+02  0.54645682321E+02  0.00000000000E+00 0.  1.
          2   -1    0    0  502    0  0.00000000000E+00 -0.00000000000E+00 -0.31448003230E+03  0.31448003230E+03  0.00000000000E+00 0. -1.
         23    2    1    2    0    0  0.18441139494E+02  0.41404228600E+01 -0.96924000318E+02  0.13394327156E+03  0.90494858583E+02 0.  0.
         23    2    1    2    0    0 -0.39918743425E+02 -0.13961747389E+02 -0.17976829323E+03  0.20616630708E+03  0.91648624959E+02 0.  0.
        -11    1    4    4    0    0 -0.24605434042E+02  0.35322836553E+02 -0.47075241162E+02  0.63790347993E+02  0.00000000000E+00 0.  1.
         11    1    4    4    0    0 -0.15313309383E+02 -0.49284583942E+02 -0.13269305207E+03  0.14237595909E+03  0.00000000000E+00 0. -1.
        -11    1    3    3    0    0  0.41941322642E+02 -0.19923947088E+02 -0.21117460023E+02  0.51009659187E+02  0.00000000000E+00 0. -1.
         11    1    3    3    0    0 -0.23500183148E+02  0.24064369948E+02 -0.75806540295E+02  0.82933612368E+02  0.00000000000E+00 0.  1.
         21    1    1    2  502  501  0.21477603931E+02  0.98213245288E+01  0.16857943571E+02  0.29016135986E+02  0.00000000000E+00 0.  1.
<scales pt_clust_5="13000.00000" pt_clust_6="13000.00000" pt_clust_7="13000.00000" pt_clust_8="13000.00000" pt_clust_9="23.61664"></scales>
<clustering>
<clus scale="   23.617">  1  9  2 -1</clus>
<clus scale="   90.495">  7  8 -1 -1</clus>
<clus scale="   91.649">  5  6 -1 -1</clus>
<clus scale="   96.159">  1  7  2 -1</clus>
<clus scale="   97.245">  2  5  1 -1</clus>
</clustering>
</event>
<event>
 9    1  0.1484717E-005  0.1339354E+03  0.7546771E-02  0.1221898E+00
          1   -1    0    0  502    0  0.00000000000E+00  0.00000000000E+00  0.68767153466E+03  0.68767153466E+03  0.00000000000E+00 0. -1.
         -1   -1    0    0    0  501 -0.00000000000E+00 -0.00000000000E+00 -0.40923818207E+03  0.40923818207E+03  0.00000000000E+00 0.  1.
         23    2    1    2    0    0  0.94617282652E+02 -0.10368648403E+03 -0.21205926826E+03  0.26995244430E+03  0.90564185959E+02 0.  0.
         23    2    1    2    0    0  0.17871949185E+01  0.97870194699E+02  0.63731700256E+03  0.65121583856E+03  0.91254246855E+02 0.  0.
        -13    1    3    3    0    0  0.62053610943E+02 -0.52112407826E+02 -0.18738685714E+03  0.20415726269E+03  0.00000000000E+00 0.  1.
         13    1    3    3    0    0  0.32563671709E+02 -0.51574076205E+02 -0.24672411117E+02  0.65795181601E+02  0.00000000000E+00 0. -1.
        -13    1    4    4    0    0  0.40086254095E+02  0.83045905964E+02  0.41289143739E+03  0.42306367054E+03  0.00000000000E+00 0. -1.
         13    1    4    4    0    0 -0.38299059176E+02  0.14824288735E+02  0.22442556517E+03  0.22815216802E+03  0.00000000000E+00 0.  1.
         21    1    1    2  502  501 -0.96404477571E+02  0.58162893323E+01 -0.14682438170E+03  0.17574143387E+03  0.00000000000E+00 0.  1.
<scales pt_clust_5="13000.00000" pt_clust_6="13000.00000" pt_clust_7="13000.00000" pt_clust_8="13000.00000" pt_clust_9="96.57977"></scales>
<clustering>
<clus scale="   90.564">  5  6 -1 -1</clus>
<clus scale="   91.254">  7  8 -1 -1</clus>
<clus scale="   96.580">  2  9  1 -1</clus>
<clus scale="  133.466">  2  5  1 -1</clus>
<clus scale="  133.935">  1  5  2 -1</clus>
</clustering>
</event>
<event>
 9    1  0.1484717E-005  0.1153317E+03  0.7546771E-02  0.1251598E+00
         -3   -1    0    0    0  501 -0.00000000000E+00  0.00000000000E+00  0.15179385786E+03  0.15179385786E+03  0.00000000000E+00 0.  1.
          3   -1    0    0  502    0  0.00000000000E+00 -0.00000000000E+00 -0.19825160150E+03  0.19825160150E+03  0.00000000000E+00 0. -1.
         23    2    1    2    0    0 -0.49887798095E+02 -0.67283441367E+02  0.22748781733E+02  0.12513094114E+03  0.90135406354E+02 0.  0.
         23    2    1    2    0    0  0.67948644483E+01  0.67694128854E+02 -0.11492425898E+03  0.16208712960E+03  0.91847629343E+02 0.  0.
        -11    1    3    3    0    0  0.12344677963E+02 -0.22779146403E+02  0.39090208594E+02  0.46896961445E+02  0.00000000000E+00 0.  1.
         11    1    3    3    0    0 -0.62232476059E+02 -0.44504294964E+02 -0.16341426861E+02  0.78233979692E+02  0.00000000000E+00 0. -1.
        -13    1    4    4    0    0  0.16347374090E+02 -0.19231549796E+02 -0.15253942016E+02  0.29491895399E+02  0.00000000000E+00 0.  1.
         13    1    4    4    0    0 -0.95525096414E+01  0.86925678650E+02 -0.99670316968E+02  0.13259523420E+03  0.00000000000E+00 0. -1.
         21    1    1    2  502  501  0.43092933647E+02 -0.41068748672E+00  0.45717733605E+02  0.62827388617E+02  0.00000000000E+00 0.  1.
<scales pt_clust_5="13000.00000" pt_clust_6="13000.00000" pt_clust_7="13000.00000" pt_clust_8="13000.00000" pt_clust_9="43.09489"></scales>
<clustering>
<clus scale="   43.095">  1  9  2 -1</clus>
<clus scale="   90.135">  5  6 -1 -1</clus>
<clus scale="   91.848">  7  8 -1 -1</clus>
<clus scale="  113.973">  1  5  2 -1</clus>
<clus scale="  115.332">  2  5  1 -1</clus>
</clustering>
</event>
<event>
 9    1  0.1484717E-005  0.1143634E+03  0.7546771E-02  0.1252909E+00
         -1   -1    0    0    0  501 -0.00000000000E+00  0.00000000000E+00  0.12242463501E+03  0.12242463501E+03  0.00000000000E+00 0.  1.
          1   -1    0    0  502    0  0.00000000000E+00 -0.00000000000E+00 -0.34479105047E+03  0.34479105047E+03  0.00000000000E+00 0. -1.
         23    2    1    2    0    0 -0.38871816822E+02  0.78905522298E+02  0.62223297657E+02  0.14139777694E+03  0.91566876978E+02 0.  0.
         23    2    1    2    0    0  0.24593751127E+02 -0.61752307998E+02 -0.28160044320E+03  0.30330054512E+03  0.90962689715E+02 0.  0.
        -13    1    4    4    0    0 -0.61668934768E+01 -0.72638366531E+02 -0.13835468511E+03  0.15638536299E+03  0.00000000000E+00 0. -1.
         13    1    4    4    0    0  0.30760644603E+02  0.10886058533E+02 -0.14324575809E+03  0.14691518212E+03  0.00000000000E+00 0.  1.
        -13    1    3    3    0    0  0.29999569249E+02  0.30505047254E+02  0.21742424467E+02  0.47992344023E+02  0.00000000000E+00 0. -1.
         13    1    3    3    0    0 -0.68871386071E+02  0.48400475044E+02  0.40480873190E+02  0.93405432915E+02  0.00000000000E+00 0.  1.
         21    1    1    2  502  501  0.14278065695E+02 -0.17153214299E+02 -0.29892699215E+01  0.22517363422E+02  0.00000000000E+00 0. -1.
<scales pt_clust_5="13000.00000" pt_clust_6="13000.00000" pt_clust_7="13000.00000" pt_clust_8="13000.00000" pt_clust_9="22.31806"></scales>
<clustering>
<clus scale="   22.318">  1  9  2 -1</clus>
<clus scale="   90.963">  5  6 -1 -1</clus>
<clus scale="   91.567">  7  8 -1 -1</clus>
<clus scale="  113.880">  2  5  1 -1</clus>
<clus scale="  113.880">  2  5  1 -1</clus>
</clustering>
</event>
<event>
 9    1  0.1484717E-005  0.1064658E+03  0.7546771E-02  0.1273781E+00
          1   -1    0    0  502    0  0.00000000000E+00  0.00000000000E+00  0.36413307671E+03  0.36413307671E+03  0.00000000000E+00 0. -1.
         -1   -1    0    0    0  501 -0.00000000000E+00 -0.00000000000E+00 -0.11731679825E+03  0.11731679825E+03  0.00000000000E+00 0.  1.
         23    2    1    2    0    0  0.29220321374E+02  0.72874656465E+01 -0.63667891810E+02  0.10502595951E+03  0.77909674542E+02 0.  0.
         23    2    1    2    0    0 -0.49451369715E+02 -0.23291835086E+02  0.32802430813E+03  0.34522949937E+03  0.92711989321E+02 0.  0.
        -11    1    3    3    0    0  0.44729926701E+02 -0.11547545914E+02 -0.11760074534E+02  0.47669817624E+02  0.00000000000E+00 0.  1.
         11    1    3    3    0    0 -0.15509605327E+02  0.18835011561E+02 -0.51907817276E+02  0.57356141888E+02  0.00000000000E+00 0. -1.
        -13    1    4    4    0    0  0.14946351260E+02 -0.28084673076E+02  0.46152849452E+02  0.56055577691E+02  0.00000000000E+00 0.  1.
         13    1    4    4    0    0 -0.64397720975E+02  0.47928379891E+01  0.28187145868E+03  0.28917392168E+03  0.00000000000E+00 0. -1.
         21    1    1    2  502  501  0.20231048341E+02  0.16004369440E+02 -0.17540137858E+02  0.31194416075E+02  0.00000000000E+00 0.  1.
<scales pt_clust_5="13000.00000" pt_clust_6="13000.00000" pt_clust_7="13000.00000" pt_clust_8="13000.00000" pt_clust_9="25.79603"></scales>
<clustering>
<clus scale="   25.796">  2  9  1 -1</clus>
<clus scale="   77.910">  5  6 -1 -1</clus>
<clus scale="   92.712">  7  8 -1 -1</clus>
<clus scale="   93.858">  2  5  1 -1</clus>
<clus scale="  106.466">  1  5  2 -1</clus>
</clustering>
</event>
<event>
 9    1  0.1484717E-005  0.1036050E+03  0.7546771E-02  0.1273217E+00
          1   -1    0    0  502    0  0.00000000000E+00  0.00000000000E+00  0.30502667135E+03  0.30502667135E+03  0.00000000000E+00 0. -1.
         -1   -1    0    0    0  501 -0.00000000000E+00 -0.00000000000E+00 -0.44289988571E+02  0.44289988571E+02  0.00000000000E+00 0.  1.
         23    2    1    2    0    0 -0.58434505778E+02 -0.92116878129E+01  0.13097786144E+03  0.17054990151E+03  0.91829309373E+02 0.  0.
         23    2    1    2    0    0  0.37810454449E+02  0.37576863049E+01  0.11979275744E+03  0.15522063229E+03  0.91100983979E+02 0.  0.
        -11    1    3    3    0    0 -0.53284053763E+02  0.13171365703E+02  0.13633185013E+03  0.14696614787E+03  0.00000000000E+00 0. -1.
         11    1    3    3    0    0 -0.51504520153E+01 -0.22383053516E+02 -0.53539886941E+01  0.23583753637E+02  0.00000000000E+00 0.  1.
        -13    1    4    4    0    0  0.55931990588E+02  0.15678215385E+02  0.35265678235E+02  0.67954853176E+02  0.00000000000E+00 0.  1.
         13    1    4    4    0    0 -0.18121536139E+02 -0.11920529080E+02  0.84527079209E+02  0.87265779119E+02  0.00000000000E+00 0. -1.
         21    1    1    2  502  501  0.20624051329E+02  0.54540015079E+01  0.99660639008E+01  0.23546126122E+02  0.00000000000E+00 0.  1.
<scales pt_clust_5="13000.00000" pt_clust_6="13000.00000" pt_clust_7="13000.00000" pt_clust_8="13000.00000" pt_clust_9="21.33302"></scales>
<clustering>
<clus scale="   21.333">  2  9  1 -1</clus>
<clus scale="   91.101">  7  8 -1 -1</clus>
<clus scale="   91.829">  5  6 -1 -1</clus>
<clus scale="  102.960">  1  7  2 -1</clus>
<clus scale="  102.960">  1  5  2 -1</clus>
</clustering>
</event>
<event>
 9    1  0.1484717E-005  0.1100221E+03  0.7546771E-02  0.1262823E+00
          1   -1    0    0  502    0  0.00000000000E+00  0.00000000000E+00  0.24983937674E+03  0.24983937674E+03  0.00000000000E+00 0. -1.
         -1   -1    0    0    0  501 -0.00000000000E+00 -0.00000000000E+00 -0.15785557473E+03  0.15785557473E+03  0.00000000000E+00 0.  1.
         23    2    1    2    0    0  0.47522870060E+02 -0.10869052742E+02 -0.71277141221E+02  0.12562511053E+03  0.91239673661E+02 0.  0.
         23    2    1    2    0    0 -0.42298661833E+02  0.95700846282E+02  0.12191089334E+03  0.18755237073E+03  0.96777048312E+02 0.  0.
        -13    1    3    3    0    0  0.34410855809E+02 -0.29569911125E+02 -0.86846460367E+02  0.97983643123E+02  0.00000000000E+00 0.  1.
         13    1    3    3    0    0  0.13112014251E+02  0.18700858383E+02  0.15569319145E+02  0.27641467411E+02  0.00000000000E+00 0. -1.
        -13    1    4    4    0    0 -0.14835887112E+00  0.98569474718E+02  0.71456236436E+02  0.12174546021E+03  0.00000000000E+00 0. -1.
         13    1    4    4    0    0 -0.42150302962E+02 -0.28686284354E+01  0.50454656905E+02  0.65806910520E+02  0.00000000000E+00 0.  1.
         21    1    1    2  502  501 -0.52242082277E+01 -0.84831793540E+02  0.41350049895E+02  0.94517470201E+02  0.00000000000E+00 0.  1.
<scales pt_clust_5="13000.00000" pt_clust_6="13000.00000" pt_clust_7="13000.00000" pt_clust_8="13000.00000" pt_clust_9="84.99250"></scales>
<clustering>
<clus scale="   84.993">  1  9  2 -1</clus>
<clus scale="   91.240">  5  6 -1 -1</clus>
<clus scale="   96.777">  7  8 -1 -1</clus>
<clus scale="  105.184">  2  5  1 -1</clus>
<clus scale="   84.993">  1  5  2 -1</clus>
</clustering>
</event>
<event>
 9    1  0.1484717E-005  0.1009746E+03  0.7546771E-02  0.1279603E+00
         -2   -1    0    0    0  501 -0.00000000000E+00  0.00000000000E+00  0.11804275836E+03  0.11804275836E+03  0.00000000000E+00 0.  1.
          2   -1    0    0  502    0  0.00000000000E+00 -0.00000000000E+00 -0.11728730696E+03  0.11728730696E+03  0.00000000000E+00 0. -1.
         23    2    1    2    0    0 -0.32823389252E+02 -0.14056923600E+02  0.32603384892E+02  0.10097956017E+03  0.88650543614E+02 0.  0.
         23    2    1    2    0    0  0.53295201263E+02  0.21743551418E+02 -0.31123759364E+02  0.11247120528E+03  0.91476352760E+02 0.  0.
        -11    1    3    3    0    0 -0.31980271315E+01 -0.30489248139E+02  0.53150547077E+02  0.61357984681E+02  0.00000000000E+00 0.  1.
         11    1    3    3    0    0 -0.29625362120E+02  0.16432324539E+02 -0.20547162185E+02  0.39621575490E+02  0.00000000000E+00 0. -1.
        -11    1    4    4    0    0 -0.24342011703E+02  0.14108769084E+02  0.88244847985E+00  0.28149060626E+02  0.00000000000E+00 0.  1.
         11    1    4    4    0    0  0.77637212966E+02  0.76347823340E+01 -0.32006207844E+02  0.84322144653E+02  0.00000000000E+00 0. -1.
         21    1    1    2  502  501 -0.20471812011E+02 -0.76866278183E+01 -0.72417412996E+00  0.21879299861E+02  0.00000000000E+00 0. -1.
<scales pt_clust_5="13000.00000" pt_clust_6="13000.00000" pt_clust_7="13000.00000" pt_clust_8="13000.00000" pt_clust_9="21.86731"></scales>
<clustering>
<clus scale="   21.867">  2  9  1 -1</clus>
<clus scale="   88.651">  5  6 -1 -1</clus>
<clus scale="   91.476">  7  8 -1 -1</clus>
<clus scale="   98.422">  1  5  2 -1</clus>
<clus scale="   21.867">  2  5  1 -1</clus>
</clustering>
</event>
<event>
 9    1  0.1484717E-005  0.1013729E+03  0.7546771E-02  0.1277474E+00
          1   -1    0    0  502    0  0.00000000000E+00  0.00000000000E+00  0.24679257554E+03  0.24679257554E+03  0.00000000000E+00 0. -1.
         -1   -1    0    0    0  501 -0.00000000000E+00 -0.00000000000E+00 -0.10693484650E+03  0.10693484650E+03  0.00000000000E+00 0.  1.
         23    2    1    2    0    0  0.23443150108E+02  0.31221012648E+02  0.64896075118E+02  0.11889339764E+03  0.91650458366E+02 0.  0.
         23    2    1    2    0    0  0.27288412818E+02 -0.51775058634E+02  0.12141645844E+03  0.16304120341E+03  0.91734200058E+02 0.  0.
        -11    1    4    4    0    0 -0.19585877133E+02 -0.50822335741E+02  0.94248427103E+02  0.10885440921E+03  0.00000000000E+00 0.  1.
         11    1    4    4    0    0  0.46874289951E+02 -0.95272289277E+00  0.27168031332E+02  0.54186794201E+02  0.00000000000E+00 0. -1.
        -13    1    3    3    0    0  0.50408221770E+02  0.26319091155E+02  0.10281069473E+02  0.57787401488E+02  0.00000000000E+00 0.  1.
         13    1    3    3    0    0 -0.26965071661E+02  0.49019214931E+01  0.54615005645E+02  0.61105996151E+02  0.00000000000E+00 0. -1.
         21    1    1    2  502  501 -0.50731562926E+02  0.20554045986E+02 -0.46454804514E+02  0.71792820991E+02  0.00000000000E+00 0.  1.
<scales pt_clust_5="13000.00000" pt_clust_6="13000.00000" pt_clust_7="13000.00000" pt_clust_8="13000.00000" pt_clust_9="54.73719"></scales>
<clustering>
<clus scale="   54.737">  2  9  1 -1</clus>
<clus scale="   91.650">  7  8 -1 -1</clus>
<clus scale="   91.734">  5  6 -1 -1</clus>
<clus scale="  101.297">  2  7  1 -1</clus>
<clus scale="  101.373">  1  5  2 -1</clus>
</clustering>
</event>
<event>
 9    1  0.1484717E-005  0.1513864E+03  0.7546771E-02  0.1199198E+00
          1   -1    0    0  502    0  0.00000000000E+00  0.00000000000E+00  0.54035757409E+03  0.54035757409E+03  0.00000000000E+00 0. -1.
         -1   -1    0    0    0  501 -0.00000000000E+00 -0.00000000000E+00 -0.15187229195E+03  0.15187229195E+03  0.00000000000E+00 0.  1.
         23    2    1    2    0    0  0.69720822320E+02  0.97100421392E+02  0.11968390062E+03  0.19386738069E+03  0.94714520167E+02 0.  0.
         23    2    1    2    0    0 -0.88769918755E+02 -0.78321879959E+02  0.36701278764E+03  0.39657357641E+03  0.92508377264E+02 0.  0.
        -11    1    3    3    0    0  0.35645574249E+02  0.10966941852E+03  0.81780736391E+02  0.14137212302E+03  0.00000000000E+00 0.  1.
         11    1    3    3    0    0  0.34075248071E+02 -0.12568997129E+02  0.37903164226E+02  0.52495257674E+02  0.00000000000E+00 0. -1.
        -11    1    4    4    0    0 -0.68352278137E+02 -0.89018787986E+02  0.35100101569E+03  0.36850792604E+03  0.00000000000E+00 0. -1.
         11    1    4    4    0    0 -0.20417640618E+02  0.10696908027E+02  0.16011771944E+02  0.28065650367E+02  0.00000000000E+00 0.  1.
         21    1    1    2  502  501  0.19049096435E+02 -0.18778541433E+02 -0.98211406105E+02  0.10178890894E+03  0.00000000000E+00 0.  1.
<scales pt_clust_5="13000.00000" pt_clust_6="13000.00000" pt_clust_7="13000.00000" pt_clust_8="13000.00000" pt_clust_9="26.74886"></scales>
<clustering>
<clus scale="   26.749">  2  9  1 -1</clus>
<clus scale="   92.508">  7  8 -1 -1</clus>
<clus scale="   94.715">  5  6 -1 -1</clus>
<clus scale="  150.016">  1  7  2 -1</clus>
<clus scale="  150.016">  1  5  2 -1</clus>
</clustering>
</event>
<event>
 9    1  0.1484717E-005  0.9639073E+02  0.7546771E-02  0.1290699E+00
          1   -1    0    0  502    0  0.00000000000E+00  0.00000000000E+00  0.69894076238E+03  0.69894076238E+03  0.00000000000E+00 0. -1.
         -1   -1    0    0    0  501 -0.00000000000E+00 -0.00000000000E+00 -0.31258665040E+02  0.31258665040E+02  0.00000000000E+00 0.  1.
         23    2    1    2    0    0  0.11818873418E+02  0.61748621543E+01  0.21155052667E+03  0.23140115844E+03  0.92817326521E+02 0.  0.
         23    2    1    2    0    0 -0.10993270040E+02  0.39160654994E+02  0.44018258154E+03  0.45073205433E+03  0.88001538764E+02 0.  0.
        -11    1    3    3    0    0  0.40596131239E+02 -0.22774593544E+01  0.19041920343E+03  0.19471185307E+03  0.00000000000E+00 0. -1.
         11    1    3    3    0    0 -0.28777257821E+02  0.84523215086E+01  0.21131323244E+02  0.36689305371E+02  0.00000000000E+00 0.  1.
        -11    1    4    4    0    0 -0.60114710497E+01 -0.27961174875E+02  0.16334966516E+03  0.16583449036E+03  0.00000000000E+00 0. -1.
         11    1    4    4    0    0 -0.49817989898E+01  0.67121829869E+02  0.27683291638E+03  0.28489756397E+03  0.00000000000E+00 0.  1.
         21    1    1    2  502  501 -0.82560337843E+00 -0.45335517148E+02  0.15948989128E+02  0.48066214645E+02  0.00000000000E+00 0. -1.
<scales pt_clust_5="13000.00000" pt_clust_6="13000.00000" pt_clust_7="13000.00000" pt_clust_8="13000.00000" pt_clust_9="45.34303"></scales>
<clustering>
<clus scale="   45.343">  2  9  1 -1</clus>
<clus scale="   88.002">  7  8 -1 -1</clus>
<clus scale="   91.763">  1  7  2 -1</clus>
<clus scale="   92.817">  5  6 -1 -1</clus>
<clus scale="   91.763">  1  5  2 -1</clus>
</clustering>
</event>
<event>
 9    1  0.1484717E-005  0.9719409E+02  0.7546771E-02  0.1286372E+00
          2   -1    0    0  502    0  0.00000000000E+00  0.00000000000E+00  0.20087374694E+03  0.20087374694E+03  0.00000000000E+00 0. -1.
         -2   -1    0    0    0  501 -0.00000000000E+00 -0.00000000000E+00 -0.10104295911E+03  0.10104295911E+03  0.00000000000E+00 0.  1.
         23    2    1    2    0    0 -0.10966839316E+02  0.62736500095E+02 -0.54752833221E+01  0.11163706764E+03  0.91524401857E+02 0.  0.
         23    2    1    2    0    0  0.37147563370E+01 -0.23004943853E+02  0.11485995827E+03  0.14877703575E+03  0.91644800696E+02 0.  0.
        -11    1    4    4    0    0  0.40054160529E+02 -0.12428239792E+02  0.99416551864E+02  0.10790017472E+03  0.00000000000E+00 0.  1.
         11    1    4    4    0    0 -0.36339404192E+02 -0.10576704061E+02  0.15443406408E+02  0.40876861026E+02  0.00000000000E+00 0. -1.
        -13    1    3    3    0    0  0.12866672019E+02  0.62853629079E+02 -0.35483246311E+02  0.73315692085E+02  0.00000000000E+00 0.  1.
         13    1    3    3    0    0 -0.23833511335E+02 -0.11712898406E+00  0.30007962989E+02  0.38321375556E+02  0.00000000000E+00 0. -1.
         21    1    1    2  502  501  0.72520829790E+01 -0.39731556241E+02 -0.95538871163E+01  0.41502602664E+02  0.00000000000E+00 0. -1.
<scales pt_clust_5="13000.00000" pt_clust_6="13000.00000" pt_clust_7="13000.00000" pt_clust_8="13000.00000" pt_clust_9="40.38798"></scales>
<clustering>
<clus scale="   40.388">  2  9  1 -1</clus>
<clus scale="   91.524">  7  8 -1 -1</clus>
<clus scale="   91.645">  5  6 -1 -1</clus>
<clus scale="   97.081">  2  7  1 -1</clus>
<clus scale="   97.194">  1  5  2 -1</clus>
</clustering>
</event>
<event>
 9    1  0.1484717E-005  0.1067684E+03  0.7546771E-02  0.1267251E+00
         -1   -1    0    0    0  501 -0.00000000000E+00  0.00000000000E+00  0.45073121289E+03  0.45073121289E+03  0.00000000000E+00 0.  1.
          1   -1    0    0  502    0  0.00000000000E+00 -0.00000000000E+00 -0.21060506076E+03  0.21060506076E+03  0.00000000000E+00 0. -1.
         23    2    1    2    0    0  0.54125886000E+02  0.35911896233E+02  0.39889456483E+03  0.41414023749E+03  0.90421162516E+02 0.  0.
         23    2    1    2    0    0 -0.52495632756E+02 -0.13699096326E+02 -0.18453790013E+03  0.21313531557E+03  0.91809419233E+02 0.  0.
        -11    1    3    3    0    0 -0.49654530101E+01  0.48520670571E+02  0.21914963471E+03  0.22451163353E+03  0.00000000000E+00 0.  1.
         11    1    3    3    0    0  0.59091339010E+02 -0.12608774338E+02  0.17974493012E+03  0.18962860396E+03  0.00000000000E+00 0. -1.
        -11    1    4    4    0    0 -0.23713903923E+02 -0.48421191513E+02 -0.13878919849E+03  0.14889393085E+03  0.00000000000E+00 0. -1.
         11    1    4    4    0    0 -0.28781728833E+02  0.34722095186E+02 -0.45748701637E+02  0.64241384716E+02  0.00000000000E+00 0.  1.
         21    1    1    2  502  501 -0.16302532442E+01 -0.22212799906E+02  0.25769487425E+02  0.34060720595E+02  0.00000000000E+00 0. -1.
<scales pt_clust_5="13000.00000" pt_clust_6="13000.00000" pt_clust_7="13000.00000" pt_clust_8="13000.00000" pt_clust_9="22.27254"></scales>
<clustering>
<clus scale="   22.273">  1  9  2 -1</clus>
<clus scale="   90.421">  5  6 -1 -1</clus>
<clus scale="   91.809">  7  8 -1 -1</clus>
<clus scale="  105.577">  1  5  2 -1</clus>
<clus scale="  106.768">  2  5  1 -1</clus>
</clustering>
</event>
<event>
 9    1  0.1484717E-005  0.3393923E+03  0.7546771E-02  0.1067354E+00
          1   -1    0    0  502    0  0.00000000000E+00  0.00000000000E+00  0.38351906105E+03  0.38351906105E+03  0.00000000000E+00 0. -1.
         -1   -1    0    0    0  501 -0.00000000000E+00 -0.00000000000E+00 -0.51338671042E+03  0.51338671042E+03  0.00000000000E+00 0.  1.
         23    2    1    2    0    0  0.24502879123E+03 -0.16018286568E+03 -0.23528369043E+03  0.38858741773E+03  0.99720144628E+02 0.  0.
         23    2    1    2    0    0 -0.26241823105E+03  0.20802623626E+03  0.20047598522E+03  0.40048619848E+03  0.89779349355E+02 0.  0.
        -11    1    3    3    0    0  0.22131884456E+03 -0.10352801539E+03 -0.16290540234E+03  0.29366349967E+03  0.00000000000E+00 0.  1.
         11    1    3    3    0    0  0.23709946672E+02 -0.56654850288E+02 -0.72378288091E+02  0.94923918057E+02  0.00000000000E+00 0. -1.
        -13    1    4    4    0    0 -0.21641882170E+03  0.18759878716E+03  0.20142461375E+03  0.35014609287E+03  0.00000000000E+00 0. -1.
         13    1    4    4    0    0 -0.45999409346E+02  0.20427449093E+02 -0.94862853246E+00  0.50340105609E+02  0.00000000000E+00 0.  1.
         21    1    1    2  502  501  0.17389439819E+02 -0.47843370576E+02 -0.95059944160E+02  0.10783215526E+03  0.00000000000E+00 0.  1.
<scales pt_clust_5="13000.00000" pt_clust_6="13000.00000" pt_clust_7="13000.00000" pt_clust_8="13000.00000" pt_clust_9="50.90561"></scales>
<clustering>
<clus scale="   50.906">  2  9  1 -1</clus>
<clus scale="   89.779">  7  8 -1 -1</clus>
<clus scale="   99.720">  5  6 -1 -1</clus>
<clus scale="  336.606">  1  7  2 -1</clus>
<clus scale="  336.606">  1  5  2 -1</clus>
</clustering>
</event>
<event>
 9    1  0.1484717E-005  0.1555146E+03  0.7546771E-02  0.1194040E+00
          2   -1    0    0  502    0  0.00000000000E+00  0.00000000000E+00  0.45837546728E+03  0.45837546728E+03  0.00000000000E+00 0. -1.
         -2   -1    0    0    0  501 -0.00000000000E+00 -0.00000000000E+00 -0.14254354695E+03  0.14254354695E+03  0.00000000000E+00 0.  1.
         23    2    1    2    0    0  0.54622586010E+02  0.10116213818E+03 -0.54705623460E+02  0.15566094275E+03  0.89555674058E+02 0.  0.
         23    2    1    2    0    0 -0.95358708398E+02 -0.88089252571E+02  0.37055049030E+03  0.40247568990E+03  0.88464769341E+02 0.  0.
        -11    1    4    4    0    0 -0.71774509162E+02 -0.64173247918E+01  0.16637195121E+03  0.18130744158E+03  0.00000000000E+00 0.  1.
         11    1    4    4    0    0 -0.23584199237E+02 -0.81671927780E+02  0.20417853909E+03  0.22116824832E+03  0.00000000000E+00 0. -1.
        -13    1    3    3    0    0  0.16071412505E+02  0.93194693029E+02 -0.84877241998E+01  0.94950421646E+02  0.00000000000E+00 0. -1.
         13    1    3    3    0    0  0.38551173504E+02  0.79674451542E+01 -0.46217899260E+02  0.60710521105E+02  0.00000000000E+00 0.  1.
         21    1    1    2  502  501  0.40736122389E+02 -0.13072885612E+02 -0.12946504711E-01  0.42782381573E+02  0.00000000000E+00 0. -1.
<scales pt_clust_5="13000.00000" pt_clust_6="13000.00000" pt_clust_7="13000.00000" pt_clust_8="13000.00000" pt_clust_9="42.78238"></scales>
<clustering>
<clus scale="   42.782">  2  9  1 -1</clus>
<clus scale="   88.465">  5  6 -1 -1</clus>
<clus scale="   89.556">  7  8 -1 -1</clus>
<clus scale="  154.889">  1  5  2 -1</clus>
<clus scale="  154.889">  1  5  2 -1</clus>
</clustering>
</event>
<event>
 9    1  0.1484717E-005  0.1171151E+03  0.7546771E-02  0.1248095E+00
         -2   -1    0    0    0  501 -0.00000000000E+00  0.00000000000E+00  0.18698800175E+03  0.18698800175E+03  0.00000000000E+00 0.  1.
          2   -1    0    0  502    0  0.00000000000E+00 -0.00000000000E+00 -0.12042736057E+03  0.12042736057E+03  0.00000000000E+00 0. -1.
         23    2    1    2    0    0 -0.15161607577E+02 -0.77444361263E+02  0.55038939958E+02  0.13165679741E+03  0.89870595621E+02 0.  0.
         23    2    1    2    0    0 -0.16142855658E+02  0.72737688653E+02 -0.32493007111E+02  0.12154217684E+03  0.90362282504E+02 0.  0.
        -11    1    4    4    0    0  0.16485547373E+02  0.12728434420E+02  0.24802729091E+02  0.32387677986E+02  0.00000000000E+00 0.  1.
         11    1    4    4    0    0 -0.32628403031E+02  0.60009254233E+02 -0.57295736202E+02  0.89154498849E+02  0.00000000000E+00 0. -1.
        -13    1    3    3    0    0 -0.22650241459E+02 -0.18518246641E+02  0.65135814649E+02  0.71404714457E+02  0.00000000000E+00 0. -1.
         13    1    3    3    0    0  0.74886338816E+01 -0.58926114622E+02 -0.10096874690E+02  0.60252082955E+02  0.00000000000E+00 0.  1.
         21    1    1    2  502  501  0.31304463235E+02  0.47066726098E+01  0.44014708335E+02  0.54216388070E+02  0.00000000000E+00 0.  1.
<scales pt_clust_5="13000.00000" pt_clust_6="13000.00000" pt_clust_7="13000.00000" pt_clust_8="13000.00000" pt_clust_9="31.65631"></scales>
<clustering>
<clus scale="   31.656">  1  9  2 -1</clus>
<clus scale="   89.871">  7  8 -1 -1</clus>
<clus scale="   90.362">  5  6 -1 -1</clus>
<clus scale="  116.736">  1  7  2 -1</clus>
<clus scale="  117.115">  2  5  1 -1</clus>
</clustering>
</event>
<event>
 9    1  0.1484717E-005  0.9285480E+02  0.7546771E-02  0.1297354E+00
         -2   -1    0    0    0  501 -0.00000000000E+00  0.00000000000E+00  0.86584733899E+02  0.86584733899E+02  0.00000000000E+00 0.  1.
          2   -1    0    0  502    0  0.00000000000E+00 -0.00000000000E+00 -0.32873441864E+03  0.32873441864E+03  0.00000000000E+00 0. -1.
         23    2    1    2    0    0  0.13210381580E+02 -0.35877526547E+02 -0.59171730803E+02  0.11612255412E+03  0.92311660996E+02 0.  0.
         23    2    1    2    0    0  0.15857251720E+02 -0.51286529601E+01 -0.21896601569E+03  0.23737771254E+03  0.90134937010E+02 0.  0.
        -13    1    3    3    0    0  0.29663839373E+02 -0.57881485290E+02 -0.60205362891E+02  0.88627847918E+02  0.00000000000E+00 0. -1.
         13    1    3    3    0    0 -0.16453457793E+02  0.22003958742E+02  0.10336320887E+01  0.27494706199E+02  0.00000000000E+00 0.  1.
        -13    1    4    4    0    0 -0.37165689709E+02 -0.18333390215E+01 -0.11056427103E+03  0.11665808009E+03  0.00000000000E+00 0.  1.
         13    1    4    4    0    0  0.53022941429E+02 -0.32953139387E+01 -0.10840174466E+03  0.12071963244E+03  0.00000000000E+00 0. -1.
         21    1    1    2  502  501 -0.29067633300E+02  0.41006179507E+02  0.35988061749E+02  0.61818885884E+02  0.00000000000E+00 0.  1.
<scales pt_clust_5="13000.00000" pt_clust_6="13000.00000" pt_clust_7="13000.00000" pt_clust_8="13000.00000" pt_clust_9="50.26365"></scales>
<clustering>
<clus scale="   50.264">  1  9  2 -1</clus>
<clus scale="   90.135">  7  8 -1 -1</clus>
<clus scale="   90.691">  2  7  1 -1</clus>
<clus scale="   92.312">  5  6 -1 -1</clus>
<clus scale="   90.691">  2  5  1 -1</clus>
</clustering>
</event>
<event>
 9    1  0.1484717E-005  0.9365119E+02  0.7546771E-02  0.1294458E+00
         -1   -1    0    0    0  501 -0.00000000000E+00  0.00000000000E+00  0.16286526548E+03  0.16286526548E+03  0.00000000000E+00 0.  1.
          1   -1    0    0  502    0  0.00000000000E+00 -0.00000000000E+00 -0.11969065063E+03  0.11969065063E+03  0.00000000000E+00 0. -1.
         23    2    1    2    0    0  0.43650553306E+02  0.31430471276E+02  0.10412593689E+02  0.10655657434E+03  0.91392757365E+02 0.  0.
         23    2    1    2    0    0  0.27031885314E+02 -0.58663054593E+01  0.53778428005E+01  0.96002923559E+02  0.91774199944E+02 0.  0.
        -11    1    4    4    0    0  0.15765034188E+02  0.25960457763E+02 -0.33025809601E+02  0.44868538755E+02  0.00000000000E+00 0. -1.
         11    1    4    4    0    0  0.11266851125E+02 -0.31826763223E+02  0.38403652401E+02  0.51134384804E+02  0.00000000000E+00 0.  1.
        -13    1    3    3    0    0  0.27318392057E+02 -0.16866274160E+02  0.37057093915E+02  0.49030541074E+02  0.00000000000E+00 0.  1.
         13    1    3    3    0    0  0.16332161248E+02  0.48296745436E+02 -0.26644500226E+02  0.57526033263E+02  0.00000000000E+00 0. -1.
         21    1    1    2  502  501 -0.70682438620E+02 -0.25564165817E+02  0.27384178359E+02  0.79996418217E+02  0.00000000000E+00 0. -1.
<scales pt_clust_5="13000.00000" pt_clust_6="13000.00000" pt_clust_7="13000.00000" pt_clust_8="13000.00000" pt_clust_9="75.16338"></scales>
<clustering>
<clus scale="   75.163">  1  9  2 -1</clus>
<clus scale="   91.393">  7  8 -1 -1</clus>
<clus scale="   91.774">  5  6 -1 -1</clus>
<clus scale="   93.277">  1  7  2 -1</clus>
<clus scale="   93.651">  2  5  1 -1</clus>
</clustering>
</event>
<event>
 9    1  0.1484717E-005  0.9272817E+02  0.7546771E-02  0.1297008E+00
         -2   -1    0    0    0  501 -0.00000000000E+00  0.00000000000E+00  0.11629959036E+03  0.11629959036E+03  0.00000000000E+00 0.  1.
          2   -1    0    0  502    0  0.00000000000E+00 -0.00000000000E+00 -0.12220862024E+03  0.12220862024E+03  0.00000000000E+00 0. -1.
         23    2    1    2    0    0  0.24550974788E+01  0.19844091198E+02  0.52515779130E+01  0.92104784385E+02  0.89754647662E+02 0.  0.
         23    2    1    2    0    0 -0.22783287630E+02 -0.16243803695E+02 -0.47669828058E+02  0.10446155514E+03  0.88638956681E+02 0.  0.
        -11    1    3    3    0    0 -0.30597232388E+02 -0.20656453399E+02  0.13245355492E+02  0.39221411741E+02  0.00000000000E+00 0.  1.
         11    1    3    3    0    0  0.33052329867E+02  0.40500544597E+02 -0.79937775785E+01  0.52883372645E+02  0.00000000000E+00 0. -1.
        -13    1    4    4    0    0 -0.67898770385E+01 -0.35523027816E+02 -0.64734252988E+02  0.74151948358E+02  0.00000000000E+00 0. -1.
         13    1    4    4    0    0 -0.15993410591E+02  0.19279224121E+02  0.17064424930E+02  0.30309606782E+02  0.00000000000E+00 0.  1.
         21    1    1    2  502  501  0.20328190151E+02 -0.36002875036E+01  0.36509220267E+02  0.41941871077E+02  0.00000000000E+00 0.  1.
<scales pt_clust_5="13000.00000" pt_clust_6="13000.00000" pt_clust_7="13000.00000" pt_clust_8="13000.00000" pt_clust_9="20.64455"></scales>
<clustering>
<clus scale="   20.645">  1  9  2 -1</clus>
<clus scale="   88.639">  7  8 -1 -1</clus>
<clus scale="   89.755">  5  6 -1 -1</clus>
<clus scale="   91.649">  2  7  1 -1</clus>
<clus scale="   91.649">  2  5  1 -1</clus>
</clustering>
</event>
<event>
 9    1  0.1484717E-005  0.9314844E+02  0.7546771E-02  0.1296512E+00
         -2   -1    0    0    0  501 -0.00000000000E+00  0.00000000000E+00  0.32799218258E+03  0.32799218258E+03  0.00000000000E+00 0.  1.
          2   -1    0    0  502    0  0.00000000000E+00 -0.00000000000E+00 -0.36228515157E+02  0.36228515157E+02  0.00000000000E+00 0. -1.
         23    2    1    2    0    0 -0.12304879550E+02  0.40301978959E+01  0.11919076899E+03  0.15053725246E+03  0.91035006513E+02 0.  0.
         23    2    1    2    0    0 -0.11011754095E+02 -0.81850937345E+01  0.99389311435E+02  0.13676292805E+03  0.92938736671E+02 0.  0.
        -13    1    3    3    0    0 -0.35655492096E+02 -0.28105282223E+02  0.91409011917E+02  0.10206286526E+03  0.00000000000E+00 0. -1.
         13    1    3    3    0    0  0.23350612545E+02  0.32135480119E+02  0.27781757074E+02  0.48474387204E+02  0.00000000000E+00 0.  1.
        -13    1    4    4    0    0  0.15347501751E+02 -0.25762318890E+02 -0.24711438014E+01  0.30089025180E+02  0.00000000000E+00 0.  1.
         13    1    4    4    0    0 -0.26359255846E+02  0.17577225155E+02  0.10186045524E+03  0.10667390287E+03  0.00000000000E+00 0. -1.
         21    1    1    2  502  501  0.23316633645E+02  0.41548958386E+01  0.73183587000E+02  0.76920517225E+02  0.00000000000E+00 0. -1.
<scales pt_clust_5="13000.00000" pt_clust_6="13000.00000" pt_clust_7="13000.00000" pt_clust_8="13000.00000" pt_clust_9="23.68393"></scales>
<clustering>
<clus scale="   23.684">  1  9  2 -1</clus>
<clus scale="   91.035">  5  6 -1 -1</clus>
<clus scale="   91.249">  1  5  2 -1</clus>
<clus scale="   92.939">  7  8 -1 -1</clus>
<clus scale="   93.148">  2  5  1 -1</clus>
</clustering>
</event>
<event>
 9    1  0.1484717E-005  0.1746047E+03  0.7546771E-02  0.1173311E+00
         -2   -1    0    0    0  501 -0.00000000000E+00  0.00000000000E+00  0.13626422962E+03  0.13626422962E+03  0.00000000000E+00 0.  1.
          2   -1    0    0  502    0  0.00000000000E+00 -0.00000000000E+00 -0.58476062343E+03  0.58476062343E+03  0.00000000000E+00 0. -1.
         23    2    1    2    0    0  0.26996125632E+01 -0.13603479024E+03 -0.84380510318E+02  0.18508054255E+03  0.92854642554E+02 0.  0.
         23    2    1    2    0    0  0.15542185657E+02  0.15147212300E+03 -0.43032771512E+03  0.46555197361E+03  0.91494995255E+02 0.  0.
        -11    1    4    4    0    0  0.51479686015E+02  0.70548722013E+02 -0.24642919206E+03  0.26144717813E+03  0.00000000000E+00 0. -1.
         11    1    4    4    0    0 -0.35937500358E+02  0.80923400984E+02 -0.18389852305E+03  0.20410479549E+03  0.00000000000E+00 0.  1.
        -13    1    3    3    0    0 -0.78933127670E+01 -0.46861834337E+02 -0.82562425634E+02  0.95262217224E+02  0.00000000000E+00 0. -1.
         13    1    3    3    0    0  0.10592925330E+02 -0.89172955907E+02 -0.18180846841E+01  0.89818325325E+02  0.00000000000E+00 0.  1.
         21    1    1    2  502  501 -0.18241798220E+02 -0.15437332753E+02  0.66211831622E+02  0.70392336881E+02  0.00000000000E+00 0.  1.
<scales pt_clust_5="13000.00000" pt_clust_6="13000.00000" pt_clust_7="13000.00000" pt_clust_8="13000.00000" pt_clust_9="23.89716"></scales>
<clustering>
<clus scale="   23.897">  1  9  2 -1</clus>
<clus scale="   91.495">  5  6 -1 -1</clus>
<clus scale="   92.855">  7  8 -1 -1</clus>
<clus scale="  173.886">  2  5  1 -1</clus>
<clus scale="  173.886">  2  5  1 -1</clus>
</clustering>
</event>
<event>
 9    1  0.1484717E-005  0.1170426E+03  0.7546771E-02  0.1259514E+00
          1   -1    0    0  502    0  0.00000000000E+00  0.00000000000E+00  0.64134164763E+02  0.64134164763E+02  0.00000000000E+00 0. -1.
         -1   -1    0    0    0  501 -0.00000000000E+00 -0.00000000000E+00 -0.37038022497E+03  0.37038022497E+03  0.00000000000E+00 0.  1.
         23    2    1    2    0    0 -0.20703584991E+02  0.26916833471E+02 -0.54022536447E+02  0.11129358252E+03  0.91184827194E+02 0.  0.
         23    2    1    2    0    0 -0.16557482144E+02 -0.90696996870E+01 -0.69849453052E+02  0.13622559611E+03  0.11542121675E+03 0.  0.
        -11    1    4    4    0    0  0.83705813972E+01  0.46751223901E+02 -0.56209311991E+02  0.73588248543E+02  0.00000000000E+00 0.  1.
         11    1    4    4    0    0 -0.24928063542E+02 -0.55820923588E+02 -0.13640141061E+02  0.62637347568E+02  0.00000000000E+00 0. -1.
        -13    1    3    3    0    0  0.33050157933E+02  0.88034336765E+01 -0.40444375347E+02  0.52967545545E+02  0.00000000000E+00 0.  1.
         13    1    3    3    0    0 -0.53753742923E+02  0.18113399794E+02 -0.13578161101E+02  0.58326036975E+02  0.00000000000E+00 0. -1.
         21    1    1    2  502  501  0.37261067135E+02 -0.17847133784E+02 -0.18237407070E+03  0.18699521110E+03  0.00000000000E+00 0.  1.
<scales pt_clust_5="13000.00000" pt_clust_6="13000.00000" pt_clust_7="13000.00000" pt_clust_8="13000.00000" pt_clust_9="41.31473"></scales>
<clustering>
<clus scale="   41.315">  2  9  1 -1</clus>
<clus scale="   91.185">  7  8 -1 -1</clus>
<clus scale="   93.229">  2  7  1 -1</clus>
<clus scale="  115.421">  5  6 -1 -1</clus>
<clus scale="  117.043">  1  5  2 -1</clus>
</clustering>
</event>
<event>
 9    1  0.1484717E-005  0.2115558E+03  0.7546771E-02  0.1140475E+00
          1   -1    0    0  502    0  0.00000000000E+00  0.00000000000E+00  0.77870906651E+03  0.77870906651E+03  0.00000000000E+00 0. -1.
         -1   -1    0    0    0  501 -0.00000000000E+00 -0.00000000000E+00 -0.11518324458E+03  0.11518324458E+03  0.00000000000E+00 0.  1.
         23    2    1    2    0    0 -0.21087813131E+03 -0.10207290926E+02  0.10558472503E+03  0.25147038308E+03  0.86691662548E+02 0.  0.
         23    2    1    2    0    0  0.18755554501E+03 -0.23411598604E+02  0.56417248605E+03  0.60103348788E+03  0.85002788887E+02 0.  0.
        -11    1    4    4    0    0  0.13858201840E+03 -0.53746570813E+02  0.37892434076E+03  0.40703479669E+03  0.00000000000E+00 0. -1.
         11    1    4    4    0    0  0.48973526614E+02  0.30334972208E+02  0.18524814529E+03  0.19399869119E+03  0.00000000000E+00 0.  1.
        -13    1    3    3    0    0 -0.54168231290E+02 -0.30322627299E+02  0.61628412938E+02  0.87474112105E+02  0.00000000000E+00 0. -1.
         13    1    3    3    0    0 -0.15670990002E+03  0.20115336373E+02  0.43956312092E+02  0.16399627098E+03  0.00000000000E+00 0.  1.
         21    1    1    2  502  501  0.23322586301E+02  0.33618889530E+02 -0.62313891549E+01  0.41388440122E+02  0.00000000000E+00 0.  1.
<scales pt_clust_5="13000.00000" pt_clust_6="13000.00000" pt_clust_7="13000.00000" pt_clust_8="13000.00000" pt_clust_9="40.91666"></scales>
<clustering>
<clus scale="   40.917">  2  9  1 -1</clus>
<clus scale="   85.003">  5  6 -1 -1</clus>
<clus scale="   86.692">  7  8 -1 -1</clus>
<clus scale="  210.869">  1  5  2 -1</clus>
<clus scale="  210.869">  1  5  2 -1</clus>
</clustering>
</event>
<event>
 9    1  0.1484717E-005  0.1118248E+03  0.7546771E-02  0.1264140E+00
         -3   -1    0    0    0  501 -0.00000000000E+00  0.00000000000E+00  0.49425388180E+02  0.49425388180E+02  0.00000000000E+00 0.  1.
          3   -1    0    0  502    0  0.00000000000E+00 -0.00000000000E+00 -0.34667459350E+03  0.34667459350E+03  0.00000000000E+00 0. -1.
         23    2    1    2    0    0 -0.45056939786E+02  0.22516094023E+02 -0.49544809933E+02  0.11271691314E+03  0.87825463303E+02 0.  0.
         23    2    1    2    0    0  0.24750561755E+02 -0.32591380742E+02 -0.22663043814E+03  0.25243194472E+03  0.10337186668E+03 0.  0.
        -11    1    4    4    0    0 -0.21915836016E+02 -0.57879982580E+01 -0.35397153087E+01  0.22941978480E+02  0.00000000000E+00 0.  1.
         11    1    4    4    0    0  0.46666397772E+02 -0.26803382484E+02 -0.22309072283E+03  0.22948996624E+03  0.00000000000E+00 0. -1.
        -13    1    3    3    0    0 -0.71042021824E+02  0.12887086287E+02 -0.27332641881E+02  0.77201808075E+02  0.00000000000E+00 0.  1.
         13    1    3    3    0    0  0.25985082038E+02  0.96290077364E+01 -0.22212168052E+02  0.35515105069E+02  0.00000000000E+00 0. -1.
         21    1    1    2  502  501  0.20306378031E+02  0.10075286719E+02 -0.21073957250E+02  0.30951123814E+02  0.00000000000E+00 0.  1.
<scales pt_clust_5="13000.00000" pt_clust_6="13000.00000" pt_clust_7="13000.00000" pt_clust_8="13000.00000" pt_clust_9="22.66849"></scales>
<clustering>
<clus scale="   22.668">  1  9  2 -1</clus>
<clus scale="   87.825">  7  8 -1 -1</clus>
<clus scale="   97.634">  1  7  2 -1</clus>
<clus scale="  103.372">  5  6 -1 -1</clus>
<clus scale="  111.825">  2  5  1 -1</clus>
</clustering>
</event>
<event>
 9    1  0.1484717E-005  0.1562147E+03  0.7546771E-02  0.1193175E+00
         -1   -1    0    0    0  501 -0.00000000000E+00  0.00000000000E+00  0.14142659468E+03  0.14142659468E+03  0.00000000000E+00 0.  1.
          1   -1    0    0  502    0  0.00000000000E+00 -0.00000000000E+00 -0.79348132026E+03  0.79348132026E+03  0.00000000000E+00 0. -1.
         23    2    1    2    0    0  0.29599421106E+02  0.10996670239E+03  0.29114555199E+02  0.14772219496E+03  0.89472834949E+02 0.  0.
         23    2    1    2    0    0 -0.14374344213E+03 -0.18400102324E+03 -0.36099114648E+03  0.43930071616E+03  0.90288192303E+02 0.  0.
        -11    1    4    4    0    0 -0.58646110222E+02 -0.10288408127E+03 -0.10778064967E+03  0.16012860103E+03  0.00000000000E+00 0.  1.
         11    1    4    4    0    0 -0.85097331910E+02 -0.81116941973E+02 -0.25321049680E+03  0.27917211513E+03  0.00000000000E+00 0. -1.
        -13    1    3    3    0    0  0.57664029231E+02  0.45063682498E+02  0.64484920088E+01  0.73467399550E+02  0.00000000000E+00 0.  1.
         13    1    3    3    0    0 -0.28064608125E+02  0.64903019894E+02  0.22666063190E+02  0.74254795408E+02  0.00000000000E+00 0. -1.
         21    1    1    2  502  501  0.11414402103E+03  0.74034320851E+02 -0.32017813430E+03  0.34788500382E+03  0.00000000000E+00 0. -1.
<scales pt_clust_5="13000.00000" pt_clust_6="13000.00000" pt_clust_7="13000.00000" pt_clust_8="13000.00000" pt_clust_9="136.05123"></scales>
<clustering>
<clus scale="   89.473">  7  8 -1 -1</clus>
<clus scale="   90.288">  5  6 -1 -1</clus>
<clus scale="  136.051">  2  9  1 -1</clus>
<clus scale="  155.745">  1  7  2 -1</clus>
<clus scale="  136.051">  2  5  1 -1</clus>
</clustering>
</event>
<event>
 9    1  0.1484717E-005  0.1025157E+03  0.7546771E-02  0.1275931E+00
          4   -1    0    0  502    0  0.00000000000E+00  0.00000000000E+00  0.71159233443E+02  0.71159233443E+02  0.00000000000E+00 0. -1.
         -4   -1    0    0    0  501 -0.00000000000E+00 -0.00000000000E+00 -0.33085171221E+03  0.33085171221E+03  0.00000000000E+00 0.  1.
         23    2    1    2    0    0  0.17114111754E+02  0.32907998929E+02 -0.11644121384E+03  0.15163641217E+03  0.89773136306E+02 0.  0.
         23    2    1    2    0    0 -0.40776399567E+02 -0.30047393384E+02  0.48392779411E+00  0.10467658375E+03  0.91604543491E+02 0.  0.
        -11    1    3    3    0    0  0.54168730125E+02  0.16946157271E+02 -0.69919337011E+02  0.90056300488E+02  0.00000000000E+00 0.  1.
         11    1    3    3    0    0 -0.37054618371E+02  0.15961841657E+02 -0.46521876826E+02  0.61580111684E+02  0.00000000000E+00 0. -1.
        -11    1    4    4    0    0 -0.69097005881E+02 -0.98259357555E+01 -0.16576320240E+01  0.69811839821E+02  0.00000000000E+00 0. -1.
         11    1    4    4    0    0  0.28320606314E+02 -0.20221457629E+02  0.21415598181E+01  0.34864743927E+02  0.00000000000E+00 0.  1.
         21    1    1    2  502  501  0.23662287813E+02 -0.28606055444E+01 -0.14373519272E+03  0.14569794973E+03  0.00000000000E+00 0.  1.
<scales pt_clust_5="13000.00000" pt_clust_6="13000.00000" pt_clust_7="13000.00000" pt_clust_8="13000.00000" pt_clust_9="23.83457"></scales>
<clustering>
<clus scale="   23.835">  2  9  1 -1</clus>
<clus scale="   89.773">  5  6 -1 -1</clus>
<clus scale="   91.605">  7  8 -1 -1</clus>
<clus scale="  100.883">  2  5  1 -1</clus>
<clus scale="  102.516">  1  5  2 -1</clus>
</clustering>
</event>
<event>
 9    1  0.2800289E-005  0.9802749E+02  0.7546771E-02  0.1285273E+00
          2   -1    0    0  502    0  0.00000000000E+00  0.00000000000E+00  0.36771338571E+03  0.36771338571E+03  0.00000000000E+00 0. -1.
         -2   -1    0    0    0  501 -0.00000000000E+00 -0.00000000000E+00 -0.11106310434E+03  0.11106310434E+03  0.00000000000E+00 0.  1.
         23    2    1    2    0    0  0.62564825428E+02  0.82132620104E+01 -0.57413884178E+02  0.12440055288E+03  0.90539098777E+02 0.  0.
         23    2    1    2    0    0 -0.28653023874E+02  0.14099963679E+02  0.29272351873E+03  0.30851404087E+03  0.92054604682E+02 0.  0.
        -11    1    4    4    0    0  0.33767947207E+02  0.20764681032E+01  0.10571848807E+03  0.11099993108E+03  0.00000000000E+00 0.  1.
         11    1    4    4    0    0 -0.62420971082E+02  0.12023495576E+02  0.18700503066E+03  0.19751410980E+03  0.00000000000E+00 0. -1.
        -11    1    3    3    0    0  0.56431942122E+02  0.33627647758E+02 -0.69469773400E+02  0.95610837261E+02  0.00000000000E+00 0.  1.
         11    1    3    3    0    0  0.61328833055E+01 -0.25414385748E+02  0.12055889223E+02  0.28789715621E+02  0.00000000000E+00 0. -1.
         21    1    1    2  502  501 -0.33911801554E+02 -0.22313225690E+02  0.21340646811E+02  0.45861896293E+02  0.00000000000E+00 0. -1.
<scales pt_clust_5="13000.00000" pt_clust_6="13000.00000" pt_clust_7="13000.00000" pt_clust_8="13000.00000" pt_clust_9="40.59422"></scales>
<clustering>
<clus scale="   40.594">  2  9  1 -1</clus>
<clus scale="   90.539">  7  8 -1 -1</clus>
<clus scale="   92.055">  5  6 -1 -1</clus>
<clus scale="   96.606">  2  7  1 -1</clus>
<clus scale="   98.027">  1  5  2 -1</clus>
</clustering>
</event>
<event>
 9    1  0.1484717E-005  0.9942590E+02  0.7546771E-02  0.1283526E+00
          2   -1    0    0  502    0  0.00000000000E+00  0.00000000000E+00  0.12660443206E+04  0.12660443206E+04  0.00000000000E+00 0. -1.
         -2   -1    0    0    0  501 -0.00000000000E+00 -0.00000000000E+00 -0.36956046760E+02  0.36956046760E+02  0.00000000000E+00 0.  1.
         23    2    1    2    0    0 -0.77149262656E+00  0.23910907637E+02  0.53567772598E+02  0.11131485436E+03  0.94600020269E+02 0.  0.
         23    2    1    2    0    0 -0.28330743516E+01 -0.90734036571E+02  0.73595596101E+03  0.74705610721E+03  0.90669504638E+02 0.  0.
        -11    1    4    4    0    0 -0.40824127319E+02 -0.78260183327E+02  0.49689900016E+03  0.50467799835E+03  0.00000000000E+00 0.  1.
         11    1    4    4    0    0  0.37991052968E+02 -0.12473853244E+02  0.23905696085E+03  0.24237810885E+03  0.00000000000E+00 0. -1.
        -11    1    3    3    0    0  0.30150331117E+02 -0.25092112571E+02  0.16672416485E+02  0.42621896381E+02  0.00000000000E+00 0.  1.
         11    1    3    3    0    0 -0.30921823743E+02  0.49003020207E+02  0.36895356113E+02  0.68692957978E+02  0.00000000000E+00 0. -1.
         21    1    1    2  502  501  0.36045669782E+01  0.66823128934E+02  0.43956454019E+03  0.44462940575E+03  0.00000000000E+00 0. -1.
<scales pt_clust_5="13000.00000" pt_clust_6="13000.00000" pt_clust_7="13000.00000" pt_clust_8="13000.00000" pt_clust_9="66.92028"></scales>
<clustering>
<clus scale="   66.920">  1  9  2 -1</clus>
<clus scale="   90.670">  5  6 -1 -1</clus>
<clus scale="   94.600">  7  8 -1 -1</clus>
<clus scale="   95.694">  1  5  2 -1</clus>
<clus scale="   66.920">  1  5  2 -1</clus>
</clustering>
</event>
<event>
 9    1  0.1484717E-005  0.1422006E+03  0.7546771E-02  0.1210514E+00
          2   -1    0    0  502    0  0.00000000000E+00  0.00000000000E+00  0.56866895580E+03  0.56866895580E+03  0.00000000000E+00 0. -1.
         -2   -1    0    0    0  501 -0.00000000000E+00 -0.00000000000E+00 -0.11432800928E+03  0.11432800928E+03  0.00000000000E+00 0.  1.
         23    2    1    2    0    0  0.72172330396E+02 -0.54076309303E+01  0.92549464377E+01  0.11760659237E+03  0.92236482954E+02 0.  0.
         23    2    1    2    0    0 -0.95576568772E+02 -0.71222604590E+02  0.45975751997E+03  0.48393360587E+03  0.92775092665E+02 0.  0.
        -11    1    3    3    0    0  0.90908825406E+02 -0.14579271973E+02 -0.52157627050E+01  0.92218077883E+02  0.00000000000E+00 0.  1.
         11    1    3    3    0    0 -0.18736495009E+02  0.91716410427E+01  0.14470709143E+02  0.25388514485E+02  0.00000000000E+00 0. -1.
        -13    1    4    4    0    0 -0.57902090127E+02 -0.16575628969E+02  0.35389572013E+03  0.35898410026E+03  0.00000000000E+00 0. -1.
         13    1    4    4    0    0 -0.37674478645E+02 -0.54646975620E+02  0.10586179984E+03  0.12494950560E+03  0.00000000000E+00 0.  1.
         21    1    1    2  502  501  0.23404238375E+02  0.76630235520E+02 -0.14671519885E+02  0.81456766849E+02  0.00000000000E+00 0.  1.
<scales pt_clust_5="13000.00000" pt_clust_6="13000.00000" pt_clust_7="13000.00000" pt_clust_8="13000.00000" pt_clust_9="80.12460"></scales>
<clustering>
<clus scale="   80.125">  2  9  1 -1</clus>
<clus scale="   92.236">  5  6 -1 -1</clus>
<clus scale="   92.775">  7  8 -1 -1</clus>
<clus scale="  141.850">  2  5  1 -1</clus>
<clus scale="  142.201">  1  5  2 -1</clus>
</clustering>
</event>
<event>
 9    1  0.1484717E-005  0.1071189E+03  0.7546771E-02  0.1266031E+00
          1   -1    0    0  502    0  0.00000000000E+00  0.00000000000E+00  0.11533055479E+03  0.11533055479E+03  0.00000000000E+00 0. -1.
         -1   -1    0    0    0  501 -0.00000000000E+00 -0.00000000000E+00 -0.25219028385E+03  0.25219028385E+03  0.00000000000E+00 0.  1.
         23    2    1    2    0    0 -0.12348019088E+02 -0.21339426242E+02 -0.14716507153E+03  0.17488355298E+03  0.91207752599E+02 0.  0.
         23    2    1    2    0    0  0.40130433750E+01  0.62943924555E+02  0.61016950587E+02  0.12651563038E+03  0.91132290198E+02 0.  0.
        -11    1    4    4    0    0  0.37449229563E+02  0.94966089071E+01 -0.20713152391E+00  0.38635130116E+02  0.00000000000E+00 0.  1.
         11    1    4    4    0    0 -0.33436186188E+02  0.53447315648E+02  0.61224082111E+02  0.87880500267E+02  0.00000000000E+00 0. -1.
        -13    1    3    3    0    0  0.31899448067E+02 -0.35253765724E+02 -0.83933780897E+02  0.96463891485E+02  0.00000000000E+00 0.  1.
         13    1    3    3    0    0 -0.44247467155E+02  0.13914339482E+02 -0.63231290637E+02  0.78419661492E+02  0.00000000000E+00 0. -1.
         21    1    1    2  502  501  0.83349757131E+01 -0.41604498313E+02 -0.50711608113E+02  0.66121655283E+02  0.00000000000E+00 0.  1.
<scales pt_clust_5="13000.00000" pt_clust_6="13000.00000" pt_clust_7="13000.00000" pt_clust_8="13000.00000" pt_clust_9="42.43119"></scales>
<clustering>
<clus scale="   42.431">  2  9  1 -1</clus>
<clus scale="   91.132">  5  6 -1 -1</clus>
<clus scale="   91.208">  7  8 -1 -1</clus>
<clus scale="  107.055">  1  5  2 -1</clus>
<clus scale="  107.055">  1  5  2 -1</clus>
</clustering>
</event>
<event>
 9    1  0.1484717E-005  0.1226807E+03  0.7546771E-02  0.1251618E+00
          1   -1    0    0  502    0  0.00000000000E+00  0.00000000000E+00  0.29655250210E+03  0.29655250210E+03  0.00000000000E+00 0. -1.
         -1   -1    0    0    0  501 -0.00000000000E+00 -0.00000000000E+00 -0.10434517384E+03  0.10434517384E+03  0.00000000000E+00 0.  1.
         23    2    1    2    0    0  0.44356007207E+02  0.37449608517E+02  0.21637095868E+02  0.13732806491E+03  0.12255980149E+03 0.  0.
         23    2    1    2    0    0  0.15875961193E+02  0.13042052549E+02  0.15613726923E+03  0.18365960991E+03  0.94497958660E+02 0.  0.
        -11    1    4    4    0    0  0.49348792286E+02  0.21346253855E+02  0.55485066317E+02  0.77262917612E+02  0.00000000000E+00 0.  1.
         11    1    4    4    0    0 -0.33472831092E+02 -0.83042013055E+01  0.10065220291E+03  0.10639669230E+03  0.00000000000E+00 0. -1.
        -11    1    3    3    0    0  0.22867661512E+02  0.73424184148E+02 -0.18722326555E+02  0.79149013086E+02  0.00000000000E+00 0.  1.
         11    1    3    3    0    0  0.21488345695E+02 -0.35974575631E+02  0.40359422423E+02  0.58179051822E+02  0.00000000000E+00 0. -1.
         21    1    1    2  502  501 -0.60231968401E+02 -0.50491661066E+02  0.14432963157E+02  0.79910001127E+02  0.00000000000E+00 0. -1.
<scales pt_clust_5="13000.00000" pt_clust_6="13000.00000" pt_clust_7="13000.00000" pt_clust_8="13000.00000" pt_clust_9="78.59579"></scales>
<clustering>
<clus scale="   78.596">  2  9  1 -1</clus>
<clus scale="   94.498">  5  6 -1 -1</clus>
<clus scale="   94.655">  1  5  2 -1</clus>
<clus scale="  122.560">  7  8 -1 -1</clus>
<clus scale="   94.655">  1  5  2 -1</clus>
</clustering>
</event>
<event>
 9    1  0.1484717E-005  0.1316600E+03  0.7546771E-02  0.1228640E+00
          1   -1    0    0  502    0  0.00000000000E+00  0.00000000000E+00  0.53811512368E+02  0.53811512368E+02  0.00000000000E+00 0. -1.
         -1   -1    0    0    0  501 -0.00000000000E+00 -0.00000000000E+00 -0.37981329779E+03  0.37981329779E+03  0.00000000000E+00 0.  1.
         23    2    1    2    0    0  0.74000771027E+02  0.55623369835E+02 -0.14932836897E+03  0.19253908691E+03  0.78754459067E+02 0.  0.
         23    2    1    2    0    0 -0.56136001044E+02 -0.77981168599E+02 -0.13063689857E+03  0.18687887728E+03  0.92873043638E+02 0.  0.
        -11    1    4    4    0    0  0.23657442682E+02 -0.23045745954E+02 -0.15722245068E+02  0.36578272113E+02  0.00000000000E+00 0. -1.
         11    1    4    4    0    0 -0.79793443725E+02 -0.54935422645E+02 -0.11491465351E+03  0.15030060517E+03  0.00000000000E+00 0.  1.
        -11    1    3    3    0    0  0.27966430495E+02 -0.16535185729E+02 -0.63487113346E+02  0.71317229073E+02  0.00000000000E+00 0.  1.
         11    1    3    3    0    0  0.46034340532E+02  0.72158555564E+02 -0.85841255626E+02  0.12122185783E+03  0.00000000000E+00 0. -1.
         21    1    1    2  502  501 -0.17864769983E+02  0.22357798764E+02 -0.46036517872E+02  0.54206845969E+02  0.00000000000E+00 0.  1.
<scales pt_clust_5="13000.00000" pt_clust_6="13000.00000" pt_clust_7="13000.00000" pt_clust_8="13000.00000" pt_clust_9="28.61855"></scales>
<clustering>
<clus scale="   28.619">  2  9  1 -1</clus>
<clus scale="   78.754">  7  8 -1 -1</clus>
<clus scale="   92.873">  5  6 -1 -1</clus>
<clus scale="  122.111">  2  7  1 -1</clus>
<clus scale="  131.660">  1  5  2 -1</clus>
</clustering>
</event>
<event>
 9    1  0.1484717E-005  0.1672546E+03  0.7546771E-02  0.1180798E+00
          2   -1    0    0  502    0  0.00000000000E+00  0.00000000000E+00  0.17934199050E+03  0.17934199050E+03  0.00000000000E+00 0. -1.
         -2   -1    0    0    0  501 -0.00000000000E+00 -0.00000000000E+00 -0.21852233949E+03  0.21852233949E+03  0.00000000000E+00 0.  1.
         23    2    1    2    0    0 -0.12264320901E+03 -0.47683500393E+02 -0.65529202169E+02  0.17288031624E+03  0.90986012562E+02 0.  0.
         23    2    1    2    0    0  0.14638448703E+03  0.12267735680E+02  0.44523904863E+02  0.17863471844E+03  0.91373240854E+02 0.  0.
        -11    1    3    3    0    0 -0.84814481408E+02 -0.59773837994E+02 -0.94882197084E+01  0.10419421423E+03  0.00000000000E+00 0.  1.
         11    1    3    3    0    0 -0.37828727600E+02  0.12090337601E+02 -0.56040982461E+02  0.68686102017E+02  0.00000000000E+00 0. -1.
        -13    1    4    4    0    0  0.38937161530E+02  0.38191350498E+02 -0.99001294852E+01  0.55431889420E+02  0.00000000000E+00 0.  1.
         13    1    4    4    0    0  0.10744732550E+03 -0.25923614818E+02  0.54424034348E+02  0.12320282902E+03  0.00000000000E+00 0. -1.
         21    1    1    2  502  501 -0.23741278027E+02  0.35415764714E+02 -0.18175051680E+02  0.46349295315E+02  0.00000000000E+00 0. -1.
<scales pt_clust_5="13000.00000" pt_clust_6="13000.00000" pt_clust_7="13000.00000" pt_clust_8="13000.00000" pt_clust_9="42.63713"></scales>
<clustering>
<clus scale="   42.637">  2  9  1 -1</clus>
<clus scale="   90.986">  5  6 -1 -1</clus>
<clus scale="   91.373">  7  8 -1 -1</clus>
<clus scale="  167.043">  2  5  1 -1</clus>
<clus scale="  167.255">  1  5  2 -1</clus>
</clustering>
</event>
<event>
 9    1  0.1484717E-005  0.1045160E+03  0.7546771E-02  0.1271838E+00
          1   -1    0    0  502    0  0.00000000000E+00  0.00000000000E+00  0.18112460194E+03  0.18112460194E+03  0.00000000000E+00 0. -1.
         -1   -1    0    0    0  501 -0.00000000000E+00 -0.00000000000E+00 -0.10298406521E+03  0.10298406521E+03  0.00000000000E+00 0.  1.
         23    2    1    2    0    0  0.10859598315E+02 -0.44669054940E+02 -0.32228864349E+02  0.10612736861E+03  0.90061441946E+02 0.  0.
         23    2    1    2    0    0  0.10418732754E+02  0.55129713740E+02  0.11316546687E+03  0.15410640086E+03  0.88286604677E+02 0.  0.
        -11    1    4    4    0    0  0.39301238919E+02  0.63038259411E+02  0.74584744967E+02  0.10526772398E+03  0.00000000000E+00 0. -1.
         11    1    4    4    0    0 -0.28882506165E+02 -0.79085456707E+01  0.38580721905E+02  0.48838676883E+02  0.00000000000E+00 0.  1.
        -13    1    3    3    0    0 -0.21511797784E+02  0.14230222328E+02 -0.29043526695E+02  0.38843057479E+02  0.00000000000E+00 0.  1.
         13    1    3    3    0    0  0.32371396099E+02 -0.58899277267E+02 -0.31853376534E+01  0.67284311128E+02  0.00000000000E+00 0. -1.
         21    1    1    2  502  501 -0.21278331069E+02 -0.10460658801E+02 -0.27960657930E+01  0.23874897686E+02  0.00000000000E+00 0.  1.
<scales pt_clust_5="13000.00000" pt_clust_6="13000.00000" pt_clust_7="13000.00000" pt_clust_8="13000.00000" pt_clust_9="23.71060"></scales>
<clustering>
<clus scale="   23.711">  2  9  1 -1</clus>
<clus scale="   88.287">  5  6 -1 -1</clus>
<clus scale="   90.061">  7  8 -1 -1</clus>
<clus scale="  102.991">  1  5  2 -1</clus>
<clus scale="  102.991">  1  5  2 -1</clus>
</clustering>
</event>
<event>
 9    1  0.1484717E-005  0.9535483E+02  0.7546771E-02  0.1291285E+00
         -1   -1    0    0    0  501 -0.00000000000E+00  0.00000000000E+00  0.12061759056E+03  0.12061759056E+03  0.00000000000E+00 0.  1.
          1   -1    0    0  502    0  0.00000000000E+00 -0.00000000000E+00 -0.32131233196E+03  0.32131233196E+03  0.00000000000E+00 0. -1.
         23    2    1    2    0    0 -0.49360353942E+02 -0.13957193735E+02  0.49618019011E+02  0.11623631007E+03  0.91747938226E+02 0.  0.
         23    2    1    2    0    0  0.15887685217E+02 -0.56345465870E+01 -0.26708204763E+03  0.28343885137E+03  0.93384129508E+02 0.  0.
        -11    1    4    4    0    0  0.35515805035E+01  0.43758060715E+02 -0.11782555413E+03  0.12573878800E+03  0.00000000000E+00 0.  1.
         11    1    4    4    0    0  0.12336104713E+02 -0.49392607302E+02 -0.14925649350E+03  0.15770006337E+03  0.00000000000E+00 0. -1.
        -13    1    3    3    0    0 -0.43240356698E+02  0.23146342005E+02  0.59739116787E+02  0.77293231722E+02  0.00000000000E+00 0.  1.
         13    1    3    3    0    0 -0.61199972445E+01 -0.37103535740E+02 -0.10121097776E+02  0.38943078343E+02  0.00000000000E+00 0. -1.
         21    1    1    2  502  501  0.33472668725E+02  0.19591740322E+02  0.16769287222E+02  0.42254761085E+02  0.00000000000E+00 0. -1.
<scales pt_clust_5="13000.00000" pt_clust_6="13000.00000" pt_clust_7="13000.00000" pt_clust_8="13000.00000" pt_clust_9="38.78474"></scales>
<clustering>
<clus scale="   38.785">  1  9  2 -1</clus>
<clus scale="   91.748">  7  8 -1 -1</clus>
<clus scale="   93.384">  5  6 -1 -1</clus>
<clus scale="   93.753">  1  7  2 -1</clus>
<clus scale="   95.355">  2  5  1 -1</clus>
</clustering>
</event>
<event>
 9    1  0.1484717E-005  0.1183810E+03  0.7546771E-02  0.1247141E+00
          2   -1    0    0  502    0  0.00000000000E+00  0.00000000000E+00  0.14916162780E+03  0.14916162780E+03  0.00000000000E+00 0. -1.
         -2   -1    0    0    0  501 -0.00000000000E+00 -0.00000000000E+00 -0.35172953526E+03  0.35172953526E+03  0.00000000000E+00 0.  1.
         23    2    1    2    0    0  0.20234171807E+02  0.35155215326E+02 -0.35785960040E+02  0.10507237271E+03  0.90079174611E+02 0.  0.
         23    2    1    2    0    0 -0.54902209489E+02 -0.69487075760E+02  0.74838062493E+02  0.14932177480E+03  0.94093307564E+02 0.  0.
        -13    1    4    4    0    0  0.22314707582E+02 -0.25080196548E+02  0.43384948185E+02  0.54856322902E+02  0.00000000000E+00 0.  1.
         13    1    4    4    0    0 -0.77216917071E+02 -0.44406879212E+02  0.31453114308E+02  0.94465451902E+02  0.00000000000E+00 0. -1.
        -13    1    3    3    0    0 -0.29536594485E+02 -0.10404533966E+02 -0.11209271368E+02  0.33261276365E+02  0.00000000000E+00 0. -1.
         13    1    3    3    0    0  0.49770766292E+02  0.45559749293E+02 -0.24576688673E+02  0.71811096350E+02  0.00000000000E+00 0.  1.
         21    1    1    2  502  501  0.34668037682E+02  0.34331860434E+02 -0.24162000992E+03  0.24649701554E+03  0.00000000000E+00 0. -1.
<scales pt_clust_5="13000.00000" pt_clust_6="13000.00000" pt_clust_7="13000.00000" pt_clust_8="13000.00000" pt_clust_9="48.79087"></scales>
<clustering>
<clus scale="   48.791">  2  9  1 -1</clus>
<clus scale="   90.079">  7  8 -1 -1</clus>
<clus scale="   94.093">  5  6 -1 -1</clus>
<clus scale="  115.216">  2  7  1 -1</clus>
<clus scale="  118.381">  1  5  2 -1</clus>
</clustering>
</event>
<event>
 9    1  0.1484717E-005  0.1116405E+03  0.7546771E-02  0.1262449E+00
         -1   -1    0    0    0  501 -0.00000000000E+00  0.00000000000E+00  0.43984874519E+02  0.43984874519E+02  0.00000000000E+00 0.  1.
          1   -1    0    0  502    0  0.00000000000E+00 -0.00000000000E+00 -0.67751046402E+03  0.67751046402E+03  0.00000000000E+00 0. -1.
         23    2    1    2    0    0  0.35695578206E+01 -0.56429983279E+02 -0.10916534820E+03  0.16016472539E+03  0.10265759229E+03 0.  0.
         23    2    1    2    0    0 -0.60753736848E+02 -0.63210593863E+01 -0.35880425677E+03  0.37527549310E+03  0.91434286273E+02 0.  0.
        -13    1    4    4    0    0 -0.52257887714E+02 -0.45614467016E+02 -0.24209910180E+03  0.25184030957E+03  0.00000000000E+00 0.  1.
         13    1    4    4    0    0 -0.84958491348E+01  0.39293407630E+02 -0.11670515497E+03  0.12343518353E+03  0.00000000000E+00 0. -1.
        -13    1    3    3    0    0 -0.40357806080E+02  0.53644230819E+01 -0.46484671064E+02  0.61792832841E+02  0.00000000000E+00 0. -1.
         13    1    3    3    0    0  0.43927363901E+02 -0.61794406361E+02 -0.62680677139E+02  0.98371892548E+02  0.00000000000E+00 0.  1.
         21    1    1    2  502  501  0.57184179028E+02  0.62751042666E+02 -0.16555598452E+03  0.18605512005E+03  0.00000000000E+00 0. -1.
<scales pt_clust_5="13000.00000" pt_clust_6="13000.00000" pt_clust_7="13000.00000" pt_clust_8="13000.00000" pt_clust_9="84.89831"></scales>
<clustering>
<clus scale="   84.898">  2  9  1 -1</clus>
<clus scale="   91.434">  5  6 -1 -1</clus>
<clus scale="  101.416">  2  5  1 -1</clus>
<clus scale="  102.658">  7  8 -1 -1</clus>
<clus scale="   84.898">  2  5  1 -1</clus>
</clustering>
</event>
<event>
 9    1  0.1484717E-005  0.9172562E+02  0.7546771E-02  0.1299626E+00
          1   -1    0    0  502    0  0.00000000000E+00  0.00000000000E+00  0.24881469184E+02  0.24881469184E+02  0.00000000000E+00 0. -1.
         -1   -1    0    0    0  501 -0.00000000000E+00 -0.00000000000E+00 -0.51372019134E+03  0.51372019134E+03  0.00000000000E+00 0.  1.
         23    2    1    2    0    0 -0.11448117012E+02  0.12049494396E+01 -0.16550948496E+03  0.18919387513E+03  0.90930861040E+02 0.  0.
         23    2    1    2    0    0  0.57517396543E+00 -0.19395278679E+02 -0.15682203804E+03  0.18155738670E+03  0.89405958370E+02 0.  0.
        -11    1    4    4    0    0  0.41075700897E+02  0.89454769861E+01 -0.73828412922E+02  0.84958044453E+02  0.00000000000E+00 0.  1.
         11    1    4    4    0    0 -0.40500526931E+02 -0.28340755666E+02 -0.82993625117E+02  0.96599342251E+02  0.00000000000E+00 0. -1.
        -13    1    3    3    0    0  0.32590608545E+02 -0.12678710528E+02 -0.11745399027E+03  0.12254932597E+03  0.00000000000E+00 0.  1.
         13    1    3    3    0    0 -0.44038725557E+02  0.13883659968E+02 -0.48055494691E+02  0.66644549160E+02  0.00000000000E+00 0. -1.
         21    1    1    2  502  501  0.10872943046E+02  0.18190329240E+02 -0.16650719916E+03  0.16785039869E+03  0.00000000000E+00 0.  1.
<scales pt_clust_5="13000.00000" pt_clust_6="13000.00000" pt_clust_7="13000.00000" pt_clust_8="13000.00000" pt_clust_9="21.19219"></scales>
<clustering>
<clus scale="   21.192">  2  9  1 -1</clus>
<clus scale="   89.406">  5  6 -1 -1</clus>
<clus scale="   90.214">  1  5  2 -1</clus>
<clus scale="   90.931">  7  8 -1 -1</clus>
<clus scale="   90.214">  1  5  2 -1</clus>
</clustering>
</event>
<event>
 9    1  0.1484717E-005  0.2561154E+03  0.7546771E-02  0.1109723E+00
         -1   -1    0    0    0  501 -0.00000000000E+00  0.00000000000E+00  0.34914361989E+03  0.34914361989E+03  0.00000000000E+00 0.  1.
          1   -1    0    0  502    0  0.00000000000E+00 -0.00000000000E+00 -0.46678478029E+03  0.46678478029E+03  0.00000000000E+00 0. -1.
         23    2    1    2    0    0  0.27933175995E+02  0.20442451690E+03  0.30425885935E+02  0.22885484682E+03  0.94229299818E+02 0.  0.
         23    2    1    2    0    0 -0.63917403961E+02 -0.24227522318E+03 -0.31481135700E+03  0.41234174239E+03  0.90204233424E+02 0.  0.
        -11    1    4    4    0    0  0.10761132728E+02 -0.65753522122E+02 -0.13003215312E+03  0.14610848194E+03  0.00000000000E+00 0. -1.
         11    1    4    4    0    0 -0.74678536689E+02 -0.17652170106E+03 -0.18477920388E+03  0.26623326046E+03  0.00000000000E+00 0.  1.
        -13    1    3    3    0    0 -0.20823429028E+02  0.67719903741E+02 -0.22547847365E+02  0.74350561397E+02  0.00000000000E+00 0.  1.
         13    1    3    3    0    0  0.48756605024E+02  0.13670461316E+03  0.52973733300E+02  0.15450428542E+03  0.00000000000E+00 0. -1.
         21    1    1    2  502  501  0.35984227965E+02  0.37850706278E+02  0.16674431066E+03  0.17473181097E+03  0.00000000000E+00 0. -1.
<scales pt_clust_5="13000.00000" pt_clust_6="13000.00000" pt_clust_7="13000.00000" pt_clust_8="13000.00000" pt_clust_9="52.22586"></scales>
<clustering>
<clus scale="   52.226">  1  9  2 -1</clus>
<clus scale="   90.204">  5  6 -1 -1</clus>
<clus scale="   94.229">  7  8 -1 -1</clus>
<clus scale="  254.662">  2  5  1 -1</clus>
<clus scale="  254.662">  2  5  1 -1</clus>
</clustering>
</event>
<event>
 9    1  0.1484717E-005  0.1004767E+03  0.7546771E-02  0.1285620E+00
         -4   -1    0    0    0  501 -0.00000000000E+00  0.00000000000E+00  0.37058120357E+02  0.37058120357E+02  0.00000000000E+00 0.  1.
          4   -1    0    0  502    0  0.00000000000E+00 -0.00000000000E+00 -0.47092456163E+03  0.47092456163E+03  0.00000000000E+00 0. -1.
         23    2    1    2    0    0 -0.51022003557E+02  0.79605264123E+01 -0.11598121998E+03  0.14935985296E+03  0.78677235979E+02 0.  0.
         23    2    1    2    0    0  0.37200815052E+02  0.11678196815E+02 -0.31947603116E+03  0.33455551971E+03  0.91335537214E+02 0.  0.
        -13    1    3    3    0    0 -0.38636149763E+02 -0.33184078258E+02 -0.67866260884E+02  0.84851425944E+02  0.00000000000E+00 0.  1.
         13    1    3    3    0    0 -0.12385853794E+02  0.41144604670E+02 -0.48114959092E+02  0.64508427016E+02  0.00000000000E+00 0. -1.
        -13    1    4    4    0    0  0.41703866246E+02  0.37754589675E+02 -0.28795870829E+03  0.29340217992E+03  0.00000000000E+00 0. -1.
         13    1    4    4    0    0 -0.45030511938E+01 -0.26076392860E+02 -0.31517322871E+02  0.41153339787E+02  0.00000000000E+00 0.  1.
         21    1    1    2  502  501  0.13821188505E+02 -0.19638723227E+02  0.15908098690E+01  0.24067309316E+02  0.00000000000E+00 0. -1.
<scales pt_clust_5="13000.00000" pt_clust_6="13000.00000" pt_clust_7="13000.00000" pt_clust_8="13000.00000" pt_clust_9="24.01468"></scales>
<clustering>
<clus scale="   24.015">  1  9  2 -1</clus>
<clus scale="   78.677">  5  6 -1 -1</clus>
<clus scale="   89.126">  1  5  2 -1</clus>
<clus scale="   91.336">  7  8 -1 -1</clus>
<clus scale="  100.477">  2  5  1 -1</clus>
</clustering>
</event>
<event>
 9    1  0.1484717E-005  0.1037027E+03  0.7546771E-02  0.1273192E+00
         -1   -1    0    0    0  501 -0.00000000000E+00  0.00000000000E+00  0.44717229592E+02  0.44717229592E+02  0.00000000000E+00 0.  1.
          1   -1    0    0  502    0  0.00000000000E+00 -0.00000000000E+00 -0.45771261967E+03  0.45771261967E+03  0.00000000000E+00 0. -1.
         23    2    1    2    0    0 -0.13699161819E+02  0.71971362417E+02 -0.15115156955E+03  0.19174421217E+03  0.92474330922E+02 0.  0.
         23    2    1    2    0    0  0.12206978619E+01 -0.35222387191E+02 -0.25241499409E+03  0.27074690889E+03  0.91369867957E+02 0.  0.
        -11    1    4    4    0    0 -0.39852244572E+02 -0.37936465284E+02 -0.16895121339E+03  0.17768480323E+03  0.00000000000E+00 0.  1.
         11    1    4    4    0    0  0.41072942434E+02  0.27140780928E+01 -0.83463780699E+02  0.93062105653E+02  0.00000000000E+00 0. -1.
        -11    1    3    3    0    0  0.33433500250E+02  0.58130076191E+02 -0.70414524114E+02  0.97237389430E+02  0.00000000000E+00 0.  1.
         11    1    3    3    0    0 -0.47132662069E+02  0.13841286226E+02 -0.80737045438E+02  0.94506822739E+02  0.00000000000E+00 0. -1.
         21    1    1    2  502  501  0.12478463957E+02 -0.36748975226E+02 -0.94288264449E+01  0.39938728210E+02  0.00000000000E+00 0. -1.
<scales pt_clust_5="13000.00000" pt_clust_6="13000.00000" pt_clust_7="13000.00000" pt_clust_8="13000.00000" pt_clust_9="38.80978"></scales>
<clustering>
<clus scale="   38.810">  1  9  2 -1</clus>
<clus scale="   91.370">  5  6 -1 -1</clus>
<clus scale="   92.474">  7  8 -1 -1</clus>
<clus scale="  102.719">  2  5  1 -1</clus>
<clus scale="  102.719">  2  5  1 -1</clus>
</clustering>
</event>
<event>
 9    1  0.1484717E-005  0.2008987E+03  0.7546771E-02  0.1149207E+00
         -2   -1    0    0    0  501 -0.00000000000E+00  0.00000000000E+00  0.72215089886E+03  0.72215089886E+03  0.00000000000E+00 0.  1.
          2   -1    0    0  502    0  0.00000000000E+00 -0.00000000000E+00 -0.15663438380E+03  0.15663438380E+03  0.00000000000E+00 0. -1.
         23    2    1    2    0    0  0.16902430208E+03  0.31651969538E+02  0.48250005837E+03  0.52033441134E+03  0.91490608442E+02 0.  0.
         23    2    1    2    0    0 -0.17262467623E+03  0.62458715542E+02 -0.35435064478E+02  0.20712160578E+03  0.89125449766E+02 0.  0.
        -11    1    3    3    0    0  0.10498531010E+03 -0.26501643047E+02  0.26655174576E+03  0.28770485847E+03  0.00000000000E+00 0.  1.
         11    1    3    3    0    0  0.64038991981E+02  0.58153612585E+02  0.21594831261E+03  0.23262955287E+03  0.00000000000E+00 0. -1.
        -13    1    4    4    0    0 -0.72568729358E+02  0.16868305130E+02 -0.58560035534E+02  0.94763062215E+02  0.00000000000E+00 0. -1.
         13    1    4    4    0    0 -0.10005594687E+03  0.45590410411E+02  0.23124971056E+02  0.11235854356E+03  0.00000000000E+00 0.  1.
         21    1    1    2  502  501  0.36003741473E+01 -0.94110685079E+02  0.11845152118E+03  0.15132926554E+03  0.00000000000E+00 0. -1.
<scales pt_clust_5="13000.00000" pt_clust_6="13000.00000" pt_clust_7="13000.00000" pt_clust_8="13000.00000" pt_clust_9="94.17953"></scales>
<clustering>
<clus scale="   89.125">  7  8 -1 -1</clus>
<clus scale="   91.491">  5  6 -1 -1</clus>
<clus scale="   94.180">  1  9  2 -1</clus>
<clus scale="  199.833">  2  7  1 -1</clus>
<clus scale="  199.833">  2  5  1 -1</clus>
</clustering>
</event>
<event>
 9    1  0.1484717E-005  0.9714656E+02  0.7546771E-02  0.1287596E+00
          1   -1    0    0  502    0  0.00000000000E+00  0.00000000000E+00  0.37306403049E+03  0.37306403049E+03  0.00000000000E+00 0. -1.
         -1   -1    0    0    0  501 -0.00000000000E+00 -0.00000000000E+00 -0.35980089829E+02  0.35980089829E+02  0.00000000000E+00 0.  1.
         23    2    1    2    0    0 -0.16038234938E+02  0.24877084533E+02  0.78604654268E+02  0.12427055011E+03  0.91588119514E+02 0.  0.
         23    2    1    2    0    0  0.36426666777E+02 -0.20276644148E+02  0.21627690284E+03  0.23767905480E+03  0.89317355748E+02 0.  0.
        -11    1    3    3    0    0 -0.13494737925E+02 -0.26447214527E+02  0.64464217885E+02  0.70973223792E+02  0.00000000000E+00 0. -1.
         11    1    3    3    0    0 -0.25434970131E+01  0.51324299060E+02  0.14140436383E+02  0.53297326313E+02  0.00000000000E+00 0.  1.
        -13    1    4    4    0    0  0.33561973104E+02 -0.53760519716E+02  0.16050952479E+03  0.17256855758E+03  0.00000000000E+00 0. -1.
         13    1    4    4    0    0  0.28646936724E+01  0.33483875568E+02  0.55767378056E+02  0.65110497219E+02  0.00000000000E+00 0.  1.
         21    1    1    2  502  501 -0.20388431839E+02 -0.46004403845E+01  0.42202383551E+02  0.47094515413E+02  0.00000000000E+00 0. -1.
<scales pt_clust_5="13000.00000" pt_clust_6="13000.00000" pt_clust_7="13000.00000" pt_clust_8="13000.00000" pt_clust_9="20.90101"></scales>
<clustering>
<clus scale="   20.901">  1  9  2 -1</clus>
<clus scale="   89.317">  7  8 -1 -1</clus>
<clus scale="   91.588">  5  6 -1 -1</clus>
<clus scale="   95.009">  1  7  2 -1</clus>
<clus scale="   20.901">  1  5  2 -1</clus>
</clustering>
</event>
<event>
 9    1  0.1484717E-005  0.2395763E+03  0.7546771E-02  0.1120107E+00
          1   -1    0    0  502    0  0.00000000000E+00  0.00000000000E+00  0.20289037634E+04  0.20289037634E+04  0.00000000000E+00 0. -1.
         -1   -1    0    0    0  501 -0.00000000000E+00 -0.00000000000E+00 -0.96427295343E+02  0.96427295343E+02  0.00000000000E+00 0.  1.
         23    2    1    2    0    0  0.28678316017E+03  0.13991058589E+03  0.11398860365E+04  0.11871519954E+04  0.90388775990E+02 0.  0.
         23    2    1    2    0    0 -0.14567632485E+03 -0.91043361424E+02  0.76115665728E+03  0.78557753402E+03  0.90896203155E+02 0.  0.
        -11    1    4    4    0    0 -0.57114077774E+01 -0.41249422469E+02  0.24311353846E+03  0.24665426738E+03  0.00000000000E+00 0. -1.
         11    1    4    4    0    0 -0.13996491708E+03 -0.49793938955E+02  0.51804311882E+03  0.53892326664E+03  0.00000000000E+00 0.  1.
        -11    1    3    3    0    0  0.45977969998E+02  0.62355297368E+02  0.31197796311E+03  0.32145358343E+03  0.00000000000E+00 0.  1.
         11    1    3    3    0    0  0.24080519017E+03  0.77555288524E+02  0.82790807340E+03  0.86569841192E+03  0.00000000000E+00 0. -1.
         21    1    1    2  502  501 -0.14110683532E+03 -0.48867224467E+02  0.31433774253E+02  0.15260152936E+03  0.00000000000E+00 0.  1.
<scales pt_clust_5="13000.00000" pt_clust_6="13000.00000" pt_clust_7="13000.00000" pt_clust_8="13000.00000" pt_clust_9="149.32898"></scales>
<clustering>
<clus scale="   90.389">  7  8 -1 -1</clus>
<clus scale="   90.896">  5  6 -1 -1</clus>
<clus scale="  149.329">  2  9  1 -1</clus>
<clus scale="  239.384">  2  7  1 -1</clus>
<clus scale="  239.576">  1  5  2 -1</clus>
</clustering>
</event>
<event>
 9    1  0.1484717E-005  0.9553247E+02  0.7546771E-02  0.1291469E+00
          2   -1    0    0  502    0  0.00000000000E+00  0.00000000000E+00  0.18489974081E+03  0.18489974081E+03  0.00000000000E+00 0. -1.
         -2   -1    0    0    0  501 -0.00000000000E+00 -0.00000000000E+00 -0.26495913935E+03  0.26495913935E+03  0.00000000000E+00 0.  1.
         23    2    1    2    0    0  0.32268658131E+02  0.27438266289E+02  0.72677366572E+02  0.12245723237E+03  0.88992412000E+02 0.  0.
         23    2    1    2    0    0 -0.81201144631E+01 -0.75993880975E+01  0.61436892583E+02  0.11095976436E+03  0.91727261911E+02 0.  0.
        -13    1    3    3    0    0 -0.52115437481E+01 -0.29726258061E+02  0.23480378875E+02  0.38237923567E+02  0.00000000000E+00 0.  1.
         13    1    3    3    0    0  0.37480201879E+02  0.57164524350E+02  0.49196987696E+02  0.84219308804E+02  0.00000000000E+00 0. -1.
        -13    1    4    4    0    0 -0.29082527658E+02  0.34054693952E+02  0.22034209760E+02  0.49910139199E+02  0.00000000000E+00 0.  1.
         13    1    4    4    0    0  0.20962413195E+02 -0.41654082049E+02  0.39402682823E+02  0.61049625158E+02  0.00000000000E+00 0. -1.
         21    1    1    2  502  501 -0.24148543667E+02 -0.19838878192E+02 -0.21417365770E+03  0.21644188343E+03  0.00000000000E+00 0.  1.
<scales pt_clust_5="13000.00000" pt_clust_6="13000.00000" pt_clust_7="13000.00000" pt_clust_8="13000.00000" pt_clust_9="31.25273"></scales>
<clustering>
<clus scale="   31.253">  2  9  1 -1</clus>
<clus scale="   88.992">  5  6 -1 -1</clus>
<clus scale="   91.727">  7  8 -1 -1</clus>
<clus scale="   92.910">  2  5  1 -1</clus>
<clus scale="   95.532">  1  5  2 -1</clus>
</clustering>
</event>
<event>
 9    1  0.1484717E-005  0.1824307E+03  0.7546771E-02  0.1167675E+00
          2   -1    0    0  502    0  0.00000000000E+00  0.00000000000E+00  0.57312615337E+03  0.57312615337E+03  0.00000000000E+00 0. -1.
         -2   -1    0    0    0  501 -0.00000000000E+00 -0.00000000000E+00 -0.67885713991E+02  0.67885713991E+02  0.00000000000E+00 0.  1.
         23    2    1    2    0    0  0.14065874338E+03  0.40350522609E+02  0.17328932999E+03  0.24473519095E+03  0.91940606037E+02 0.  0.
         23    2    1    2    0    0 -0.13154117725E+03 -0.69713242656E+02  0.30033591729E+03  0.35217656629E+03  0.10799839405E+03 0.  0.
        -13    1    4    4    0    0 -0.97166443498E+02 -0.36374755870E+02  0.92835607526E+02  0.13922245017E+03  0.00000000000E+00 0.  1.
         13    1    4    4    0    0 -0.34374733749E+02 -0.33338486786E+02  0.20750030976E+03  0.21295411612E+03  0.00000000000E+00 0. -1.
        -13    1    3    3    0    0  0.12492951003E+03  0.66669868417E+02  0.13460567571E+03  0.19537385128E+03  0.00000000000E+00 0.  1.
         13    1    3    3    0    0  0.15729233343E+02 -0.26319345808E+02  0.38683654282E+02  0.49361339669E+02  0.00000000000E+00 0. -1.
         21    1    1    2  502  501 -0.91175661298E+01  0.29362720047E+02  0.31615192096E+02  0.44100110112E+02  0.00000000000E+00 0. -1.
<scales pt_clust_5="13000.00000" pt_clust_6="13000.00000" pt_clust_7="13000.00000" pt_clust_8="13000.00000" pt_clust_9="30.74572"></scales>
<clustering>
<clus scale="   30.746">  2  9  1 -1</clus>
<clus scale="   91.941">  7  8 -1 -1</clus>
<clus scale="  107.998">  5  6 -1 -1</clus>
<clus scale="  173.408">  2  7  1 -1</clus>
<clus scale="  182.431">  1  5  2 -1</clus>
</clustering>
</event>
<event>
 9    1  0.1484717E-005  0.1129922E+03  0.7546771E-02  0.1255189E+00
         -1   -1    0    0    0  501 -0.00000000000E+00  0.00000000000E+00  0.11686917252E+03  0.11686917252E+03  0.00000000000E+00 0.  1.
          1   -1    0    0  502    0  0.00000000000E+00 -0.00000000000E+00 -0.28642967926E+03  0.28642967926E+03  0.00000000000E+00 0. -1.
         23    2    1    2    0    0  0.17888217007E+02 -0.28901580570E+02 -0.38020293954E+02  0.10561654037E+03  0.92487951546E+02 0.  0.
         23    2    1    2    0    0 -0.57784141177E+02  0.58698744695E+02 -0.18631755197E+03  0.22365452849E+03  0.92317757437E+02 0.  0.
        -11    1    3    3    0    0 -0.75744456542E+01 -0.57804692273E+02 -0.32377070218E+02  0.66686050652E+02  0.00000000000E+00 0.  1.
         11    1    3    3    0    0  0.25462662661E+02  0.28903111703E+02 -0.56432237364E+01  0.38930489723E+02  0.00000000000E+00 0. -1.
        -11    1    4    4    0    0 -0.26609754666E+02  0.88288608670E+01  0.24946893983E+00  0.28037297701E+02  0.00000000000E+00 0.  1.
         11    1    4    4    0    0 -0.31174386511E+02  0.49869883828E+02 -0.18656702091E+03  0.19561723079E+03  0.00000000000E+00 0. -1.
         21    1    1    2  502  501  0.39895924170E+02 -0.29797164125E+02  0.54777339183E+02  0.74027782915E+02  0.00000000000E+00 0.  1.
<scales pt_clust_5="13000.00000" pt_clust_6="13000.00000" pt_clust_7="13000.00000" pt_clust_8="13000.00000" pt_clust_9="49.79514"></scales>
<clustering>
<clus scale="   49.795">  1  9  2 -1</clus>
<clus scale="   92.318">  7  8 -1 -1</clus>
<clus scale="   92.488">  5  6 -1 -1</clus>
<clus scale="  112.853">  2  7  1 -1</clus>
<clus scale="  112.853">  2  5  1 -1</clus>
</clustering>
</event>
<event>
 9    1  0.1484717E-005  0.1167072E+03  0.7546771E-02  0.1258099E+00
         -2   -1    0    0    0  501 -0.00000000000E+00  0.00000000000E+00  0.16107254744E+03  0.16107254744E+03  0.00000000000E+00 0.  1.
          2   -1    0    0  502    0  0.00000000000E+00 -0.00000000000E+00 -0.15266659152E+03  0.15266659152E+03  0.00000000000E+00 0. -1.
         23    2    1    2    0    0 -0.49247673951E+02 -0.34717232917E+02 -0.18820797436E+02  0.11095703482E+03  0.91250323336E+02 0.  0.
         23    2    1    2    0    0  0.11999613467E+02 -0.92002132865E+01 -0.34473553953E+02  0.11838371545E+03  0.11223922449E+03 0.  0.
        -11    1    3    3    0    0 -0.12054323666E+01  0.19989400089E+02 -0.31230910536E+02  0.37099851159E+02  0.00000000000E+00 0. -1.
         11    1    3    3    0    0 -0.48042241585E+02 -0.54706633005E+02  0.12410113100E+02  0.73857183661E+02  0.00000000000E+00 0.  1.
        -11    1    4    4    0    0 -0.49166812071E+02  0.28862870015E+01 -0.25279737471E+02  0.55360375617E+02  0.00000000000E+00 0. -1.
         11    1    4    4    0    0  0.61166425538E+02 -0.12086500288E+02 -0.91938164818E+01  0.63023339834E+02  0.00000000000E+00 0.  1.
         21    1    1    2  502  501  0.37248060484E+02  0.43917446203E+02  0.61700307309E+02  0.84398388687E+02  0.00000000000E+00 0.  1.
<scales pt_clust_5="13000.00000" pt_clust_6="13000.00000" pt_clust_7="13000.00000" pt_clust_8="13000.00000" pt_clust_9="57.58611"></scales>
<clustering>
<clus scale="   57.586">  1  9  2 -1</clus>
<clus scale="   91.250">  5  6 -1 -1</clus>
<clus scale="   96.693">  1  5  2 -1</clus>
<clus scale="  112.239">  7  8 -1 -1</clus>
<clus scale="  116.707">  2  5  1 -1</clus>
</clustering>
</event>
<event>
 9    1  0.1484717E-005  0.1895296E+03  0.7546771E-02  0.1159311E+00
          1   -1    0    0  502    0  0.00000000000E+00  0.00000000000E+00  0.50589022946E+03  0.50589022946E+03  0.00000000000E+00 0. -1.
         -1   -1    0    0    0  501 -0.00000000000E+00 -0.00000000000E+00 -0.33494770961E+03  0.33494770961E+03  0.00000000000E+00 0.  1.
         23    2    1    2    0    0  0.15154006418E+03  0.51994877803E+02 -0.17975997828E+03  0.25590385201E+03  0.86632980514E+02 0.  0.
         23    2    1    2    0    0 -0.16782364621E+03  0.36413513552E+01  0.43937325978E+03  0.47899519425E+03  0.90606285874E+02 0.  0.
        -11    1    4    4    0    0 -0.44378753431E+02  0.36259758291E+02  0.19540320369E+03  0.20363363141E+03  0.00000000000E+00 0.  1.
         11    1    4    4    0    0 -0.12344489278E+03 -0.32618406935E+02  0.24397005608E+03  0.27536156284E+03  0.00000000000E+00 0. -1.
        -13    1    3    3    0    0  0.99723781337E+02 -0.11016421804E+02 -0.92808857408E+02  0.13667361899E+03  0.00000000000E+00 0.  1.
         13    1    3    3    0    0  0.51816282844E+02  0.63011299607E+02 -0.86951120875E+02  0.11923023303E+03  0.00000000000E+00 0. -1.
         21    1    1    2  502  501  0.16283582029E+02 -0.55636229158E+02 -0.88670761646E+02  0.10593889281E+03  0.00000000000E+00 0.  1.
<scales pt_clust_5="13000.00000" pt_clust_6="13000.00000" pt_clust_7="13000.00000" pt_clust_8="13000.00000" pt_clust_9="57.97021"></scales>
<clustering>
<clus scale="   57.970">  2  9  1 -1</clus>
<clus scale="   86.633">  7  8 -1 -1</clus>
<clus scale="   90.606">  5  6 -1 -1</clus>
<clus scale="  187.663">  2  7  1 -1</clus>
<clus scale="  189.530">  1  5  2 -1</clus>
</clustering>
</event>
<event>
 9    1  0.1484717E-005  0.9262686E+02  0.7546771E-02  0.1298179E+00
          1   -1    0    0  502    0  0.00000000000E+00  0.00000000000E+00  0.37402527812E+02  0.37402527812E+02  0.00000000000E+00 0. -1.
         -1   -1    0    0    0  501 -0.00000000000E+00 -0.00000000000E+00 -0.39593133273E+03  0.39593133273E+03  0.00000000000E+00 0.  1.
         23    2    1    2    0    0  0.23013803289E+02  0.14595399672E+02 -0.14768101248E+03  0.17485831949E+03  0.89571700966E+02 0.  0.
         23    2    1    2    0    0  0.21621820468E+01  0.13714005188E+01 -0.73596604300E+02  0.11802392094E+03  0.92231393679E+02 0.  0.
        -11    1    3    3    0    0  0.53729500923E+02  0.21714211878E+02 -0.11843479089E+03  0.13185281931E+03  0.00000000000E+00 0. -1.
         11    1    3    3    0    0 -0.30715697634E+02 -0.71188122058E+01 -0.29246221592E+02  0.43005500181E+02  0.00000000000E+00 0.  1.
        -13    1    4    4    0    0 -0.37750375430E+02 -0.43709601533E+01 -0.67192883563E+02  0.77195075874E+02  0.00000000000E+00 0.  1.
         13    1    4    4    0    0  0.39912557477E+02  0.57423606721E+01 -0.64037207374E+01  0.40828845070E+02  0.00000000000E+00 0. -1.
         21    1    1    2  502  501 -0.25175985336E+02 -0.15966800191E+02 -0.13725118813E+03  0.14045162010E+03  0.00000000000E+00 0.  1.
<scales pt_clust_5="13000.00000" pt_clust_6="13000.00000" pt_clust_7="13000.00000" pt_clust_8="13000.00000" pt_clust_9="29.81223"></scales>
<clustering>
<clus scale="   29.812">  2  9  1 -1</clus>
<clus scale="   89.572">  5  6 -1 -1</clus>
<clus scale="   89.979">  2  5  1 -1</clus>
<clus scale="   92.231">  7  8 -1 -1</clus>
<clus scale="   92.627">  1  5  2 -1</clus>
</clustering>
</event>
<event>
 9    1  0.1484717E-005  0.1029369E+03  0.7546771E-02  0.1276623E+00
         -1   -1    0    0    0  501 -0.00000000000E+00  0.00000000000E+00  0.51968445585E+02  0.51968445585E+02  0.00000000000E+00 0.  1.
          1   -1    0    0  502    0  0.00000000000E+00 -0.00000000000E+00 -0.29274045420E+03  0.29274045420E+03  0.00000000000E+00 0. -1.
         23    2    1    2    0    0  0.47497162269E+02  0.32336752004E+02 -0.57299729024E+02  0.12234432550E+03  0.91559975326E+02 0.  0.
         23    2    1    2    0    0 -0.30668832210E+02 -0.12755693197E+02 -0.10598868174E+03  0.14069255648E+03  0.86356874733E+02 0.  0.
        -11    1    3    3    0    0  0.29272901675E+02  0.37689569474E+01 -0.77475525885E+02  0.82906965450E+02  0.00000000000E+00 0. -1.
         11    1    3    3    0    0  0.18224260594E+02  0.28567795057E+02  0.20175796861E+02  0.39437360049E+02  0.00000000000E+00 0.  1.
        -13    1    4    4    0    0  0.86391518892E+01 -0.39304787173E+02 -0.26688100148E+02  0.48288258713E+02  0.00000000000E+00 0.  1.
         13    1    4    4    0    0 -0.39307984100E+02  0.26549093976E+02 -0.79300581589E+02  0.92404297764E+02  0.00000000000E+00 0. -1.
         21    1    1    2  502  501 -0.16828330058E+02 -0.19581058807E+02 -0.77483597855E+02  0.81672017810E+02  0.00000000000E+00 0.  1.
<scales pt_clust_5="13000.00000" pt_clust_6="13000.00000" pt_clust_7="13000.00000" pt_clust_8="13000.00000" pt_clust_9="25.81880"></scales>
<clustering>
<clus scale="   25.819">  2  9  1 -1</clus>
<clus scale="   86.357">  7  8 -1 -1</clus>
<clus scale="   91.560">  5  6 -1 -1</clus>
<clus scale="   98.338">  2  7  1 -1</clus>
<clus scale="   25.819">  2  5  1 -1</clus>
</clustering>
</event>
<event>
 9    1  0.1484717E-005  0.3566414E+03  0.7546771E-02  0.1060021E+00
          1   -1    0    0  502    0  0.00000000000E+00  0.00000000000E+00  0.68497474808E+03  0.68497474808E+03  0.00000000000E+00 0. -1.
         -1   -1    0    0    0  501 -0.00000000000E+00 -0.00000000000E+00 -0.23667567669E+03  0.23667567669E+03  0.00000000000E+00 0.  1.
         23    2    1    2    0    0  0.23824794862E+03  0.27433109101E+03  0.10175626982E+03  0.38822170907E+03  0.91335231056E+02 0.  0.
         23    2    1    2    0    0 -0.20796534668E+03 -0.26157773104E+03  0.35775617149E+03  0.49870950148E+03  0.95127250737E+02 0.  0.
        -11    1    4    4    0    0 -0.17692661383E+03 -0.15208919151E+03  0.25063828390E+03  0.34242327347E+03  0.00000000000E+00 0. -1.
         11    1    4    4    0    0 -0.31038732847E+02 -0.10948853953E+03  0.10711788759E+03  0.15628622801E+03  0.00000000000E+00 0.  1.
        -13    1    3    3    0    0  0.23334504236E+02  0.19299493142E+02 -0.16353881789E+02  0.34415388608E+02  0.00000000000E+00 0.  1.
         13    1    3    3    0    0  0.21491344439E+03  0.25503159786E+03  0.11811015161E+03  0.35380632047E+03  0.00000000000E+00 0. -1.
         21    1    1    2  502  501 -0.30282601946E+02 -0.12753359966E+02 -0.11213369920E+02  0.34719214219E+02  0.00000000000E+00 0. -1.
<scales pt_clust_5="13000.00000" pt_clust_6="13000.00000" pt_clust_7="13000.00000" pt_clust_8="13000.00000" pt_clust_9="32.85855"></scales>
<clustering>
<clus scale="   32.859">  2  9  1 -1</clus>
<clus scale="   91.335">  7  8 -1 -1</clus>
<clus scale="   95.127">  5  6 -1 -1</clus>
<clus scale="  355.649">  2  7  1 -1</clus>
<clus scale="  356.641">  1  5  2 -1</clus>
</clustering>
</event>
<event>
 9    1  0.1484717E-005  0.1313493E+03  0.7546771E-02  0.1225971E+00
         -1   -1    0    0    0  501 -0.00000000000E+00  0.00000000000E+00  0.18101563288E+03  0.18101563288E+03  0.00000000000E+00 0.  1.
          1   -1    0    0  502    0  0.00000000000E+00 -0.00000000000E+00 -0.13080749183E+03  0.13080749183E+03  0.00000000000E+00 0. -1.
         23    2    1    2    0    0  0.42272371143E+02  0.78110153377E+02  0.29678782650E+02  0.13079840077E+03  0.91319450731E+02 0.  0.
         23    2    1    2    0    0 -0.65952409276E+02 -0.70406370219E+02 -0.17761429969E+02  0.13534894310E+03  0.93258193993E+02 0.  0.
        -13    1    4    4    0    0 -0.23558540100E+02 -0.41416553974E+01 -0.45935632770E+02  0.51790351216E+02  0.00000000000E+00 0.  1.
         13    1    4    4    0    0 -0.42393869177E+02 -0.66264714822E+02  0.28174202801E+02  0.83558591884E+02  0.00000000000E+00 0. -1.
        -13    1    3    3    0    0  0.66992562007E+02  0.77476202661E+02  0.27020052623E+02  0.10592756292E+03  0.00000000000E+00 0.  1.
         13    1    3    3    0    0 -0.24720190864E+02  0.63395071580E+00  0.26587300272E+01  0.24870837847E+02  0.00000000000E+00 0. -1.
         21    1    1    2  502  501  0.23680038133E+02 -0.77037831576E+01  0.38290788376E+02  0.45675780841E+02  0.00000000000E+00 0.  1.
<scales pt_clust_5="13000.00000" pt_clust_6="13000.00000" pt_clust_7="13000.00000" pt_clust_8="13000.00000" pt_clust_9="24.90166"></scales>
<clustering>
<clus scale="   24.902">  1  9  2 -1</clus>
<clus scale="   91.319">  7  8 -1 -1</clus>
<clus scale="   93.258">  5  6 -1 -1</clus>
<clus scale="  129.980">  1  7  2 -1</clus>
<clus scale="  131.349">  2  5  1 -1</clus>
</clustering>
</event>
<event>
 9    1  0.1484717E-005  0.1015395E+03  0.7546771E-02  0.1278387E+00
         -1   -1    0    0    0  501 -0.00000000000E+00  0.00000000000E+00  0.56022884099E+02  0.56022884099E+02  0.00000000000E+00 0.  1.
          1   -1    0    0  502    0  0.00000000000E+00 -0.00000000000E+00 -0.37295703983E+03  0.37295703983E+03  0.00000000000E+00 0. -1.
         23    2    1    2    0    0 -0.16127991627E+02 -0.17847167767E+02 -0.66712686723E+02  0.11032801569E+03  0.84516595796E+02 0.  0.
         23    2    1    2    0    0  0.62978201027E+02  0.24912419632E+02 -0.24763397907E+03  0.27120135493E+03  0.87411125557E+02 0.  0.
        -11    1    3    3    0    0 -0.12358032141E+02 -0.50662728059E+02 -0.27161682773E+02  0.58797873974E+02  0.00000000000E+00 0. -1.
         11    1    3    3    0    0 -0.37699594860E+01  0.32815560292E+02 -0.39551003950E+02  0.51530141716E+02  0.00000000000E+00 0.  1.
        -11    1    4    4    0    0  0.28961364500E+02 -0.14671870511E+02 -0.19274179524E+03  0.19545696214E+03  0.00000000000E+00 0. -1.
         11    1    4    4    0    0  0.34016836527E+02  0.39584290142E+02 -0.54892183826E+02  0.75744392786E+02  0.00000000000E+00 0.  1.
         21    1    1    2  502  501 -0.46850209400E+02 -0.70652518652E+01 -0.25874899361E+01  0.47450553305E+02  0.00000000000E+00 0.  1.
<scales pt_clust_5="13000.00000" pt_clust_6="13000.00000" pt_clust_7="13000.00000" pt_clust_8="13000.00000" pt_clust_9="47.37995"></scales>
<clustering>
<clus scale="   47.380">  1  9  2 -1</clus>
<clus scale="   84.517">  5  6 -1 -1</clus>
<clus scale="   87.411">  7  8 -1 -1</clus>
<clus scale="   99.059">  1  5  2 -1</clus>
<clus scale="  101.540">  2  5  1 -1</clus>
</clustering>
</event>
<event>
 9    1  0.1484717E-005  0.1918042E+03  0.7546771E-02  0.1156951E+00
         -2   -1    0    0    0  501 -0.00000000000E+00  0.00000000000E+00  0.16086946389E+03  0.16086946389E+03  0.00000000000E+00 0.  1.
          2   -1    0    0  502    0  0.00000000000E+00 -0.00000000000E+00 -0.74972893102E+03  0.74972893102E+03  0.00000000000E+00 0. -1.
         23    2    1    2    0    0 -0.14783811543E+03  0.74352638940E+02 -0.22992734576E+03  0.29748721916E+03  0.90816507012E+02 0.  0.
         23    2    1    2    0    0  0.10953191111E+03 -0.13942152012E+03 -0.45170490269E+03  0.49349464871E+03  0.89800052125E+02 0.  0.
        -11    1    4    4    0    0  0.19408661498E+02  0.75976676747E+01 -0.95444779572E+02  0.97694046097E+02  0.00000000000E+00 0.  1.
         11    1    4    4    0    0  0.90123249610E+02 -0.14701918779E+03 -0.35626012312E+03  0.39580060261E+03  0.00000000000E+00 0. -1.
        -13    1    3    3    0    0 -0.10819471778E+03  0.33549607645E+02 -0.20736219400E+03  0.23628532039E+03  0.00000000000E+00 0.  1.
         13    1    3    3    0    0 -0.39643397650E+02  0.40803031295E+02 -0.22565151759E+02  0.61201898778E+02  0.00000000000E+00 0. -1.
         21    1    1    2  502  501  0.38306204320E+02  0.65068881179E+02  0.92772781326E+02  0.11961652704E+03  0.00000000000E+00 0. -1.
<scales pt_clust_5="13000.00000" pt_clust_6="13000.00000" pt_clust_7="13000.00000" pt_clust_8="13000.00000" pt_clust_9="75.50712"></scales>
<clustering>
<clus scale="   75.507">  1  9  2 -1</clus>
<clus scale="   89.800">  5  6 -1 -1</clus>
<clus scale="   90.817">  7  8 -1 -1</clus>
<clus scale="  191.325">  2  5  1 -1</clus>
<clus scale="  191.325">  2  5  1 -1</clus>
</clustering>
</event>
<event>
 9    1  0.1484717E-005  0.1718670E+03  0.7546771E-02  0.1176140E+00
          2   -1    0    0  502    0  0.00000000000E+00  0.00000000000E+00  0.45924861484E+03  0.45924861484E+03  0.00000000000E+00 0. -1.
         -2   -1    0    0    0  501 -0.00000000000E+00 -0.00000000000E+00 -0.18385195026E+03  0.18385195026E+03  0.00000000000E+00 0.  1.
         23    2    1    2    0    0 -0.97600173685E+02  0.11471817837E+03 -0.10790418141E+03  0.20648510095E+03  0.91141265054E+02 0.  0.
         23    2    1    2    0    0  0.56642221961E+02 -0.94569457744E+02  0.35638304511E+03  0.38362402374E+03  0.89480685661E+02 0.  0.
        -11    1    3    3    0    0 -0.50839700378E+02  0.40474143483E+02 -0.98822643779E+02  0.11827403074E+03  0.00000000000E+00 0.  1.
         11    1    3    3    0    0 -0.46760473307E+02  0.74244034889E+02 -0.90815376280E+01  0.88211070202E+02  0.00000000000E+00 0. -1.
        -13    1    4    4    0    0  0.81150258977E+02 -0.76382517741E+02  0.28226572988E+03  0.30346926667E+03  0.00000000000E+00 0. -1.
         13    1    4    4    0    0 -0.24508037015E+02 -0.18186940004E+02  0.74117315222E+02  0.80154757069E+02  0.00000000000E+00 0.  1.
         21    1    1    2  502  501  0.40957951724E+02 -0.20148720628E+02  0.26917800885E+02  0.52991440411E+02  0.00000000000E+00 0. -1.
<scales pt_clust_5="13000.00000" pt_clust_6="13000.00000" pt_clust_7="13000.00000" pt_clust_8="13000.00000" pt_clust_9="45.64564"></scales>
<clustering>
<clus scale="   45.646">  1  9  2 -1</clus>
<clus scale="   89.481">  7  8 -1 -1</clus>
<clus scale="   91.141">  5  6 -1 -1</clus>
<clus scale="  170.992">  1  7  2 -1</clus>
<clus scale="   45.646">  1  5  2 -1</clus>
</clustering>
</event>
<event>
 9    1  0.1484717E-005  0.1181659E+03  0.7546771E-02  0.1252541E+00
          1   -1    0    0  502    0  0.00000000000E+00  0.00000000000E+00  0.58340418484E+02  0.58340418484E+02  0.00000000000E+00 0. -1.
         -1   -1    0    0    0  501 -0.00000000000E+00 -0.00000000000E+00 -0.44144056063E+03  0.44144056063E+03  0.00000000000E+00 0.  1.
         23    2    1    2    0    0  0.23036024770E+02  0.71471550118E+02 -0.25713247508E+03  0.28801978431E+03  0.10582743262E+03 0.  0.
         23    2    1    2    0    0  0.12512382218E+02 -0.47492042030E+02 -0.29920302276E+02  0.10657658410E+03  0.89728980964E+02 0.  0.
        -13    1    4    4    0    0 -0.33325539552E+02 -0.34910670843E+02 -0.33744102257E+02  0.58889820532E+02  0.00000000000E+00 0.  1.
         13    1    4    4    0    0  0.45837921770E+02 -0.12581371187E+02  0.38237999817E+01  0.47686763566E+02  0.00000000000E+00 0. -1.
        -13    1    3    3    0    0  0.36670012409E+02  0.19750477193E+02 -0.22443168455E+02  0.47312439905E+02  0.00000000000E+00 0. -1.
         13    1    3    3    0    0 -0.13633987638E+02  0.51721072924E+02 -0.23468930663E+03  0.24070734440E+03  0.00000000000E+00 0.  1.
         21    1    1    2  502  501 -0.35548406988E+02 -0.23979508087E+02 -0.96047364788E+02  0.10518461071E+03  0.00000000000E+00 0.  1.
<scales pt_clust_5="13000.00000" pt_clust_6="13000.00000" pt_clust_7="13000.00000" pt_clust_8="13000.00000" pt_clust_9="42.88014"></scales>
<clustering>
<clus scale="   42.880">  2  9  1 -1</clus>
<clus scale="   89.729">  5  6 -1 -1</clus>
<clus scale="  103.995">  1  5  2 -1</clus>
<clus scale="  105.827">  7  8 -1 -1</clus>
<clus scale="  103.995">  1  5  2 -1</clus>
</clustering>
</event>
<event>
 9    1  0.1484717E-005  0.1355934E+03  0.7546771E-02  0.1219878E+00
         -1   -1    0    0    0  501 -0.00000000000E+00  0.00000000000E+00  0.49111119471E+02  0.49111119471E+02  0.00000000000E+00 0.  1.
          1   -1    0    0  502    0  0.00000000000E+00 -0.00000000000E+00 -0.58119977571E+03  0.58119977571E+03  0.00000000000E+00 0. -1.
         23    2    1    2    0    0 -0.59979569127E+02  0.43158698533E+02 -0.11407365750E+03  0.16494950566E+03  0.93462923720E+02 0.  0.
         23    2    1    2    0    0  0.93542372489E+02 -0.58291628285E+02 -0.39901111788E+03  0.42392933888E+03  0.91422769556E+02 0.  0.
        -11    1    3    3    0    0  0.11721076047E+02 -0.20245780665E+02 -0.24069807810E+02  0.33565322975E+02  0.00000000000E+00 0. -1.
         11    1    3    3    0    0 -0.71700645174E+02  0.63404479198E+02 -0.90003849695E+02  0.13138418269E+03  0.00000000000E+00 0.  1.
        -11    1    4    4    0    0  0.93850878040E+02 -0.11940610015E+02 -0.30084654115E+03  0.31537153771E+03  0.00000000000E+00 0.  1.
         11    1    4    4    0    0 -0.30850555033E+00 -0.46351018270E+02 -0.98164576733E+02  0.10855780117E+03  0.00000000000E+00 0. -1.
         21    1    1    2  502  501 -0.33562803362E+02  0.15132929752E+02 -0.19003880854E+02  0.41432050636E+02  0.00000000000E+00 0.  1.
<scales pt_clust_5="13000.00000" pt_clust_6="13000.00000" pt_clust_7="13000.00000" pt_clust_8="13000.00000" pt_clust_9="36.81667"></scales>
<clustering>
<clus scale="   36.817">  1  9  2 -1</clus>
<clus scale="   91.423">  7  8 -1 -1</clus>
<clus scale="   93.463">  5  6 -1 -1</clus>
<clus scale="  134.195">  2  7  1 -1</clus>
<clus scale="  134.195">  2  5  1 -1</clus>
</clustering>
</event>
<event>
 9    1  0.1484717E-005  0.1189258E+03  0.7546771E-02  0.1255572E+00
          2   -1    0    0  502    0  0.00000000000E+00  0.00000000000E+00  0.26735314234E+03  0.26735314234E+03  0.00000000000E+00 0. -1.
         -2   -1    0    0    0  501 -0.00000000000E+00 -0.00000000000E+00 -0.60066500824E+02  0.60066500824E+02  0.00000000000E+00 0.  1.
         23    2    1    2    0    0 -0.21670793467E+02 -0.32123083828E+02  0.77633014682E+02  0.12550723084E+03  0.90684421044E+02 0.  0.
         23    2    1    2    0    0  0.32930556800E+02 -0.63378530163E+00  0.10907291682E+03  0.16162146582E+03  0.11462885228E+03 0.  0.
        -13    1    4    4    0    0 -0.37874880166E+02 -0.11333675176E+02  0.69102110689E+02  0.79611936557E+02  0.00000000000E+00 0.  1.
         13    1    4    4    0    0  0.70805436967E+02  0.10699889875E+02  0.39970806133E+02  0.82009529265E+02  0.00000000000E+00 0. -1.
        -13    1    3    3    0    0 -0.26184804860E+01 -0.24063532457E+02  0.95285805436E+02  0.98312230938E+02  0.00000000000E+00 0. -1.
         13    1    3    3    0    0 -0.19052312981E+02 -0.80595513707E+01 -0.17652790754E+02  0.27194999901E+02  0.00000000000E+00 0.  1.
         21    1    1    2  502  501 -0.11259763334E+02  0.32756869129E+02  0.20580710008E+02  0.40290946501E+02  0.00000000000E+00 0.  1.
<scales pt_clust_5="13000.00000" pt_clust_6="13000.00000" pt_clust_7="13000.00000" pt_clust_8="13000.00000" pt_clust_9="34.63805"></scales>
<clustering>
<clus scale="   34.638">  2  9  1 -1</clus>
<clus scale="   90.684">  7  8 -1 -1</clus>
<clus scale="   96.058">  2  7  1 -1</clus>
<clus scale="  114.629">  5  6 -1 -1</clus>
<clus scale="  118.926">  1  5  2 -1</clus>
</clustering>
</event>
<event>
 9    1  0.1484717E-005  0.1017002E+03  0.7546771E-02  0.1279315E+00
         -1   -1    0    0    0  501 -0.00000000000E+00  0.00000000000E+00  0.69723386756E+02  0.69723386756E+02  0.00000000000E+00 0.  1.
          1   -1    0    0  502    0  0.00000000000E+00 -0.00000000000E+00 -0.31543149428E+03  0.31543149428E+03  0.00000000000E+00 0. -1.
         23    2    1    2    0    0  0.20407060553E+02  0.70851137248E+02 -0.95195869194E+02  0.14777732922E+03  0.85671195561E+02 0.  0.
         23    2    1    2    0    0  0.33203340072E+02 -0.25806498029E+02 -0.13036984554E+03  0.16451596685E+03  0.91108559356E+02 0.  0.
        -11    1    4    4    0    0  0.57368349383E+02 -0.18260534513E+02 -0.44154125550E+02  0.74660306956E+02  0.00000000000E+00 0.  1.
         11    1    4    4    0    0 -0.24165009311E+02 -0.75459635155E+01 -0.86215719993E+02  0.89855659890E+02  0.00000000000E+00 0. -1.
        -13    1    3    3    0    0  0.50689224428E+02  0.29316750547E+02 -0.33452873779E+02  0.67438595031E+02  0.00000000000E+00 0.  1.
         13    1    3    3    0    0 -0.30282163874E+02  0.41534386701E+02 -0.61742995415E+02  0.80338734185E+02  0.00000000000E+00 0. -1.
         21    1    1    2  502  501 -0.53610400626E+02 -0.45044639219E+02 -0.20142392788E+02  0.72861584974E+02  0.00000000000E+00 0. -1.
<scales pt_clust_5="13000.00000" pt_clust_6="13000.00000" pt_clust_7="13000.00000" pt_clust_8="13000.00000" pt_clust_9="70.02210"></scales>
<clustering>
<clus scale="   70.022">  1  9  2 -1</clus>
<clus scale="   85.671">  7  8 -1 -1</clus>
<clus scale="   91.109">  5  6 -1 -1</clus>
<clus scale="   96.859">  1  7  2 -1</clus>
<clus scale="  101.700">  2  5  1 -1</clus>
</clustering>
</event>
<event>
 9    1  0.1484717E-005  0.1023315E+03  0.7546771E-02  0.1277756E+00
         -2   -1    0    0    0  501 -0.00000000000E+00  0.00000000000E+00  0.49800827379E+02  0.49800827379E+02  0.00000000000E+00 0.  1.
          2   -1    0    0  502    0  0.00000000000E+00 -0.00000000000E+00 -0.35973140486E+03  0.35973140486E+03  0.00000000000E+00 0. -1.
         23    2    1    2    0    0 -0.48900999193E+02 -0.47929494563E+01 -0.11060814374E+03  0.14884983076E+03  0.86647738390E+02 0.  0.
         23    2    1    2    0    0  0.41476236751E+02 -0.20839626318E+02 -0.20854570217E+03  0.23244723336E+03  0.91574222138E+02 0.  0.
        -13    1    4    4    0    0  0.13017194038E+02  0.22449164051E+02 -0.10937363773E+02  0.28160934528E+02  0.00000000000E+00 0.  1.
         13    1    4    4    0    0  0.28459042714E+02 -0.43288790369E+02 -0.19760833840E+03  0.20428629883E+03  0.00000000000E+00 0. -1.
        -13    1    3    3    0    0 -0.17916398918E+02 -0.11514015490E+02  0.10439995398E+02  0.23718419146E+02  0.00000000000E+00 0.  1.
         13    1    3    3    0    0 -0.30984600275E+02  0.67210660333E+01 -0.12104813914E+03  0.12513141161E+03  0.00000000000E+00 0. -1.
         21    1    1    2  502  501  0.74247624412E+01  0.25632575774E+02  0.92232684373E+01  0.28235168121E+02  0.00000000000E+00 0. -1.
<scales pt_clust_5="13000.00000" pt_clust_6="13000.00000" pt_clust_7="13000.00000" pt_clust_8="13000.00000" pt_clust_9="26.68625"></scales>
<clustering>
<clus scale="   26.686">  1  9  2 -1</clus>
<clus scale="   86.648">  7  8 -1 -1</clus>
<clus scale="   91.574">  5  6 -1 -1</clus>
<clus scale="   97.948">  1  7  2 -1</clus>
<clus scale="  102.332">  2  5  1 -1</clus>
</clustering>
</event>
<event>
 9    1  0.1484717E-005  0.9446568E+02  0.7546771E-02  0.1293797E+00
         -4   -1    0    0    0  501 -0.00000000000E+00  0.00000000000E+00  0.14361913889E+03  0.14361913889E+03  0.00000000000E+00 0.  1.
          4   -1    0    0  502    0  0.00000000000E+00 -0.00000000000E+00 -0.16775317555E+03  0.16775317555E+03  0.00000000000E+00 0. -1.
         23    2    1    2    0    0 -0.12859427831E+02  0.12113014277E+02  0.48982790331E+02  0.10579944551E+03  0.92098419757E+02 0.  0.
         23    2    1    2    0    0  0.21614014406E+02  0.96932819674E+01 -0.12090087498E+03  0.15232371323E+03  0.89578829568E+02 0.  0.
        -11    1    4    4    0    0  0.14144098359E+02  0.47049080722E+02 -0.92741247042E+02  0.10495051414E+03  0.00000000000E+00 0.  1.
         11    1    4    4    0    0  0.74699160467E+01 -0.37355798755E+02 -0.28159627936E+02  0.47373199088E+02  0.00000000000E+00 0. -1.
        -13    1    3    3    0    0 -0.25340137216E+02  0.46696435535E+02  0.13756090002E+02  0.54880867868E+02  0.00000000000E+00 0.  1.
         13    1    3    3    0    0  0.12480709385E+02 -0.34583421258E+02  0.35226700329E+02  0.50918577638E+02  0.00000000000E+00 0. -1.
         21    1    1    2  502  501 -0.87545865746E+01 -0.21806296244E+02  0.47784047985E+02  0.53249155710E+02  0.00000000000E+00 0. -1.
<scales pt_clust_5="13000.00000" pt_clust_6="13000.00000" pt_clust_7="13000.00000" pt_clust_8="13000.00000" pt_clust_9="23.49803"></scales>
<clustering>
<clus scale="   23.498">  1  9  2 -1</clus>
<clus scale="   89.579">  5  6 -1 -1</clus>
<clus scale="   92.011">  2  5  1 -1</clus>
<clus scale="   92.098">  7  8 -1 -1</clus>
<clus scale="   92.011">  2  5  1 -1</clus>
</clustering>
</event>
<event>
 9    1  0.1484717E-005  0.1013499E+03  0.7546771E-02  0.1278848E+00
          1   -1    0    0  502    0  0.00000000000E+00  0.00000000000E+00  0.36566117727E+02  0.36566117727E+02  0.00000000000E+00 0. -1.
         -1   -1    0    0    0  501 -0.00000000000E+00 -0.00000000000E+00 -0.43342240644E+03  0.43342240644E+03  0.00000000000E+00 0.  1.
         23    2    1    2    0    0  0.53234310162E+02 -0.44518491425E+01 -0.25957146657E+03  0.28030582047E+03  0.91325221002E+02 0.  0.
         23    2    1    2    0    0 -0.31003648713E+02 -0.81601859259E+01 -0.82440677406E+02  0.12917529962E+03  0.94138078757E+02 0.  0.
        -11    1    3    3    0    0  0.63085538979E+02  0.14301359347E+02 -0.24773305477E+03  0.25603902151E+03  0.00000000000E+00 0.  1.
         11    1    3    3    0    0 -0.98512288166E+01 -0.18753208489E+02 -0.11838411797E+02  0.24266798959E+02  0.00000000000E+00 0. -1.
        -13    1    4    4    0    0 -0.20740951283E+02  0.39535746630E+02 -0.17506970840E+02  0.47955774936E+02  0.00000000000E+00 0.  1.
         13    1    4    4    0    0 -0.10262697430E+02 -0.47695932556E+02 -0.64933706566E+02  0.81219524680E+02  0.00000000000E+00 0. -1.
         21    1    1    2  502  501 -0.22230661449E+02  0.12612035068E+02 -0.54844144738E+02  0.60507404085E+02  0.00000000000E+00 0. -1.
<scales pt_clust_5="13000.00000" pt_clust_6="13000.00000" pt_clust_7="13000.00000" pt_clust_8="13000.00000" pt_clust_9="25.55906"></scales>
<clustering>
<clus scale="   25.559">  2  9  1 -1</clus>
<clus scale="   91.325">  5  6 -1 -1</clus>
<clus scale="   94.138">  7  8 -1 -1</clus>
<clus scale="   98.743">  2  5  1 -1</clus>
<clus scale="  101.350">  1  5  2 -1</clus>
</clustering>
</event>
<event>
 9    1  0.1484717E-005  0.1403003E+03  0.7546771E-02  0.1213482E+00
         -1   -1    0    0    0  501 -0.00000000000E+00  0.00000000000E+00  0.83107611273E+02  0.83107611273E+02  0.00000000000E+00 0.  1.
          1   -1    0    0  502    0  0.00000000000E+00 -0.00000000000E+00 -0.35960561486E+03  0.35960561486E+03  0.00000000000E+00 0. -1.
         23    2    1    2    0    0 -0.94670439214E+02 -0.15474619272E+02 -0.29013207045E+02  0.13641975255E+03  0.92556073809E+02 0.  0.
         23    2    1    2    0    0  0.10927423286E+03 -0.43998225043E+01 -0.24292679462E+03  0.28121281159E+03  0.90038888583E+02 0.  0.
        -11    1    3    3    0    0 -0.54451797450E+02  0.15195719547E+02  0.25534128679E+02  0.62031442555E+02  0.00000000000E+00 0.  1.
         11    1    3    3    0    0 -0.40218641764E+02 -0.30670338818E+02 -0.54547335724E+02  0.74388309990E+02  0.00000000000E+00 0. -1.
        -11    1    4    4    0    0  0.11373519102E+03  0.18148018259E+02 -0.22214094281E+03  0.25022318581E+03  0.00000000000E+00 0. -1.
         11    1    4    4    0    0 -0.44609581693E+01 -0.22547840763E+02 -0.20785851805E+02  0.30989625782E+02  0.00000000000E+00 0.  1.
         21    1    1    2  502  501 -0.14603793641E+02  0.19874441776E+02 -0.45580019275E+01  0.25080661997E+02  0.00000000000E+00 0. -1.
<scales pt_clust_5="13000.00000" pt_clust_6="13000.00000" pt_clust_7="13000.00000" pt_clust_8="13000.00000" pt_clust_9="24.66301"></scales>
<clustering>
<clus scale="   24.663">  1  9  2 -1</clus>
<clus scale="   90.039">  7  8 -1 -1</clus>
<clus scale="   92.556">  5  6 -1 -1</clus>
<clus scale="  138.653">  2  7  1 -1</clus>
<clus scale="  138.653">  2  5  1 -1</clus>
</clustering>
</event>
<event>
 9    1  0.1484717E-005  0.9380420E+02  0.7546771E-02  0.1294105E+00
         -1   -1    0    0    0  501 -0.00000000000E+00  0.00000000000E+00  0.73509787927E+02  0.73509787927E+02  0.00000000000E+00 0.  1.
          1   -1    0    0  502    0  0.00000000000E+00 -0.00000000000E+00 -0.24027095773E+03  0.24027095773E+03  0.00000000000E+00 0. -1.
         23    2    1    2    0    0  0.19844967245E+02 -0.15430324403E+02 -0.16945393433E+02  0.96982602149E+02  0.92122533209E+02 0.  0.
         23    2    1    2    0    0  0.89064064803E+01  0.15496891543E+02 -0.16051604318E+03  0.18612011176E+03  0.92497665714E+02 0.  0.
        -11    1    3    3    0    0  0.45081905196E+02 -0.39833712710E+02 -0.13906257034E+02  0.61745338521E+02  0.00000000000E+00 0. -1.
         11    1    3    3    0    0 -0.25236937951E+02  0.24403388307E+02 -0.30391363992E+01  0.35237263629E+02  0.00000000000E+00 0.  1.
        -13    1    4    4    0    0  0.37766406040E+02  0.46054680110E+01 -0.14803178950E+03  0.15284280312E+03  0.00000000000E+00 0. -1.
         13    1    4    4    0    0 -0.28859999559E+02  0.10891423532E+02 -0.12484253672E+02  0.33277308648E+02  0.00000000000E+00 0.  1.
         21    1    1    2  502  501 -0.28751373725E+02 -0.66567139578E-01  0.10700266801E+02  0.30678031747E+02  0.00000000000E+00 0.  1.
<scales pt_clust_5="13000.00000" pt_clust_6="13000.00000" pt_clust_7="13000.00000" pt_clust_8="13000.00000" pt_clust_9="28.75145"></scales>
<clustering>
<clus scale="   28.751">  1  9  2 -1</clus>
<clus scale="   92.123">  5  6 -1 -1</clus>
<clus scale="   92.498">  7  8 -1 -1</clus>
<clus scale="   93.434">  1  5  2 -1</clus>
<clus scale="   93.804">  2  5  1 -1</clus>
</clustering>
</event>
<event>
 9    1  0.1484717E-005  0.9974645E+02  0.7546771E-02  0.1282101E+00
         -1   -1    0    0    0  501 -0.00000000000E+00  0.00000000000E+00  0.57121913348E+02  0.57121913348E+02  0.00000000000E+00 0.  1.
          1   -1    0    0  502    0  0.00000000000E+00 -0.00000000000E+00 -0.44229050724E+03  0.44229050724E+03  0.00000000000E+00 0. -1.
         23    2    1    2    0    0  0.38853332999E+01 -0.87749787019E+01 -0.12681906818E+02  0.94178343975E+02  0.92825824248E+02 0.  0.
         23    2    1    2    0    0 -0.41238392022E+02 -0.11549638740E+02 -0.33128806955E+03  0.34602540195E+03  0.90265135203E+02 0.  0.
        -13    1    4    4    0    0 -0.36364104271E+02  0.36209449356E+02 -0.18977521948E+03  0.19659121605E+03  0.00000000000E+00 0.  1.
         13    1    4    4    0    0 -0.48742877502E+01 -0.47759088097E+02 -0.14151285008E+03  0.14943418589E+03  0.00000000000E+00 0. -1.
        -13    1    3    3    0    0  0.77844366356E+01  0.32103592241E+02  0.22611496947E+02  0.40031461161E+02  0.00000000000E+00 0.  1.
         13    1    3    3    0    0 -0.38991033358E+01 -0.40878570943E+02 -0.35293403765E+02  0.54146882814E+02  0.00000000000E+00 0. -1.
         21    1    1    2  502  501  0.37353058722E+02  0.20324617442E+02 -0.41198617520E+02  0.59208674665E+02  0.00000000000E+00 0. -1.
<scales pt_clust_5="13000.00000" pt_clust_6="13000.00000" pt_clust_7="13000.00000" pt_clust_8="13000.00000" pt_clust_9="42.52459"></scales>
<clustering>
<clus scale="   42.525">  1  9  2 -1</clus>
<clus scale="   90.265">  5  6 -1 -1</clus>
<clus scale="   92.826">  7  8 -1 -1</clus>
<clus scale="   97.368">  2  5  1 -1</clus>
<clus scale="   97.368">  2  5  1 -1</clus>
</clustering>
</event>
<event>
 9    1  0.1484717E-005  0.9707186E+02  0.7546771E-02  0.1286688E+00
          1   -1    0    0  502    0  0.00000000000E+00  0.00000000000E+00  0.29457089415E+03  0.29457089415E+03  0.00000000000E+00 0. -1.
         -1   -1    0    0    0  501 -0.00000000000E+00 -0.00000000000E+00 -0.13091865869E+03  0.13091865869E+03  0.00000000000E+00 0.  1.
         23    2    1    2    0    0  0.30392548782E+02  0.29849192828E+01 -0.87559329573E+02  0.13027831338E+03  0.91505114485E+02 0.  0.
         23    2    1    2    0    0 -0.47649618905E+02  0.26823005367E+02  0.23287766470E+03  0.25619264462E+03  0.91720797234E+02 0.  0.
        -13    1    4    4    0    0 -0.66108368449E+02  0.43930867586E+02  0.19680117016E+03  0.21220494358E+03  0.00000000000E+00 0. -1.
         13    1    4    4    0    0  0.18458749544E+02 -0.17107862219E+02  0.36076494541E+02  0.43987701040E+02  0.00000000000E+00 0.  1.
        -13    1    3    3    0    0  0.68188937487E+01  0.45602985039E+02 -0.54626535737E+02  0.71485578707E+02  0.00000000000E+00 0.  1.
         13    1    3    3    0    0  0.23573655033E+02 -0.42618065756E+02 -0.32932793836E+02  0.58792734672E+02  0.00000000000E+00 0. -1.
         21    1    1    2  502  501  0.17257070123E+02 -0.29807924650E+02  0.18333900332E+02  0.39018594830E+02  0.00000000000E+00 0. -1.
<scales pt_clust_5="13000.00000" pt_clust_6="13000.00000" pt_clust_7="13000.00000" pt_clust_8="13000.00000" pt_clust_9="34.44298"></scales>
<clustering>
<clus scale="   34.443">  1  9  2 -1</clus>
<clus scale="   91.505">  7  8 -1 -1</clus>
<clus scale="   91.721">  5  6 -1 -1</clus>
<clus scale="   96.868">  2  7  1 -1</clus>
<clus scale="   34.443">  1  5  2 -1</clus>
</clustering>
</event>
<event>
 9    1  0.1484717E-005  0.9713136E+02  0.7546771E-02  0.1290448E+00
         -1   -1    0    0    0  501 -0.00000000000E+00  0.00000000000E+00  0.20118302332E+03  0.20118302332E+03  0.00000000000E+00 0.  1.
          1   -1    0    0  502    0  0.00000000000E+00 -0.00000000000E+00 -0.69059241707E+02  0.69059241707E+02  0.00000000000E+00 0. -1.
         23    2    1    2    0    0 -0.40142096357E+01 -0.11949004368E+02  0.55403739229E+02  0.10973971797E+03  0.93884710123E+02 0.  0.
         23    2    1    2    0    0 -0.36219338754E+02  0.22431432973E+02  0.38087146931E+02  0.10374763241E+03  0.86590592934E+02 0.  0.
        -11    1    3    3    0    0  0.27901635625E+02 -0.41390480765E+02  0.20233462884E+02  0.53861546476E+02  0.00000000000E+00 0. -1.
         11    1    3    3    0    0 -0.31915845261E+02  0.29441476397E+02  0.35170276345E+02  0.55878171493E+02  0.00000000000E+00 0.  1.
        -13    1    4    4    0    0  0.26198016323E+02 -0.72271078544E+01  0.13952937316E+02  0.30549167042E+02  0.00000000000E+00 0. -1.
         13    1    4    4    0    0 -0.62417355076E+02  0.29658540827E+02  0.24134209614E+02  0.73198465369E+02  0.00000000000E+00 0.  1.
         21    1    1    2  502  501  0.40233548389E+02 -0.10482428605E+02  0.38632895449E+02  0.56754914644E+02  0.00000000000E+00 0. -1.
<scales pt_clust_5="13000.00000" pt_clust_6="13000.00000" pt_clust_7="13000.00000" pt_clust_8="13000.00000" pt_clust_9="41.57667"></scales>
<clustering>
<clus scale="   41.577">  1  9  2 -1</clus>
<clus scale="   86.591">  7  8 -1 -1</clus>
<clus scale="   90.100">  2  7  1 -1</clus>
<clus scale="   93.885">  5  6 -1 -1</clus>
<clus scale="   90.100">  2  5  1 -1</clus>
</clustering>
</event>
<event>
 9    1  0.1484717E-005  0.1500708E+03  0.7546771E-02  0.1201243E+00
         -1   -1    0    0    0  501 -0.00000000000E+00  0.00000000000E+00  0.13401538534E+03  0.13401538534E+03  0.00000000000E+00 0.  1.
          1   -1    0    0  502    0  0.00000000000E+00 -0.00000000000E+00 -0.47010506120E+03  0.47010506120E+03  0.00000000000E+00 0. -1.
         23    2    1    2    0    0 -0.75699047757E+02 -0.60006548665E+02  0.51698920862E+02  0.14119233058E+03  0.89058206147E+02 0.  0.
         23    2    1    2    0    0  0.10322781887E+03  0.62043878011E+02 -0.40336477148E+03  0.43123267197E+03  0.93557752803E+02 0.  0.
        -11    1    4    4    0    0 -0.73452097569E+01  0.23645657514E+02 -0.25040871378E+02  0.35215258979E+02  0.00000000000E+00 0.  1.
         11    1    4    4    0    0  0.11057302863E+03  0.38398220497E+02 -0.37832390010E+03  0.39601741299E+03  0.00000000000E+00 0. -1.
        -13    1    3    3    0    0 -0.53480359258E+02 -0.74642894447E+02  0.63952357404E+02  0.11190002026E+03  0.00000000000E+00 0.  1.
         13    1    3    3    0    0 -0.22218688499E+02  0.14636345782E+02 -0.12253436542E+02  0.29292310315E+02  0.00000000000E+00 0. -1.
         21    1    1    2  502  501 -0.27528771116E+02 -0.20373293458E+01  0.15576174762E+02  0.31695443998E+02  0.00000000000E+00 0.  1.
<scales pt_clust_5="13000.00000" pt_clust_6="13000.00000" pt_clust_7="13000.00000" pt_clust_8="13000.00000" pt_clust_9="27.60406"></scales>
<clustering>
<clus scale="   27.604">  1  9  2 -1</clus>
<clus scale="   89.058">  7  8 -1 -1</clus>
<clus scale="   93.558">  5  6 -1 -1</clus>
<clus scale="  147.308">  1  7  2 -1</clus>
<clus scale="  150.071">  2  5  1 -1</clus>
</clustering>
</event>
<event>
 9    1  0.1484717E-005  0.9987026E+02  0.7546771E-02  0.1281443E+00
         -1   -1    0    0    0  501 -0.00000000000E+00  0.00000000000E+00  0.72998188558E+02  0.72998188558E+02  0.00000000000E+00 0.  1.
          1   -1    0    0  502    0  0.00000000000E+00 -0.00000000000E+00 -0.48346006144E+03  0.48346006144E+03  0.00000000000E+00 0. -1.
         23    2    1    2    0    0 -0.30333082020E+02  0.34913061455E+02 -0.82076390937E+02  0.13128817160E+03  0.91438680698E+02 0.  0.
         23    2    1    2    0    0 -0.64105535766E+02 -0.66658694673E+01 -0.30428375285E+03  0.32369372780E+03  0.89638572274E+02 0.  0.
        -11    1    3    3    0    0 -0.47653162619E+02  0.56974683459E+02 -0.62646389593E+02  0.97167425570E+02  0.00000000000E+00 0.  1.
         11    1    3    3    0    0  0.17320080599E+02 -0.22061622004E+02 -0.19430001343E+02  0.34120746029E+02  0.00000000000E+00 0. -1.
        -13    1    4    4    0    0  0.11728832451E+02 -0.29053599498E+02 -0.85432369664E+02  0.90996521586E+02  0.00000000000E+00 0.  1.
         13    1    4    4    0    0 -0.75834368217E+02  0.22387730031E+02 -0.21885138318E+03  0.23269720621E+03  0.00000000000E+00 0. -1.
         21    1    1    2  502  501  0.94438617786E+02 -0.28247191988E+02 -0.24101729095E+02  0.10147635059E+03  0.00000000000E+00 0.  1.
<scales pt_clust_5="13000.00000" pt_clust_6="13000.00000" pt_clust_7="13000.00000" pt_clust_8="13000.00000" pt_clust_9="98.57259"></scales>
<clustering>
<clus scale="   89.639">  7  8 -1 -1</clus>
<clus scale="   91.439">  5  6 -1 -1</clus>
<clus scale="   98.573">  1  9  2 -1</clus>
<clus scale="   98.225">  2  7  1 -1</clus>
<clus scale="   98.225">  2  5  1 -1</clus>
</clustering>
</event>
<event>
 9    1  0.1484717E-005  0.9848958E+02  0.7546771E-02  0.1285887E+00
          1   -1    0    0  502    0  0.00000000000E+00  0.00000000000E+00  0.44016188796E+03  0.44016188796E+03  0.00000000000E+00 0. -1.
         -1   -1    0    0    0  501 -0.00000000000E+00 -0.00000000000E+00 -0.10051413725E+03  0.10051413725E+03  0.00000000000E+00 0.  1.
         23    2    1    2    0    0 -0.32580399762E+02  0.56800854681E+01  0.12121684339E+03  0.15741055456E+03  0.94819901633E+02 0.  0.
         23    2    1    2    0    0  0.21998506270E+01 -0.32019273101E+02  0.28765998574E+03  0.30320676800E+03  0.90310594996E+02 0.  0.
        -11    1    3    3    0    0 -0.47315722804E+02 -0.33471102903E+02  0.61578489637E+02  0.84563601744E+02  0.00000000000E+00 0. -1.
         11    1    3    3    0    0  0.14735323042E+02  0.39151188371E+02  0.59638353754E+02  0.72846952816E+02  0.00000000000E+00 0.  1.
        -13    1    4    4    0    0  0.19031647551E+02 -0.43587798061E+02  0.27520513284E+03  0.27928473802E+03  0.00000000000E+00 0. -1.
         13    1    4    4    0    0 -0.16831796924E+02  0.11568524960E+02  0.12454852902E+02  0.23922029977E+02  0.00000000000E+00 0.  1.
         21    1    1    2  502  501  0.30380549135E+02  0.26339187633E+02 -0.69229078426E+02  0.80058702654E+02  0.00000000000E+00 0.  1.
<scales pt_clust_5="13000.00000" pt_clust_6="13000.00000" pt_clust_7="13000.00000" pt_clust_8="13000.00000" pt_clust_9="40.20859"></scales>
<clustering>
<clus scale="   40.209">  2  9  1 -1</clus>
<clus scale="   90.311">  7  8 -1 -1</clus>
<clus scale="   94.156">  1  7  2 -1</clus>
<clus scale="   94.820">  5  6 -1 -1</clus>
<clus scale="   94.156">  1  5  2 -1</clus>
</clustering>
</event>
<event>
 9    1  0.1484717E-005  0.1602158E+03  0.7546771E-02  0.1189449E+00
          2   -1    0    0  502    0  0.00000000000E+00  0.00000000000E+00  0.44688844056E+03  0.44688844056E+03  0.00000000000E+00 0. -1.
         -2   -1    0    0    0  501 -0.00000000000E+00 -0.00000000000E+00 -0.21497799544E+03  0.21497799544E+03  0.00000000000E+00 0.  1.
         23    2    1    2    0    0 -0.95242256426E+02  0.10317231651E+03  0.45567324519E+02  0.17237618921E+03  0.89003119275E+02 0.  0.
         23    2    1    2    0    0  0.73493826645E+02 -0.10222923829E+03  0.31857058966E+03  0.35548283219E+03  0.95019280496E+02 0.  0.
        -13    1    4    4    0    0 -0.19646108478E+01 -0.57726287185E+02  0.19927056699E+03  0.20747275194E+03  0.00000000000E+00 0.  1.
         13    1    4    4    0    0  0.75458437493E+02 -0.44502951108E+02  0.11930002267E+03  0.14801008025E+03  0.00000000000E+00 0. -1.
        -13    1    3    3    0    0  0.11968527238E+02  0.40111545805E+02  0.10987760936E+02  0.43277160738E+02  0.00000000000E+00 0. -1.
         13    1    3    3    0    0 -0.10721078366E+03  0.63060770705E+02  0.34579563583E+02  0.12909902848E+03  0.00000000000E+00 0.  1.
         21    1    1    2  502  501  0.21748429781E+02 -0.94307821730E+00 -0.13222746906E+03  0.13400741460E+03  0.00000000000E+00 0.  1.
<scales pt_clust_5="13000.00000" pt_clust_6="13000.00000" pt_clust_7="13000.00000" pt_clust_8="13000.00000" pt_clust_9="21.76887"></scales>
<clustering>
<clus scale="   21.769">  2  9  1 -1</clus>
<clus scale="   89.003">  7  8 -1 -1</clus>
<clus scale="   95.019">  5  6 -1 -1</clus>
<clus scale="  156.723">  2  7  1 -1</clus>
<clus scale="  160.216">  1  5  2 -1</clus>
</clustering>
</event>
<event>
 9    1  0.1484717E-005  0.1861254E+03  0.7546771E-02  0.1162208E+00
         -2   -1    0    0    0  501 -0.00000000000E+00  0.00000000000E+00  0.31607070295E+03  0.31607070295E+03  0.00000000000E+00 0.  1.
          2   -1    0    0  502    0  0.00000000000E+00 -0.00000000000E+00 -0.13952348959E+03  0.13952348959E+03  0.00000000000E+00 0. -1.
         23    2    1    2    0    0  0.70960408585E+02 -0.14679563205E+03  0.10237485125E+03  0.21283511781E+03  0.90740509311E+02 0.  0.
         23    2    1    2    0    0 -0.92253923091E+02  0.13228228480E+03  0.25481391060E+02  0.18766949613E+03  0.92526478863E+02 0.  0.
        -11    1    3    3    0    0  0.11547833544E+02 -0.83063143650E+02  0.77713487719E+01  0.84221328381E+02  0.00000000000E+00 0. -1.
         11    1    3    3    0    0  0.59412575042E+02 -0.63732488400E+02  0.94603502477E+02  0.12861378943E+03  0.00000000000E+00 0.  1.
        -11    1    4    4    0    0 -0.60316407016E+02  0.20196456894E+02 -0.13021429961E+02  0.64927062652E+02  0.00000000000E+00 0.  1.
         11    1    4    4    0    0 -0.31937516075E+02  0.11208582790E+03  0.38502821021E+02  0.12274243348E+03  0.00000000000E+00 0. -1.
         21    1    1    2  502  501  0.21293514506E+02  0.14513347254E+02  0.48690971052E+02  0.55089578602E+02  0.00000000000E+00 0.  1.
<scales pt_clust_5="13000.00000" pt_clust_6="13000.00000" pt_clust_7="13000.00000" pt_clust_8="13000.00000" pt_clust_9="25.76919"></scales>
<clustering>
<clus scale="   25.769">  1  9  2 -1</clus>
<clus scale="   90.741">  5  6 -1 -1</clus>
<clus scale="   92.526">  7  8 -1 -1</clus>
<clus scale="  185.244">  1  5  2 -1</clus>
<clus scale="  186.125">  2  5  1 -1</clus>
</clustering>
</event>
<event>
 9    1  0.1484717E-005  0.9378971E+02  0.7546771E-02  0.1294326E+00
          1   -1    0    0  502    0  0.00000000000E+00  0.00000000000E+00  0.52391875598E+03  0.52391875598E+03  0.00000000000E+00 0. -1.
         -1   -1    0    0    0  501 -0.00000000000E+00 -0.00000000000E+00 -0.54547318877E+02  0.54547318877E+02  0.00000000000E+00 0.  1.
         23    2    1    2    0    0  0.25355166272E+02 -0.12128760253E+02  0.17249724334E+02  0.95374255720E+02  0.89491364850E+02 0.  0.
         23    2    1    2    0    0  0.18927819442E+02  0.46186567867E+02  0.36753069690E+03  0.38171846441E+03  0.90214807571E+02 0.  0.
        -11    1    3    3    0    0  0.48641450865E+02 -0.13420808615E+02  0.38775300313E+02  0.63636724935E+02  0.00000000000E+00 0. -1.
         11    1    3    3    0    0 -0.23286284593E+02  0.12920483623E+01 -0.21525575979E+02  0.31737530785E+02  0.00000000000E+00 0.  1.
        -11    1    4    4    0    0 -0.34801833636E+02  0.23868048296E+02  0.19907354537E+03  0.20349724278E+03  0.00000000000E+00 0. -1.
         11    1    4    4    0    0  0.53729653078E+02  0.22318519571E+02  0.16845715154E+03  0.17822122163E+03  0.00000000000E+00 0.  1.
         21    1    1    2  502  501 -0.44282985715E+02 -0.34057807614E+02  0.84591015864E+02  0.10137335472E+03  0.00000000000E+00 0. -1.
<scales pt_clust_5="13000.00000" pt_clust_6="13000.00000" pt_clust_7="13000.00000" pt_clust_8="13000.00000" pt_clust_9="55.86517"></scales>
<clustering>
<clus scale="   55.865">  1  9  2 -1</clus>
<clus scale="   89.491">  5  6 -1 -1</clus>
<clus scale="   90.215">  7  8 -1 -1</clus>
<clus scale="   93.094">  2  5  1 -1</clus>
<clus scale="   55.865">  1  5  2 -1</clus>
</clustering>
</event>
<event>
 9    1  0.1484717E-005  0.9426409E+02  0.7546771E-02  0.1295393E+00
         -1   -1    0    0    0  501 -0.00000000000E+00  0.00000000000E+00  0.87075350316E+02  0.87075350316E+02  0.00000000000E+00 0.  1.
          1   -1    0    0  502    0  0.00000000000E+00 -0.00000000000E+00 -0.17686798745E+03  0.17686798745E+03  0.00000000000E+00 0. -1.
         23    2    1    2    0    0  0.32679914465E+00  0.57684139136E+01 -0.13515574553E+02  0.87766474015E+02  0.86526884890E+02 0.  0.
         23    2    1    2    0    0 -0.28394170768E+02  0.32075808664E+02 -0.80505241915E+02  0.12887104981E+03  0.91058042302E+02 0.  0.
        -11    1    3    3    0    0 -0.27090381117E+02 -0.19252434264E+02  0.19119475128E+02  0.38341874020E+02  0.00000000000E+00 0. -1.
         11    1    3    3    0    0  0.27417180262E+02  0.25020848177E+02 -0.32635049682E+02  0.49424599996E+02  0.00000000000E+00 0.  1.
        -13    1    4    4    0    0  0.19962342343E+02 -0.20143432542E+02 -0.31920837887E+02  0.42698862723E+02  0.00000000000E+00 0.  1.
         13    1    4    4    0    0 -0.48356513111E+02  0.52219241206E+02 -0.48584404028E+02  0.86172187085E+02  0.00000000000E+00 0. -1.
         21    1    1    2  502  501  0.28067371623E+02 -0.37844222577E+02  0.42281793336E+01  0.47305813943E+02  0.00000000000E+00 0.  1.
<scales pt_clust_5="13000.00000" pt_clust_6="13000.00000" pt_clust_7="13000.00000" pt_clust_8="13000.00000" pt_clust_9="47.11648"></scales>
<clustering>
<clus scale="   47.116">  1  9  2 -1</clus>
<clus scale="   86.527">  5  6 -1 -1</clus>
<clus scale="   89.895">  1  5  2 -1</clus>
<clus scale="   91.058">  7  8 -1 -1</clus>
<clus scale="   94.264">  2  5  1 -1</clus>
</clustering>
</event>
<event>
 9    1  0.1484717E-005  0.1468542E+03  0.7546771E-02  0.1207830E+00
         -2   -1    0    0    0  501 -0.00000000000E+00  0.00000000000E+00  0.10767524928E+03  0.10767524928E+03  0.00000000000E+00 0.  1.
          2   -1    0    0  502    0  0.00000000000E+00 -0.00000000000E+00 -0.25728610234E+03  0.25728610234E+03  0.00000000000E+00 0. -1.
         23    2    1    2    0    0 -0.67113960913E+02  0.10604464847E+03 -0.28150129980E+02  0.15727145746E+03  0.90510387780E+02 0.  0.
         23    2    1    2    0    0  0.80732498516E+02 -0.77736695173E+02 -0.11386091240E+03  0.17537021117E+03  0.72316481531E+02 0.  0.
        -11    1    3    3    0    0 -0.54317178230E+02  0.23139555928E+02 -0.41720767880E+02  0.72293964976E+02  0.00000000000E+00 0. -1.
         11    1    3    3    0    0 -0.12796782682E+02  0.82905092540E+02  0.13570637900E+02  0.84977492485E+02  0.00000000000E+00 0.  1.
        -11    1    4    4    0    0  0.46522720562E+02 -0.43409940937E+01 -0.67398377679E+02  0.82010664380E+02  0.00000000000E+00 0.  1.
         11    1    4    4    0    0  0.34209777954E+02 -0.73395701079E+02 -0.46462534717E+02  0.93359546790E+02  0.00000000000E+00 0. -1.
         21    1    1    2  502  501 -0.13618537603E+02 -0.28307953295E+02 -0.75998106871E+01  0.32319682992E+02  0.00000000000E+00 0. -1.
<scales pt_clust_5="13000.00000" pt_clust_6="13000.00000" pt_clust_7="13000.00000" pt_clust_8="13000.00000" pt_clust_9="31.41345"></scales>
<clustering>
<clus scale="   31.413">  1  9  2 -1</clus>
<clus scale="   72.316">  7  8 -1 -1</clus>
<clus scale="   90.510">  5  6 -1 -1</clus>
<clus scale="  136.395">  2  7  1 -1</clus>
<clus scale="  136.395">  2  5  1 -1</clus>
</clustering>
</event>
<event>
 9    1  0.1484717E-005  0.9255282E+02  0.7546771E-02  0.1305887E+00
          2   -1    0    0  502    0  0.00000000000E+00  0.00000000000E+00  0.22212931599E+03  0.22212931599E+03  0.00000000000E+00 0. -1.
         -2   -1    0    0    0  501 -0.00000000000E+00 -0.00000000000E+00 -0.82058509764E+02  0.82058509764E+02  0.00000000000E+00 0.  1.
         23    2    1    2    0    0  0.13384968153E+02  0.34446945346E+02  0.95421497746E+02  0.13731093403E+03  0.91560258605E+02 0.  0.
         23    2    1    2    0    0  0.18429637061E+02  0.48983530367E+01  0.73849702531E+02  0.10845699252E+03  0.77107037801E+02 0.  0.
        -11    1    3    3    0    0 -0.38002449140E+02  0.64565068714E+01  0.50553910776E+02  0.63573347532E+02  0.00000000000E+00 0.  1.
         11    1    3    3    0    0  0.51387417293E+02  0.27990438474E+02  0.44867586970E+02  0.73737586498E+02  0.00000000000E+00 0. -1.
        -13    1    4    4    0    0  0.12662815041E+02  0.28611022951E+02  0.77689259503E+02  0.83752961507E+02  0.00000000000E+00 0. -1.
         13    1    4    4    0    0  0.57668220195E+01 -0.23712669915E+02 -0.38395569720E+01  0.24704031016E+02  0.00000000000E+00 0.  1.
         21    1    1    2  502  501 -0.31814605213E+02 -0.39345298382E+02 -0.29200394053E+02  0.58419899200E+02  0.00000000000E+00 0.  1.
<scales pt_clust_5="13000.00000" pt_clust_6="13000.00000" pt_clust_7="13000.00000" pt_clust_8="13000.00000" pt_clust_9="50.59863"></scales>
<clustering>
<clus scale="   50.599">  2  9  1 -1</clus>
<clus scale="   77.107">  7  8 -1 -1</clus>
<clus scale="   78.283">  1  7  2 -1</clus>
<clus scale="   91.560">  5  6 -1 -1</clus>
<clus scale="   78.283">  1  5  2 -1</clus>
</clustering>
</event>
<event>
 9    1  0.1484717E-005  0.1784688E+03  0.7546771E-02  0.1169972E+00
          1   -1    0    0  502    0  0.00000000000E+00  0.00000000000E+00  0.60378598466E+03  0.60378598466E+03  0.00000000000E+00 0. -1.
         -1   -1    0    0    0  501 -0.00000000000E+00 -0.00000000000E+00 -0.63562027235E+02  0.63562027235E+02  0.00000000000E+00 0.  1.
         23    2    1    2    0    0  0.10059422957E+03 -0.11311770312E+03  0.22943230872E+03  0.28874562392E+03  0.88430974586E+02 0.  0.
         23    2    1    2    0    0 -0.84806438064E+02  0.13449185780E+03  0.30092069484E+03  0.35025552608E+03  0.82737399136E+02 0.  0.
        -11    1    3    3    0    0  0.56377287688E+02 -0.48913694852E+02  0.41761846709E+02  0.85527772985E+02  0.00000000000E+00 0.  1.
         11    1    3    3    0    0  0.44216941880E+02 -0.64204008268E+02  0.18767046201E+03  0.20321785094E+03  0.00000000000E+00 0. -1.
        -13    1    4    4    0    0 -0.42504675696E+02  0.12498624185E+03  0.19184888697E+03  0.23288238134E+03  0.00000000000E+00 0. -1.
         13    1    4    4    0    0 -0.42301762368E+02  0.95056159531E+01  0.10907180788E+03  0.11737314474E+03  0.00000000000E+00 0.  1.
         21    1    1    2  502  501 -0.15787791503E+02 -0.21374154684E+02  0.98709538653E+01  0.28346861894E+02  0.00000000000E+00 0.  1.
<scales pt_clust_5="13000.00000" pt_clust_6="13000.00000" pt_clust_7="13000.00000" pt_clust_8="13000.00000" pt_clust_9="26.57271"></scales>
<clustering>
<clus scale="   26.573">  2  9  1 -1</clus>
<clus scale="   82.737">  7  8 -1 -1</clus>
<clus scale="   88.431">  5  6 -1 -1</clus>
<clus scale="  175.717">  1  7  2 -1</clus>
<clus scale="  175.717">  1  5  2 -1</clus>
</clustering>
</event>
<event>
 9    1  0.1484717E-005  0.1121838E+03  0.7546771E-02  0.1256583E+00
         -2   -1    0    0    0  501 -0.00000000000E+00  0.00000000000E+00  0.74470006844E+02  0.74470006844E+02  0.00000000000E+00 0.  1.
          2   -1    0    0  502    0  0.00000000000E+00 -0.00000000000E+00 -0.59956007848E+03  0.59956007848E+03  0.00000000000E+00 0. -1.
         23    2    1    2    0    0  0.42674385598E+02 -0.10054350852E+02 -0.10182749730E+03  0.14359838328E+03  0.91265893503E+02 0.  0.
         23    2    1    2    0    0 -0.60784718849E+02  0.41459028264E+02 -0.46243372349E+03  0.47705926666E+03  0.91252190189E+02 0.  0.
        -13    1    3    3    0    0  0.24466026648E+02 -0.36576301671E+02 -0.84159301766E+01  0.44802234148E+02  0.00000000000E+00 0.  1.
         13    1    3    3    0    0  0.18208358950E+02  0.26521950820E+02 -0.93411567121E+02  0.98796149130E+02  0.00000000000E+00 0. -1.
        -13    1    4    4    0    0  0.15532048572E+02  0.36260959616E+02 -0.19228308773E+03  0.19628776720E+03  0.00000000000E+00 0.  1.
         13    1    4    4    0    0 -0.76316767421E+02  0.51980686478E+01 -0.27015063576E+03  0.28077149946E+03  0.00000000000E+00 0. -1.
         21    1    1    2  502  501  0.18110333251E+02 -0.31404677412E+02  0.39171149148E+02  0.53372435390E+02  0.00000000000E+00 0.  1.
<scales pt_clust_5="13000.00000" pt_clust_6="13000.00000" pt_clust_7="13000.00000" pt_clust_8="13000.00000" pt_clust_9="36.25242"></scales>
<clustering>
<clus scale="   36.252">  1  9  2 -1</clus>
<clus scale="   91.252">  7  8 -1 -1</clus>
<clus scale="   91.266">  5  6 -1 -1</clus>
<clus scale="  112.173">  2  7  1 -1</clus>
<clus scale="  112.173">  2  5  1 -1</clus>
</clustering>
</event>
<event>
 9    1  0.1484717E-005  0.2089090E+03  0.7546771E-02  0.1142463E+00
         -1   -1    0    0    0  501 -0.00000000000E+00  0.00000000000E+00  0.12161645710E+03  0.12161645710E+03  0.00000000000E+00 0.  1.
          1   -1    0    0  502    0  0.00000000000E+00 -0.00000000000E+00 -0.70104491124E+03  0.70104491124E+03  0.00000000000E+00 0. -1.
         23    2    1    2    0    0 -0.17186157427E+03  0.37218770546E+02 -0.84703851399E+02  0.21576363237E+03  0.91965020628E+02 0.  0.
         23    2    1    2    0    0  0.19076637269E+03 -0.17742905902E+02 -0.52494676178E+03  0.56627656410E+03  0.91615635601E+02 0.  0.
        -13    1    3    3    0    0 -0.10229194825E+03  0.57827352939E+02 -0.21329873742E+02  0.11942616522E+03  0.00000000000E+00 0.  1.
         13    1    3    3    0    0 -0.69569626019E+02 -0.20608582393E+02 -0.63373977658E+02  0.96337467150E+02  0.00000000000E+00 0. -1.
        -13    1    4    4    0    0  0.63526502610E+02  0.37341240309E+02 -0.18655086962E+03  0.20057719640E+03  0.00000000000E+00 0.  1.
         13    1    4    4    0    0  0.12723987008E+03 -0.55084146212E+02 -0.33839589216E+03  0.36569936770E+03  0.00000000000E+00 0. -1.
         21    1    1    2  502  501 -0.18904798427E+02 -0.19475864644E+02  0.30222159035E+02  0.40621171868E+02  0.00000000000E+00 0. -1.
<scales pt_clust_5="13000.00000" pt_clust_6="13000.00000" pt_clust_7="13000.00000" pt_clust_8="13000.00000" pt_clust_9="27.14223"></scales>
<clustering>
<clus scale="   27.142">  1  9  2 -1</clus>
<clus scale="   91.616">  7  8 -1 -1</clus>
<clus scale="   91.965">  5  6 -1 -1</clus>
<clus scale="  208.755">  2  7  1 -1</clus>
<clus scale="  208.755">  2  5  1 -1</clus>
</clustering>
</event>
<event>
 9    1  0.1484717E-005  0.1199867E+03  0.7546771E-02  0.1243616E+00
          1   -1    0    0  502    0  0.00000000000E+00  0.00000000000E+00  0.25106758181E+03  0.25106758181E+03  0.00000000000E+00 0. -1.
         -1   -1    0    0    0  501 -0.00000000000E+00 -0.00000000000E+00 -0.37282815683E+03  0.37282815683E+03  0.00000000000E+00 0.  1.
         23    2    1    2    0    0 -0.25794044772E+02 -0.37503200833E+02  0.19431910694E+02  0.10272727453E+03  0.90019281054E+02 0.  0.
         23    2    1    2    0    0  0.86757484700E+02  0.46472418122E+02  0.16271644126E+03  0.21107553648E+03  0.91595278523E+02 0.  0.
        -11    1    4    4    0    0  0.35917474261E+02 -0.74113966598E+01  0.52435177216E+01  0.37047108333E+02  0.00000000000E+00 0.  1.
         11    1    4    4    0    0  0.50840010439E+02  0.53883814781E+02  0.15747292354E+03  0.17402842815E+03  0.00000000000E+00 0. -1.
        -11    1    3    3    0    0  0.30819196692E+02 -0.31182262249E+02  0.66215139142E+01  0.44339607691E+02  0.00000000000E+00 0. -1.
         11    1    3    3    0    0 -0.56613241464E+02 -0.63209385837E+01  0.12810396780E+02  0.58387666842E+02  0.00000000000E+00 0.  1.
         21    1    1    2  502  501 -0.60963439928E+02 -0.89692172886E+01 -0.30390892697E+03  0.31009292762E+03  0.00000000000E+00 0.  1.
<scales pt_clust_5="13000.00000" pt_clust_6="13000.00000" pt_clust_7="13000.00000" pt_clust_8="13000.00000" pt_clust_9="61.61970"></scales>
<clustering>
<clus scale="   61.620">  2  9  1 -1</clus>
<clus scale="   90.019">  7  8 -1 -1</clus>
<clus scale="   91.595">  5  6 -1 -1</clus>
<clus scale="  118.788">  2  7  1 -1</clus>
<clus scale="  119.987">  1  5  2 -1</clus>
</clustering>
</event>
<event>
 9    1  0.1484717E-005  0.1846224E+03  0.7546771E-02  0.1163570E+00
         -1   -1    0    0    0  501 -0.00000000000E+00  0.00000000000E+00  0.41740045880E+03  0.41740045880E+03  0.00000000000E+00 0.  1.
          1   -1    0    0  502    0  0.00000000000E+00 -0.00000000000E+00 -0.53350619172E+03  0.53350619172E+03  0.00000000000E+00 0. -1.
         23    2    1    2    0    0 -0.28696187511E+02  0.11141957633E+03  0.45095468738E+01  0.14630802931E+03  0.90265775687E+02 0.  0.
         23    2    1    2    0    0 -0.30714464899E+02 -0.17290027823E+03 -0.43543092226E+03  0.47838030312E+03  0.91704644297E+02 0.  0.
        -13    1    4    4    0    0  0.23125381814E+02 -0.14761591111E+02 -0.34784336403E+02  0.44301669440E+02  0.00000000000E+00 0.  1.
         13    1    4    4    0    0 -0.53839846713E+02 -0.15813868712E+03 -0.40064658586E+03  0.43407863368E+03  0.00000000000E+00 0. -1.
        -13    1    3    3    0    0 -0.53643294258E+02  0.10843381496E+03  0.61145182066E+01  0.12113167455E+03  0.00000000000E+00 0.  1.
         13    1    3    3    0    0  0.24947106747E+02  0.29857613654E+01 -0.16049713327E+01  0.25176354759E+02  0.00000000000E+00 0. -1.
         21    1    1    2  502  501  0.59410652410E+02  0.61480701897E+02  0.31481564246E+03  0.32621831810E+03  0.00000000000E+00 0.  1.
<scales pt_clust_5="13000.00000" pt_clust_6="13000.00000" pt_clust_7="13000.00000" pt_clust_8="13000.00000" pt_clust_9="85.49563"></scales>
<clustering>
<clus scale="   85.496">  1  9  2 -1</clus>
<clus scale="   90.266">  7  8 -1 -1</clus>
<clus scale="   91.705">  5  6 -1 -1</clus>
<clus scale="  183.912">  1  7  2 -1</clus>
<clus scale="  184.622">  2  5  1 -1</clus>
</clustering>
</event>
<event>
 9    1  0.1484717E-005  0.9517806E+02  0.7546771E-02  0.1292010E+00
         -2   -1    0    0    0  501 -0.00000000000E+00  0.00000000000E+00  0.17599939548E+03  0.17599939548E+03  0.00000000000E+00 0.  1.
          2   -1    0    0  502    0  0.00000000000E+00 -0.00000000000E+00 -0.14893923599E+03  0.14893923599E+03  0.00000000000E+00 0. -1.
         23    2    1    2    0    0 -0.51958339446E+02  0.25130231871E+02  0.36923827725E+02  0.11328075217E+03  0.90210654396E+02 0.  0.
         23    2    1    2    0    0  0.12150076217E+02  0.17379246500E+02 -0.77441380152E+02  0.12244744986E+03  0.92447542184E+02 0.  0.
        -11    1    4    4    0    0  0.73389323186E+01  0.37474747117E+02 -0.90346511302E+02  0.98085211441E+02  0.00000000000E+00 0. -1.
         11    1    4    4    0    0  0.48111438980E+01 -0.20095500617E+02  0.12905131150E+02  0.24362238416E+02  0.00000000000E+00 0.  1.
        -11    1    3    3    0    0 -0.15184894809E+02  0.51017135223E+02 -0.27647041727E+01  0.53300775847E+02  0.00000000000E+00 0. -1.
         11    1    3    3    0    0 -0.36773444637E+02 -0.25886903351E+02  0.39688531898E+02  0.59979976324E+02  0.00000000000E+00 0.  1.
         21    1    1    2  502  501  0.39808263229E+02 -0.42509478371E+02  0.67577711922E+02  0.89210429443E+02  0.00000000000E+00 0.  1.
<scales pt_clust_5="13000.00000" pt_clust_6="13000.00000" pt_clust_7="13000.00000" pt_clust_8="13000.00000" pt_clust_9="58.23876"></scales>
<clustering>
<clus scale="   58.239">  1  9  2 -1</clus>
<clus scale="   90.211">  7  8 -1 -1</clus>
<clus scale="   92.448">  5  6 -1 -1</clus>
<clus scale="   93.007">  1  7  2 -1</clus>
<clus scale="   95.178">  2  5  1 -1</clus>
</clustering>
</event>
<event>
 9    1  0.1484717E-005  0.1014952E+03  0.7546771E-02  0.1284354E+00
         -1   -1    0    0    0  501 -0.00000000000E+00  0.00000000000E+00  0.22627102827E+02  0.22627102827E+02  0.00000000000E+00 0.  1.
          1   -1    0    0  502    0  0.00000000000E+00 -0.00000000000E+00 -0.60102888574E+03  0.60102888574E+03  0.00000000000E+00 0. -1.
         23    2    1    2    0    0  0.96943532633E+01 -0.15384475327E+02 -0.25915318419E+03  0.27841482524E+03  0.10011882675E+03 0.  0.
         23    2    1    2    0    0 -0.20705005550E+02 -0.45554688231E+01 -0.30613667178E+03  0.31895887909E+03  0.86980774853E+02 0.  0.
        -11    1    4    4    0    0  0.11976781590E+02 -0.39693335855E+02 -0.14860315233E+03  0.15427864756E+03  0.00000000000E+00 0. -1.
         11    1    4    4    0    0 -0.32681787140E+02  0.35137867032E+02 -0.15753351944E+03  0.16468023153E+03  0.00000000000E+00 0.  1.
        -11    1    3    3    0    0 -0.12209782218E+02  0.20645618341E+02 -0.10451502997E+02  0.26163987719E+02  0.00000000000E+00 0.  1.
         11    1    3    3    0    0  0.21904135481E+02 -0.36030093668E+02 -0.24870168119E+03  0.25225083752E+03  0.00000000000E+00 0. -1.
         21    1    1    2  502  501  0.11010652286E+02  0.19939944150E+02 -0.13111926948E+02  0.26282284238E+02  0.00000000000E+00 0.  1.
<scales pt_clust_5="13000.00000" pt_clust_6="13000.00000" pt_clust_7="13000.00000" pt_clust_8="13000.00000" pt_clust_9="22.77797"></scales>
<clustering>
<clus scale="   22.778">  1  9  2 -1</clus>
<clus scale="   86.981">  5  6 -1 -1</clus>
<clus scale="   88.562">  2  5  1 -1</clus>
<clus scale="  100.119">  7  8 -1 -1</clus>
<clus scale="   88.562">  2  5  1 -1</clus>
</clustering>
</event>
<event>
 9    1  0.1484717E-005  0.1679784E+03  0.7546771E-02  0.1182900E+00
         -1   -1    0    0    0  501 -0.00000000000E+00  0.00000000000E+00  0.24593269379E+03  0.24593269379E+03  0.00000000000E+00 0.  1.
          1   -1    0    0  502    0  0.00000000000E+00 -0.00000000000E+00 -0.46444018467E+03  0.46444018467E+03  0.00000000000E+00 0. -1.
         23    2    1    2    0    0  0.96847826502E+02 -0.11625983094E+03 -0.18777752836E+03  0.25195826853E+03  0.72984375955E+02 0.  0.
         23    2    1    2    0    0 -0.10182610881E+03  0.81914746205E+02 -0.21633740807E+03  0.26959063903E+03  0.93801153709E+02 0.  0.
        -11    1    3    3    0    0  0.73994720044E+02 -0.12008554358E+03 -0.17720464417E+03  0.22648894517E+03  0.00000000000E+00 0.  1.
         11    1    3    3    0    0  0.22853106458E+02  0.38257126373E+01 -0.10572884192E+02  0.25469323354E+02  0.00000000000E+00 0. -1.
        -13    1    4    4    0    0  0.99388198592E+01  0.35468611430E+02 -0.30537896077E+02  0.47847315847E+02  0.00000000000E+00 0.  1.
         13    1    4    4    0    0 -0.11176492867E+03  0.46446134775E+02 -0.18579951200E+03  0.22174332318E+03  0.00000000000E+00 0. -1.
         21    1    1    2  502  501  0.49782823107E+01  0.34345084738E+02  0.18560744556E+03  0.18882397090E+03  0.00000000000E+00 0.  1.
<scales pt_clust_5="13000.00000" pt_clust_6="13000.00000" pt_clust_7="13000.00000" pt_clust_8="13000.00000" pt_clust_9="34.70401"></scales>
<clustering>
<clus scale="   34.704">  1  9  2 -1</clus>
<clus scale="   72.984">  5  6 -1 -1</clus>
<clus scale="   93.801">  7  8 -1 -1</clus>
<clus scale="  157.305">  1  5  2 -1</clus>
<clus scale="  167.978">  2  5  1 -1</clus>
</clustering>
</event>
<event>
 9    1  0.1484717E-005  0.9527660E+02  0.7546771E-02  0.1291793E+00
          1   -1    0    0  502    0  0.00000000000E+00  0.00000000000E+00  0.88165019307E+02  0.88165019307E+02  0.00000000000E+00 0. -1.
         -1   -1    0    0    0  501 -0.00000000000E+00 -0.00000000000E+00 -0.14654439266E+03  0.14654439266E+03  0.00000000000E+00 0.  1.
         23    2    1    2    0    0 -0.29337429905E+02  0.58310911388E+01 -0.18930086093E+02  0.99195247740E+02  0.92664246597E+02 0.  0.
         23    2    1    2    0    0  0.10741391664E+02 -0.15850461970E+02 -0.19164506726E+01  0.92445448755E+02  0.90420537340E+02 0.  0.
        -13    1    3    3    0    0 -0.61647340455E+02  0.81066401099E+01 -0.23527832708E+02  0.66480607029E+02  0.00000000000E+00 0.  1.
         13    1    3    3    0    0  0.32309910550E+02 -0.22755489711E+01  0.45977466146E+01  0.32714640710E+02  0.00000000000E+00 0. -1.
        -13    1    4    4    0    0 -0.23263206220E+02  0.22436274694E+02  0.18590033377E+02  0.37284749251E+02  0.00000000000E+00 0. -1.
         13    1    4    4    0    0  0.34004597884E+02 -0.38286736664E+02 -0.20506484050E+02  0.55160699504E+02  0.00000000000E+00 0.  1.
         21    1    1    2  502  501  0.18596038241E+02  0.10019370832E+02 -0.37532836592E+02  0.43068715476E+02  0.00000000000E+00 0. -1.
<scales pt_clust_5="13000.00000" pt_clust_6="13000.00000" pt_clust_7="13000.00000" pt_clust_8="13000.00000" pt_clust_9="21.12346"></scales>
<clustering>
<clus scale="   21.123">  2  9  1 -1</clus>
<clus scale="   90.421">  7  8 -1 -1</clus>
<clus scale="   92.664">  5  6 -1 -1</clus>
<clus scale="   93.096">  1  7  2 -1</clus>
<clus scale="   93.096">  1  5  2 -1</clus>
</clustering>
</event>
<event>
 9    1  0.1484717E-005  0.9872162E+02  0.7546771E-02  0.1284111E+00
          1   -1    0    0  502    0  0.00000000000E+00  0.00000000000E+00  0.36762386118E+02  0.36762386118E+02  0.00000000000E+00 0. -1.
         -1   -1    0    0    0  501 -0.00000000000E+00 -0.00000000000E+00 -0.36389220593E+03  0.36389220593E+03  0.00000000000E+00 0.  1.
         23    2    1    2    0    0  0.29135997281E+02  0.11020658034E+02 -0.12756056266E+03  0.16151871181E+03  0.94054430406E+02 0.  0.
         23    2    1    2    0    0 -0.30749845487E+02  0.93455801347E+01 -0.10841356912E+03  0.14571881742E+03  0.91910711654E+02 0.  0.
        -13    1    3    3    0    0 -0.19711539718E+02 -0.50201647180E+01  0.35857746882E+01  0.20654409504E+02  0.00000000000E+00 0.  1.
         13    1    3    3    0    0  0.48847536999E+02  0.16040822752E+02 -0.13114633735E+03  0.14086430231E+03  0.00000000000E+00 0. -1.
        -13    1    4    4    0    0  0.10420504514E+02 -0.17956675843E+02  0.55658336736E+01  0.21494362660E+02  0.00000000000E+00 0. -1.
         13    1    4    4    0    0 -0.41170350001E+02  0.27302255978E+02 -0.11397940279E+03  0.12422445476E+03  0.00000000000E+00 0.  1.
         21    1    1    2  502  501  0.16138482054E+01 -0.20366238169E+02 -0.91155688035E+02  0.93417062811E+02  0.00000000000E+00 0. -1.
<scales pt_clust_5="13000.00000" pt_clust_6="13000.00000" pt_clust_7="13000.00000" pt_clust_8="13000.00000" pt_clust_9="20.43008"></scales>
<clustering>
<clus scale="   20.430">  2  9  1 -1</clus>
<clus scale="   91.911">  7  8 -1 -1</clus>
<clus scale="   94.054">  5  6 -1 -1</clus>
<clus scale="   96.681">  1  7  2 -1</clus>
<clus scale="   96.681">  1  5  2 -1</clus>
</clustering>
</event>
<event>
 9    1  0.1484717E-005  0.9928903E+02  0.7546771E-02  0.1282994E+00
          2   -1    0    0  502    0  0.00000000000E+00  0.00000000000E+00  0.41682823786E+03  0.41682823786E+03  0.00000000000E+00 0. -1.
         -2   -1    0    0    0  501 -0.00000000000E+00 -0.00000000000E+00 -0.52155863434E+02  0.52155863434E+02  0.00000000000E+00 0.  1.
         23    2    1    2    0    0 -0.98508019089E+01  0.97669829149E+01  0.69645016744E+02  0.11751764938E+03  0.93635128588E+02 0.  0.
         23    2    1    2    0    0  0.33409915679E+02 -0.20895071224E+02  0.30707069485E+03  0.32276265145E+03  0.91271523848E+02 0.  0.
        -11    1    4    4    0    0  0.64829070907E+02 -0.12448013430E+02  0.18476734415E+03  0.19620584328E+03  0.00000000000E+00 0. -1.
         11    1    4    4    0    0 -0.31419155228E+02 -0.84470577938E+01  0.12230335070E+03  0.12655680817E+03  0.00000000000E+00 0.  1.
        -11    1    3    3    0    0 -0.18754092638E+02 -0.11136278330E+02 -0.17182712743E+02  0.27766496051E+02  0.00000000000E+00 0.  1.
         11    1    3    3    0    0  0.89032907295E+01  0.20903261245E+02  0.86827729488E+02  0.89751153332E+02  0.00000000000E+00 0. -1.
         21    1    1    2  502  501 -0.23559113770E+02  0.11128088309E+02 -0.12043337168E+02  0.28703800466E+02  0.00000000000E+00 0.  1.
<scales pt_clust_5="13000.00000" pt_clust_6="13000.00000" pt_clust_7="13000.00000" pt_clust_8="13000.00000" pt_clust_9="26.05506"></scales>
<clustering>
<clus scale="   26.055">  2  9  1 -1</clus>
<clus scale="   91.272">  5  6 -1 -1</clus>
<clus scale="   93.635">  7  8 -1 -1</clus>
<clus scale="   97.063">  1  5  2 -1</clus>
<clus scale="   97.063">  1  5  2 -1</clus>
</clustering>
</event>
<event>
 9    1  0.1484717E-005  0.1026698E+03  0.7546771E-02  0.1275959E+00
         -1   -1    0    0    0  501 -0.00000000000E+00  0.00000000000E+00  0.44961116828E+03  0.44961116828E+03  0.00000000000E+00 0.  1.
          1   -1    0    0  502    0  0.00000000000E+00 -0.00000000000E+00 -0.14903731099E+03  0.14903731099E+03  0.00000000000E+00 0. -1.
         23    2    1    2    0    0 -0.25537171722E+02 -0.32334417103E+02  0.27548233818E+03  0.29401460891E+03  0.94108500847E+02 0.  0.
         23    2    1    2    0    0  0.38383778603E+02  0.15414343430E+02 -0.12083425157E+03  0.15716979084E+03  0.91599729026E+02 0.  0.
        -13    1    4    4    0    0 -0.10293368487E+01  0.28326954798E+02  0.11081589918E+01  0.28367303694E+02  0.00000000000E+00 0.  1.
         13    1    4    4    0    0  0.39413115452E+02 -0.12912611369E+02 -0.12194241056E+03  0.12880248715E+03  0.00000000000E+00 0. -1.
        -13    1    3    3    0    0 -0.36252815750E+01 -0.60695126044E+02  0.12085848727E+03  0.13529159226E+03  0.00000000000E+00 0. -1.
         13    1    3    3    0    0 -0.21911890147E+02  0.28360708941E+02  0.15462385091E+03  0.15872301665E+03  0.00000000000E+00 0.  1.
         21    1    1    2  502  501 -0.12846606881E+02  0.16920073673E+02  0.14592577068E+03  0.14746407952E+03  0.00000000000E+00 0.  1.
<scales pt_clust_5="13000.00000" pt_clust_6="13000.00000" pt_clust_7="13000.00000" pt_clust_8="13000.00000" pt_clust_9="21.24439"></scales>
<clustering>
<clus scale="   21.244">  1  9  2 -1</clus>
<clus scale="   91.600">  5  6 -1 -1</clus>
<clus scale="   94.109">  7  8 -1 -1</clus>
<clus scale="  100.375">  2  5  1 -1</clus>
<clus scale="  100.375">  2  5  1 -1</clus>
</clustering>
</event>
<event>
 9    1  0.1484717E-005  0.1747712E+03  0.7546771E-02  0.1173269E+00
         -2   -1    0    0    0  501 -0.00000000000E+00  0.00000000000E+00  0.85287368072E+02  0.85287368072E+02  0.00000000000E+00 0.  1.
          2   -1    0    0  502    0  0.00000000000E+00 -0.00000000000E+00 -0.65240403800E+03  0.65240403800E+03  0.00000000000E+00 0. -1.
         23    2    1    2    0    0 -0.85738262010E+02 -0.10715507740E+03 -0.10775889477E+03  0.19508168167E+03  0.87244615504E+02 0.  0.
         23    2    1    2    0    0  0.88916856045E+02  0.12907815264E+03 -0.48019711768E+03  0.51219586432E+03  0.84781807144E+02 0.  0.
        -13    1    4    4    0    0  0.72623225709E+02  0.50090958835E+02 -0.16807225945E+03  0.18981970780E+03  0.00000000000E+00 0.  1.
         13    1    4    4    0    0  0.16293630336E+02  0.78987193807E+02 -0.31212485823E+03  0.32237615653E+03  0.00000000000E+00 0. -1.
        -13    1    3    3    0    0 -0.10905103416E+02 -0.49062066255E+02  0.17398439907E+01  0.50289508675E+02  0.00000000000E+00 0. -1.
         13    1    3    3    0    0 -0.74833158595E+02 -0.58093011147E+02 -0.10949873876E+03  0.14479217299E+03  0.00000000000E+00 0.  1.
         21    1    1    2  502  501 -0.31785940344E+01 -0.21923075240E+02  0.20839342526E+02  0.30413860079E+02  0.00000000000E+00 0.  1.
<scales pt_clust_5="13000.00000" pt_clust_6="13000.00000" pt_clust_7="13000.00000" pt_clust_8="13000.00000" pt_clust_9="22.15231"></scales>
<clustering>
<clus scale="   22.152">  1  9  2 -1</clus>
<clus scale="   84.782">  5  6 -1 -1</clus>
<clus scale="   87.245">  7  8 -1 -1</clus>
<clus scale="  173.555">  2  5  1 -1</clus>
<clus scale="  173.555">  2  5  1 -1</clus>
</clustering>
</event>
<event>
 9    1  0.1484717E-005  0.2662905E+03  0.7546771E-02  0.1145087E+00
         -1   -1    0    0    0  501 -0.00000000000E+00  0.00000000000E+00  0.82106012922E+02  0.82106012922E+02  0.00000000000E+00 0.  1.
          1   -1    0    0  502    0  0.00000000000E+00 -0.00000000000E+00 -0.18060013731E+04  0.18060013731E+04  0.00000000000E+00 0. -1.
         23    2    1    2    0    0  0.24534269161E+03  0.40570835620E+02 -0.22914113708E+03  0.34993892444E+03  0.90069756856E+02 0.  0.
         23    2    1    2    0    0  0.11887907898E+02 -0.98434747639E+01 -0.26428871715E+03  0.28072776185E+03  0.93388082274E+02 0.  0.
        -13    1    3    3    0    0  0.16958314629E+03  0.63518855355E+02 -0.12923698928E+03  0.22247536468E+03  0.00000000000E+00 0.  1.
         13    1    3    3    0    0  0.75759545322E+02 -0.22948019736E+02 -0.99904147798E+02  0.12746355975E+03  0.00000000000E+00 0. -1.
        -13    1    4    4    0    0  0.30234292253E+02  0.25054749371E+02 -0.20996091553E+03  0.21360112112E+03  0.00000000000E+00 0.  1.
         13    1    4    4    0    0 -0.18346384355E+02 -0.34898224135E+02 -0.54327801621E+02  0.67126640730E+02  0.00000000000E+00 0. -1.
         21    1    1    2  502  501 -0.25723059951E+03 -0.30727360856E+02 -0.12304655060E+04  0.12574406997E+04  0.00000000000E+00 0. -1.
<scales pt_clust_5="13000.00000" pt_clust_6="13000.00000" pt_clust_7="13000.00000" pt_clust_8="13000.00000" pt_clust_9="250.59547"></scales>
<clustering>
<clus scale="   90.070">  5  6 -1 -1</clus>
<clus scale="   93.388">  7  8 -1 -1</clus>
<clus scale="   94.655">  2  7  1 -1</clus>
<clus scale="  250.595">  2  9  1 -1</clus>
<clus scale="   94.655">  2  5  1 -1</clus>
</clustering>
</event>
<event>
 9    1  0.1484717E-005  0.1307356E+03  0.7546771E-02  0.1240231E+00
          2   -1    0    0  502    0  0.00000000000E+00  0.00000000000E+00  0.59793605052E+03  0.59793605052E+03  0.00000000000E+00 0. -1.
         -2   -1    0    0    0  501 -0.00000000000E+00 -0.00000000000E+00 -0.48276672936E+02  0.48276672936E+02  0.00000000000E+00 0.  1.
         23    2    1    2    0    0 -0.37366214119E+02  0.61232880475E+02  0.15502332310E+03  0.21278236085E+03  0.12687948130E+03 0.  0.
         23    2    1    2    0    0 -0.56231605523E+01  0.11786420278E+02  0.19260006036E+03  0.21434488263E+03  0.93157961658E+02 0.  0.
        -11    1    3    3    0    0 -0.31823394044E+02  0.34790514499E+02 -0.77496457187E+01  0.47782479178E+02  0.00000000000E+00 0.  1.
         11    1    3    3    0    0 -0.55428200745E+01  0.26442365976E+02  0.16277296882E+03  0.16499988167E+03  0.00000000000E+00 0. -1.
        -13    1    4    4    0    0 -0.43161226504E+02  0.28082488102E+02  0.87053021915E+02  0.10114220798E+03  0.00000000000E+00 0. -1.
         13    1    4    4    0    0  0.37538065952E+02 -0.16296067824E+02  0.10554703845E+03  0.11320267464E+03  0.00000000000E+00 0.  1.
         21    1    1    2  502  501  0.42989374671E+02 -0.73019300753E+02  0.20203599413E+03  0.21908547998E+03  0.00000000000E+00 0. -1.
<scales pt_clust_5="13000.00000" pt_clust_6="13000.00000" pt_clust_7="13000.00000" pt_clust_8="13000.00000" pt_clust_9="84.73432"></scales>
<clustering>
<clus scale="   84.734">  1  9  2 -1</clus>
<clus scale="   93.158">  7  8 -1 -1</clus>
<clus scale="   98.345">  1  7  2 -1</clus>
<clus scale="  126.879">  5  6 -1 -1</clus>
<clus scale="   84.734">  1  5  2 -1</clus>
</clustering>
</event>
<event>
 9    1  0.1484717E-005  0.1793841E+03  0.7546771E-02  0.1170515E+00
          3   -1    0    0  502    0  0.00000000000E+00  0.00000000000E+00  0.47858620026E+02  0.47858620026E+02  0.00000000000E+00 0.  1.
         -3   -1    0    0    0  501 -0.00000000000E+00 -0.00000000000E+00 -0.90691919079E+03  0.90691919079E+03  0.00000000000E+00 0. -1.
         23    2    1    2    0    0  0.10171610283E+03 -0.76322746133E+02 -0.36605239043E+03  0.39784100617E+03  0.90065456764E+02 0.  0.
         23    2    1    2    0    0 -0.13250824253E+03  0.88549364896E+02 -0.26570382435E+03  0.32723065252E+03  0.10527085690E+03 0.  0.
        -13    1    3    3    0    0  0.82580691638E+02 -0.76159791066E+01 -0.22467848032E+03  0.23949528865E+03  0.00000000000E+00 0.  1.
         13    1    3    3    0    0  0.19135411188E+02 -0.68706767027E+02 -0.14137391011E+03  0.15834571752E+03  0.00000000000E+00 0. -1.
        -13    1    4    4    0    0 -0.48804988838E+02  0.75577797875E+02 -0.70025494658E+02  0.11400658038E+03  0.00000000000E+00 0.  1.
         13    1    4    4    0    0 -0.83703253694E+02  0.12971567021E+02 -0.19567832969E+03  0.21322407214E+03  0.00000000000E+00 0. -1.
         21    1    1    2  502  501  0.30792139706E+02 -0.12226618762E+02 -0.22730435598E+03  0.22970615212E+03  0.00000000000E+00 0. -1.
<scales pt_clust_5="13000.00000" pt_clust_6="13000.00000" pt_clust_7="13000.00000" pt_clust_8="13000.00000" pt_clust_9="33.13074"></scales>
<clustering>
<clus scale="   33.131">  2  9  1 -1</clus>
<clus scale="   90.065">  5  6 -1 -1</clus>
<clus scale="  105.271">  7  8 -1 -1</clus>
<clus scale="  170.905">  2  5  1 -1</clus>
<clus scale="  179.384">  1  5  2 -1</clus>
</clustering>
</event>
<event>
 9    1  0.1484717E-005  0.2061199E+03  0.7546771E-02  0.1144939E+00
          1   -1    0    0  502    0  0.00000000000E+00  0.00000000000E+00  0.61171773122E+03  0.61171773122E+03  0.00000000000E+00 0. -1.
         -1   -1    0    0    0  501 -0.00000000000E+00 -0.00000000000E+00 -0.22509006329E+03  0.22509006329E+03  0.00000000000E+00 0.  1.
         23    2    1    2    0    0  0.15812785061E+03  0.56352510700E+02 -0.11312051420E+03  0.22166030932E+03  0.90316218882E+02 0.  0.
         23    2    1    2    0    0 -0.17093509932E+03 -0.72642696759E+02  0.53517562751E+03  0.57410482851E+03  0.93207468963E+02 0.  0.
        -11    1    4    4    0    0 -0.10916016317E+03  0.36942730645E+01  0.26437414727E+03  0.28604768592E+03  0.00000000000E+00 0. -1.
         11    1    4    4    0    0 -0.61774936153E+02 -0.76336969823E+02  0.27080148023E+03  0.28805714259E+03  0.00000000000E+00 0.  1.
        -13    1    3    3    0    0  0.92296837440E+02  0.49274639332E+02 -0.11493580757E+03  0.15542501776E+03  0.00000000000E+00 0.  1.
         13    1    3    3    0    0  0.65831013170E+02  0.70778713680E+01  0.18152933713E+01  0.66235291560E+02  0.00000000000E+00 0. -1.
         21    1    1    2  502  501  0.12807248713E+02  0.16290186058E+02 -0.35427445383E+02  0.41042656685E+02  0.00000000000E+00 0. -1.
<scales pt_clust_5="13000.00000" pt_clust_6="13000.00000" pt_clust_7="13000.00000" pt_clust_8="13000.00000" pt_clust_9="20.72187"></scales>
<clustering>
<clus scale="   20.722">  2  9  1 -1</clus>
<clus scale="   90.316">  7  8 -1 -1</clus>
<clus scale="   93.207">  5  6 -1 -1</clus>
<clus scale="  204.829">  2  7  1 -1</clus>
<clus scale="  206.120">  1  5  2 -1</clus>
</clustering>
</event>
<event>
 9    1  0.1484717E-005  0.9811602E+02  0.7546771E-02  0.1284515E+00
          1   -1    0    0  502    0  0.00000000000E+00  0.00000000000E+00  0.15154337377E+03  0.15154337377E+03  0.00000000000E+00 0. -1.
         -1   -1    0    0    0  501 -0.00000000000E+00 -0.00000000000E+00 -0.14200056283E+03  0.14200056283E+03  0.00000000000E+00 0.  1.
         23    2    1    2    0    0 -0.80568631350E+01 -0.32248952782E+02 -0.57361461104E+02  0.11204134936E+03  0.90321751239E+02 0.  0.
         23    2    1    2    0    0  0.29821828874E+02  0.25938273515E+02  0.10045288648E+03  0.14101743024E+03  0.90735867879E+02 0.  0.
        -11    1    4    4    0    0 -0.29173492278E+02  0.24334726859E+02  0.53421065167E+02  0.65552130298E+02  0.00000000000E+00 0. -1.
         11    1    4    4    0    0  0.58995321152E+02  0.16035466555E+01  0.47031821313E+02  0.75465299945E+02  0.00000000000E+00 0.  1.
        -11    1    3    3    0    0  0.55474776747E+01 -0.62351966985E+02 -0.43434793427E+02  0.76191361554E+02  0.00000000000E+00 0.  1.
         11    1    3    3    0    0 -0.13604340810E+02  0.30103014202E+02 -0.13926667677E+02  0.35849987804E+02  0.00000000000E+00 0. -1.
         21    1    1    2  502  501 -0.21764965739E+02  0.63106792677E+01 -0.33548614443E+02  0.40485157002E+02  0.00000000000E+00 0.  1.
<scales pt_clust_5="13000.00000" pt_clust_6="13000.00000" pt_clust_7="13000.00000" pt_clust_8="13000.00000" pt_clust_9="22.66139"></scales>
<clustering>
<clus scale="   22.661">  2  9  1 -1</clus>
<clus scale="   90.322">  7  8 -1 -1</clus>
<clus scale="   90.736">  5  6 -1 -1</clus>
<clus scale="   97.733">  2  7  1 -1</clus>
<clus scale="   98.116">  1  5  2 -1</clus>
</clustering>
</event>
<event>
 9    1  0.1484717E-005  0.1261057E+03  0.7546771E-02  0.1234108E+00
         -1   -1    0    0    0  501 -0.00000000000E+00  0.00000000000E+00  0.13084147478E+03  0.13084147478E+03  0.00000000000E+00 0.  1.
          1   -1    0    0  502    0  0.00000000000E+00 -0.00000000000E+00 -0.20895109619E+03  0.20895109619E+03  0.00000000000E+00 0. -1.
         23    2    1    2    0    0 -0.44354173060E+02  0.41250526929E+02 -0.15258168226E+02  0.11061384209E+03  0.91289165428E+02 0.  0.
         23    2    1    2    0    0  0.10357646045E+03 -0.31268462899E+02 -0.83313628478E+02  0.16573094292E+03  0.93913709434E+02 0.  0.
        -11    1    3    3    0    0 -0.61715718029E+02  0.11588572623E+02  0.15291923775E+02  0.64629465416E+02  0.00000000000E+00 0.  1.
         11    1    3    3    0    0  0.17361544968E+02  0.29661954306E+02 -0.30550092000E+02  0.45984376675E+02  0.00000000000E+00 0. -1.
        -13    1    4    4    0    0  0.33734487547E+02 -0.21096652644E+02  0.16841677412E+02  0.43205630431E+02  0.00000000000E+00 0.  1.
         13    1    4    4    0    0  0.69841972899E+02 -0.10171810256E+02 -0.10015530589E+03  0.12252531249E+03  0.00000000000E+00 0. -1.
         21    1    1    2  502  501 -0.59222287386E+02 -0.99820640300E+01  0.20462175295E+02  0.63447785961E+02  0.00000000000E+00 0.  1.
<scales pt_clust_5="13000.00000" pt_clust_6="13000.00000" pt_clust_7="13000.00000" pt_clust_8="13000.00000" pt_clust_9="60.05765"></scales>
<clustering>
<clus scale="   60.058">  1  9  2 -1</clus>
<clus scale="   91.289">  5  6 -1 -1</clus>
<clus scale="   93.914">  7  8 -1 -1</clus>
<clus scale="  124.163">  1  5  2 -1</clus>
<clus scale="  126.106">  2  5  1 -1</clus>
</clustering>
</event>
<event>
 9    1  0.1484717E-005  0.9520761E+02  0.7546771E-02  0.1291101E+00
         -3   -1    0    0    0  501 -0.00000000000E+00  0.00000000000E+00  0.29552327879E+02  0.29552327879E+02  0.00000000000E+00 0.  1.
          3   -1    0    0  502    0  0.00000000000E+00 -0.00000000000E+00 -0.42742338358E+03  0.42742338358E+03  0.00000000000E+00 0. -1.
         23    2    1    2    0    0 -0.32234024459E+02  0.92734136083E+01 -0.20013152825E+03  0.22218946289E+03  0.90501382786E+02 0.  0.
         23    2    1    2    0    0  0.22258184671E+02  0.87517164096E+01 -0.19116157199E+03  0.21316005636E+03  0.91227428424E+02 0.  0.
        -11    1    3    3    0    0  0.28748890429E+02  0.57646027433E+01 -0.10595931441E+03  0.10994137372E+03  0.00000000000E+00 0.  1.
         11    1    3    3    0    0 -0.60982914888E+02  0.35088108651E+01 -0.94172213843E+02  0.11224808917E+03  0.00000000000E+00 0. -1.
        -13    1    4    4    0    0  0.21562919321E+02 -0.40059424525E+02 -0.92447372246E+02  0.10303510867E+03  0.00000000000E+00 0.  1.
         13    1    4    4    0    0  0.69526535015E+00  0.48811140935E+02 -0.98714199741E+02  0.11012494769E+03  0.00000000000E+00 0. -1.
         21    1    1    2  502  501  0.99758397879E+01 -0.18025130018E+02 -0.65779554660E+01  0.21626192216E+02  0.00000000000E+00 0.  1.
<scales pt_clust_5="13000.00000" pt_clust_6="13000.00000" pt_clust_7="13000.00000" pt_clust_8="13000.00000" pt_clust_9="20.60152"></scales>
<clustering>
<clus scale="   20.602">  1  9  2 -1</clus>
<clus scale="   90.501">  5  6 -1 -1</clus>
<clus scale="   91.227">  7  8 -1 -1</clus>
<clus scale="   94.512">  1  5  2 -1</clus>
<clus scale="   95.208">  2  5  1 -1</clus>
</clustering>
</event>
<event>
 9    1  0.1484717E-005  0.1621719E+03  0.7546771E-02  0.1187400E+00
          1   -1    0    0  502    0  0.00000000000E+00  0.00000000000E+00  0.17482205215E+04  0.17482205215E+04  0.00000000000E+00 0. -1.
         -1   -1    0    0    0  501 -0.00000000000E+00 -0.00000000000E+00 -0.55573073478E+02  0.55573073478E+02  0.00000000000E+00 0.  1.
         23    2    1    2    0    0  0.11735200070E+03 -0.12395378115E+03  0.99209809914E+03  0.10106348420E+04  0.89376247744E+02 0.  0.
         23    2    1    2    0    0 -0.71774369360E+02  0.83985832554E+02  0.71722819606E+03  0.73028633188E+03  0.81833129788E+02 0.  0.
        -11    1    4    4    0    0 -0.68891832271E+02  0.18078598467E+02  0.39594813393E+03  0.40230317552E+03  0.00000000000E+00 0. -1.
         11    1    4    4    0    0 -0.28825370889E+01  0.65907234086E+02  0.32128006214E+03  0.32798315635E+03  0.00000000000E+00 0.  1.
        -13    1    3    3    0    0  0.95492852324E+02 -0.38097072284E+02  0.47467107501E+03  0.48567777508E+03  0.00000000000E+00 0. -1.
         13    1    3    3    0    0  0.21859148376E+02 -0.85856708869E+02  0.51742702414E+03  0.52495706694E+03  0.00000000000E+00 0.  1.
         21    1    1    2  502  501 -0.45577631340E+02  0.39967948599E+02 -0.16678847152E+02  0.62872421109E+02  0.00000000000E+00 0.  1.
<scales pt_clust_5="13000.00000" pt_clust_6="13000.00000" pt_clust_7="13000.00000" pt_clust_8="13000.00000" pt_clust_9="60.61978"></scales>
<clustering>
<clus scale="   60.620">  2  9  1 -1</clus>
<clus scale="   81.833">  5  6 -1 -1</clus>
<clus scale="   89.376">  7  8 -1 -1</clus>
<clus scale="  158.140">  1  5  2 -1</clus>
<clus scale="  158.140">  1  5  2 -1</clus>
</clustering>
</event>
<event>
 9    1  0.1484717E-005  0.9010367E+02  0.7546771E-02  0.1304435E+00
         -3   -1    0    0    0  501 -0.00000000000E+00  0.00000000000E+00  0.28741885964E+03  0.28741885964E+03  0.00000000000E+00 0.  1.
          3   -1    0    0  502    0  0.00000000000E+00 -0.00000000000E+00 -0.59942768844E+02  0.59942768844E+02  0.00000000000E+00 0. -1.
         23    2    1    2    0    0 -0.20455328112E+02  0.10148321972E+02  0.54250824043E+02  0.10501502815E+03  0.86968933199E+02 0.  0.
         23    2    1    2    0    0 -0.11461906647E+02  0.16183292832E+02  0.35798065645E+02  0.98825523771E+02  0.89953923615E+02 0.  0.
        -13    1    3    3    0    0  0.31957639838E+02 -0.96788858023E+01  0.15045580796E+02  0.36624323555E+02  0.00000000000E+00 0.  1.
         13    1    3    3    0    0 -0.52412967950E+02  0.19827207775E+02  0.39205243247E+02  0.68390704599E+02  0.00000000000E+00 0. -1.
        -13    1    4    4    0    0  0.88540237728E+01  0.48407402824E+02  0.35589523728E+02  0.60731248829E+02  0.00000000000E+00 0.  1.
         13    1    4    4    0    0 -0.20315930420E+02 -0.32224109992E+02  0.20854191785E+00  0.38094274942E+02  0.00000000000E+00 0. -1.
         21    1    1    2  502  501  0.31917234759E+02 -0.26331614804E+02  0.13742720111E+03  0.14352107656E+03  0.00000000000E+00 0.  1.
<scales pt_clust_5="13000.00000" pt_clust_6="13000.00000" pt_clust_7="13000.00000" pt_clust_8="13000.00000" pt_clust_9="41.37709"></scales>
<clustering>
<clus scale="   41.377">  1  9  2 -1</clus>
<clus scale="   86.969">  5  6 -1 -1</clus>
<clus scale="   87.124">  1  5  2 -1</clus>
<clus scale="   89.954">  7  8 -1 -1</clus>
<clus scale="   90.104">  2  5  1 -1</clus>
</clustering>
</event>
<event>
 9    1  0.1484717E-005  0.1006463E+03  0.7546771E-02  0.1279394E+00
          1   -1    0    0  502    0  0.00000000000E+00  0.00000000000E+00  0.41616952365E+03  0.41616952365E+03  0.00000000000E+00 0. -1.
         -1   -1    0    0    0  501 -0.00000000000E+00 -0.00000000000E+00 -0.44251883945E+02  0.44251883945E+02  0.00000000000E+00 0.  1.
         23    2    1    2    0    0 -0.36106642036E+02 -0.34996793757E+02  0.57144067894E+02  0.11831548157E+03  0.90579487250E+02 0.  0.
         23    2    1    2    0    0  0.36530319849E+01  0.18749589463E+02  0.26089395725E+03  0.27714269552E+03  0.91528820619E+02 0.  0.
        -11    1    4    4    0    0  0.41473236242E+02 -0.13545126711E+02  0.12949048997E+03  0.13664291703E+03  0.00000000000E+00 0. -1.
         11    1    4    4    0    0 -0.37820204257E+02  0.32294716175E+02  0.13140346727E+03  0.14049977848E+03  0.00000000000E+00 0.  1.
        -11    1    3    3    0    0  0.11177805834E+01 -0.42375458265E+02 -0.77952710773E+01  0.43100987782E+02  0.00000000000E+00 0.  1.
         11    1    3    3    0    0 -0.37224422620E+02  0.73786645080E+01  0.64939338971E+02  0.75214493785E+02  0.00000000000E+00 0. -1.
         21    1    1    2  502  501  0.32453610051E+02  0.16247204294E+02  0.53879614568E+02  0.64963230513E+02  0.00000000000E+00 0. -1.
<scales pt_clust_5="13000.00000" pt_clust_6="13000.00000" pt_clust_7="13000.00000" pt_clust_8="13000.00000" pt_clust_9="36.29337"></scales>
<clustering>
<clus scale="   36.293">  1  9  2 -1</clus>
<clus scale="   90.579">  7  8 -1 -1</clus>
<clus scale="   91.529">  5  6 -1 -1</clus>
<clus scale="   99.784">  2  7  1 -1</clus>
<clus scale="   36.293">  1  5  2 -1</clus>
</clustering>
</event>
<event>
 9    1  0.1484717E-005  0.1081465E+03  0.7546771E-02  0.1264433E+00
         -2   -1    0    0    0  501 -0.00000000000E+00  0.00000000000E+00  0.43228888830E+02  0.43228888830E+02  0.00000000000E+00 0.  1.
          2   -1    0    0  502    0  0.00000000000E+00 -0.00000000000E+00 -0.50751510180E+03  0.50751510180E+03  0.00000000000E+00 0. -1.
         23    2    1    2    0    0 -0.43840534043E+02 -0.19378041282E+01 -0.66418144498E+02  0.11996093418E+03  0.89741341092E+02 0.  0.
         23    2    1    2    0    0  0.62985641271E+02 -0.50761648862E+01 -0.39501377935E+03  0.41019476224E+03  0.90724300140E+02 0.  0.
        -11    1    3    3    0    0 -0.50741049151E+02 -0.25840749944E+02 -0.93488290024E+01  0.57704410839E+02  0.00000000000E+00 0.  1.
         11    1    3    3    0    0  0.69005151078E+01  0.23902945816E+02 -0.57069315496E+02  0.62256523341E+02  0.00000000000E+00 0. -1.
        -11    1    4    4    0    0  0.37132046469E+01 -0.41011487277E+02 -0.14035570730E+03  0.14627185153E+03  0.00000000000E+00 0.  1.
         11    1    4    4    0    0  0.59272436624E+02  0.35935322391E+02 -0.25465807205E+03  0.26392291072E+03  0.00000000000E+00 0. -1.
         21    1    1    2  502  501 -0.19145107228E+02  0.70139690144E+01 -0.28542891226E+01  0.20588294210E+02  0.00000000000E+00 0.  1.
<scales pt_clust_5="13000.00000" pt_clust_6="13000.00000" pt_clust_7="13000.00000" pt_clust_8="13000.00000" pt_clust_9="20.38948"></scales>
<clustering>
<clus scale="   20.389">  1  9  2 -1</clus>
<clus scale="   89.741">  5  6 -1 -1</clus>
<clus scale="   90.724">  7  8 -1 -1</clus>
<clus scale="  107.323">  1  5  2 -1</clus>
<clus scale="  108.146">  2  5  1 -1</clus>
</clustering>
</event>
<event>
 9    1  0.1484717E-005  0.1108400E+03  0.7546771E-02  0.1259736E+00
          2   -1    0    0  502    0  0.00000000000E+00  0.00000000000E+00  0.50057461088E+03  0.50057461088E+03  0.00000000000E+00 0. -1.
         -2   -1    0    0    0  501 -0.00000000000E+00 -0.00000000000E+00 -0.51190093424E+02  0.51190093424E+02  0.00000000000E+00 0.  1.
         23    2    1    2    0    0  0.47169712990E+02 -0.22300371706E+02  0.19230192593E+03  0.21892147966E+03  0.90687899631E+02 0.  0.
         23    2    1    2    0    0 -0.71983360401E+02 -0.10217612131E+01  0.27159799107E+03  0.29582517762E+03  0.92544145083E+02 0.  0.
        -11    1    3    3    0    0  0.34368347078E+02 -0.42804490105E+02  0.48960934131E+02  0.73556649767E+02  0.00000000000E+00 0.  1.
         11    1    3    3    0    0  0.12801365912E+02  0.20504118399E+02  0.14334099180E+03  0.14536482990E+03  0.00000000000E+00 0. -1.
        -13    1    4    4    0    0 -0.63449818735E+02 -0.40235894823E+02  0.14979056446E+03  0.16757690751E+03  0.00000000000E+00 0. -1.
         13    1    4    4    0    0 -0.85335416660E+01  0.39214133610E+02  0.12180742661E+03  0.12824827011E+03  0.00000000000E+00 0.  1.
         21    1    1    2  502  501  0.24813647411E+02  0.23322132919E+02 -0.14515399543E+02  0.37018047025E+02  0.00000000000E+00 0.  1.
<scales pt_clust_5="13000.00000" pt_clust_6="13000.00000" pt_clust_7="13000.00000" pt_clust_8="13000.00000" pt_clust_9="34.05347"></scales>
<clustering>
<clus scale="   34.053">  2  9  1 -1</clus>
<clus scale="   90.688">  5  6 -1 -1</clus>
<clus scale="   92.544">  7  8 -1 -1</clus>
<clus scale="  109.295">  2  5  1 -1</clus>
<clus scale="  110.840">  1  5  2 -1</clus>
</clustering>
</event>
<event>
 9    1  0.1484717E-005  0.9496543E+02  0.7546771E-02  0.1293178E+00
         -3   -1    0    0    0  501 -0.00000000000E+00  0.00000000000E+00  0.58019005319E+02  0.58019005319E+02  0.00000000000E+00 0.  1.
          3   -1    0    0  502    0  0.00000000000E+00 -0.00000000000E+00 -0.24878306350E+03  0.24878306350E+03  0.00000000000E+00 0. -1.
         23    2    1    2    0    0 -0.28041130654E+02  0.93363207572E+01 -0.25912864571E+02  0.98823323503E+02  0.90670286337E+02 0.  0.
         23    2    1    2    0    0  0.26921214580E+02  0.13276628816E+02 -0.16025624602E+03  0.18487651071E+03  0.87156406295E+02 0.  0.
        -11    1    4    4    0    0  0.42525054068E+02  0.41494281007E+02 -0.11298941108E+03  0.12765877406E+03  0.00000000000E+00 0.  1.
         11    1    4    4    0    0 -0.15603839488E+02 -0.28217652191E+02 -0.47266834941E+02  0.57217736649E+02  0.00000000000E+00 0. -1.
        -13    1    3    3    0    0 -0.46513653183E+02 -0.20485288713E+02 -0.36046193695E+02  0.62309670726E+02  0.00000000000E+00 0. -1.
         13    1    3    3    0    0  0.18472522529E+02  0.29821609470E+02  0.10133329124E+02  0.36513652777E+02  0.00000000000E+00 0.  1.
         21    1    1    2  502  501  0.11199160741E+01 -0.22612949573E+02 -0.45949475946E+01  0.23102234606E+02  0.00000000000E+00 0. -1.
<scales pt_clust_5="13000.00000" pt_clust_6="13000.00000" pt_clust_7="13000.00000" pt_clust_8="13000.00000" pt_clust_9="22.64066"></scales>
<clustering>
<clus scale="   22.641">  1  9  2 -1</clus>
<clus scale="   87.156">  5  6 -1 -1</clus>
<clus scale="   90.670">  7  8 -1 -1</clus>
<clus scale="   91.616">  2  5  1 -1</clus>
<clus scale="   91.616">  2  5  1 -1</clus>
</clustering>
</event>
<event>
 9    1  0.1484717E-005  0.1315368E+03  0.7546771E-02  0.1239161E+00
          4   -1    0    0  502    0  0.00000000000E+00  0.00000000000E+00  0.80149060811E+02  0.80149060811E+02  0.00000000000E+00 0. -1.
         -4   -1    0    0    0  501 -0.00000000000E+00 -0.00000000000E+00 -0.26333286909E+03  0.26333286909E+03  0.00000000000E+00 0.  1.
         23    2    1    2    0    0 -0.61761470989E+01 -0.44945140158E+02 -0.70455351254E+02  0.12500679190E+03  0.92760611710E+02 0.  0.
         23    2    1    2    0    0  0.12468582883E+02  0.21623290757E+02 -0.30981633605E+02  0.13323402968E+03  0.12715507376E+03 0.  0.
        -11    1    4    4    0    0 -0.15424502326E+02 -0.49086408637E+02 -0.24376778766E+02  0.56935209913E+02  0.00000000000E+00 0.  1.
         11    1    4    4    0    0  0.27893085209E+02  0.70709699393E+02 -0.66048548394E+01  0.76298819769E+02  0.00000000000E+00 0. -1.
        -13    1    3    3    0    0  0.22766904835E+02  0.88999242030E+01  0.78419479086E+01  0.25671711154E+02  0.00000000000E+00 0. -1.
         13    1    3    3    0    0 -0.28943051934E+02 -0.53845064361E+02 -0.78297299162E+02  0.99335080749E+02  0.00000000000E+00 0.  1.
         21    1    1    2  502  501 -0.62924357839E+01  0.23321849401E+02 -0.81746823419E+02  0.85241108314E+02  0.00000000000E+00 0. -1.
<scales pt_clust_5="13000.00000" pt_clust_6="13000.00000" pt_clust_7="13000.00000" pt_clust_8="13000.00000" pt_clust_9="24.15582"></scales>
<clustering>
<clus scale="   24.156">  2  9  1 -1</clus>
<clus scale="   92.761">  7  8 -1 -1</clus>
<clus scale="   98.681">  2  7  1 -1</clus>
<clus scale="  127.155">  5  6 -1 -1</clus>
<clus scale="  131.537">  1  5  2 -1</clus>
</clustering>
</event>
<event>
 9    1  0.1484717E-005  0.1004720E+03  0.7546771E-02  0.1281160E+00
          1   -1    0    0  502    0  0.00000000000E+00  0.00000000000E+00  0.16808325279E+03  0.16808325279E+03  0.00000000000E+00 0. -1.
         -1   -1    0    0    0  501 -0.00000000000E+00 -0.00000000000E+00 -0.79168431125E+02  0.79168431125E+02  0.00000000000E+00 0.  1.
         23    2    1    2    0    0  0.25048776436E+02 -0.11265723186E+00  0.32495734965E+02  0.97576983457E+02  0.88531582033E+02 0.  0.
         23    2    1    2    0    0 -0.54256649555E+02 -0.24273954614E+01  0.54771278597E+02  0.12031031742E+03  0.92330944153E+02 0.  0.
        -11    1    4    4    0    0 -0.57459011677E+01  0.41241140521E+02  0.17684230098E+02  0.45239131798E+02  0.00000000000E+00 0.  1.
         11    1    4    4    0    0 -0.48510748387E+02 -0.43668535982E+02  0.37087048499E+02  0.75071185619E+02  0.00000000000E+00 0. -1.
        -11    1    3    3    0    0 -0.16987088452E+02 -0.29566914362E+02  0.31220785423E+02  0.46233116285E+02  0.00000000000E+00 0. -1.
         11    1    3    3    0    0  0.42035864888E+02  0.29454257130E+02  0.12749495416E+01  0.51343867173E+02  0.00000000000E+00 0.  1.
         21    1    1    2  502  501  0.29207873119E+02  0.25400526933E+01  0.16478081028E+01  0.29364383041E+02  0.00000000000E+00 0. -1.
<scales pt_clust_5="13000.00000" pt_clust_6="13000.00000" pt_clust_7="13000.00000" pt_clust_8="13000.00000" pt_clust_9="29.31811"></scales>
<clustering>
<clus scale="   29.318">  2  9  1 -1</clus>
<clus scale="   88.532">  7  8 -1 -1</clus>
<clus scale="   92.331">  5  6 -1 -1</clus>
<clus scale="   96.992">  2  7  1 -1</clus>
<clus scale="  100.472">  1  5  2 -1</clus>
</clustering>
</event>
<event>
 9    1  0.1484717E-005  0.9542786E+02  0.7546771E-02  0.1290788E+00
         -2   -1    0    0    0  501 -0.00000000000E+00  0.00000000000E+00  0.19934748648E+03  0.19934748648E+03  0.00000000000E+00 0.  1.
          2   -1    0    0  502    0  0.00000000000E+00 -0.00000000000E+00 -0.18341777535E+03  0.18341777535E+03  0.00000000000E+00 0. -1.
         23    2    1    2    0    0 -0.24137358455E+02 -0.19550899670E+02  0.88820705616E+02  0.12943048559E+03  0.88872285351E+02 0.  0.
         23    2    1    2    0    0  0.15342853784E+01  0.33164191942E+02 -0.14652876553E+03  0.17511238838E+03  0.89952497339E+02 0.  0.
        -11    1    4    4    0    0 -0.19194136379E+02  0.97074697616E+01  0.35530861397E+01  0.21800785803E+02  0.00000000000E+00 0.  1.
         11    1    4    4    0    0  0.20728421758E+02  0.23456722181E+02 -0.15008185167E+03  0.15331160258E+03  0.00000000000E+00 0. -1.
        -13    1    3    3    0    0 -0.44995715366E+02 -0.35520244758E+02  0.85517425927E+02  0.10295403016E+03  0.00000000000E+00 0.  1.
         13    1    3    3    0    0  0.20858356911E+02  0.15969345088E+02  0.33032796886E+01  0.26476455432E+02  0.00000000000E+00 0. -1.
         21    1    1    2  502  501  0.22603073076E+02 -0.13613292272E+02  0.73637771045E+02  0.78222387866E+02  0.00000000000E+00 0.  1.
<scales pt_clust_5="13000.00000" pt_clust_6="13000.00000" pt_clust_7="13000.00000" pt_clust_8="13000.00000" pt_clust_9="26.38599"></scales>
<clustering>
<clus scale="   26.386">  1  9  2 -1</clus>
<clus scale="   88.872">  7  8 -1 -1</clus>
<clus scale="   89.952">  5  6 -1 -1</clus>
<clus scale="   94.410">  1  7  2 -1</clus>
<clus scale="   95.428">  2  5  1 -1</clus>
</clustering>
</event>
<event>
 9    1  0.1484717E-005  0.9199351E+02  0.7546771E-02  0.1306321E+00
          4   -1    0    0  502    0  0.00000000000E+00  0.00000000000E+00  0.18196101025E+03  0.18196101025E+03  0.00000000000E+00 0. -1.
         -4   -1    0    0    0  501 -0.00000000000E+00 -0.00000000000E+00 -0.11573483577E+03  0.11573483577E+03  0.00000000000E+00 0.  1.
         23    2    1    2    0    0 -0.31836550860E+02  0.13976231877E+02 -0.55342074026E+01  0.96516918570E+02  0.89866495929E+02 0.  0.
         23    2    1    2    0    0  0.49900654717E+00 -0.19666086312E+02  0.11979257956E+03  0.14354640069E+03  0.76604850205E+02 0.  0.
        -11    1    3    3    0    0 -0.48947794155E+02  0.41230851067E+02 -0.90960021741E+00  0.64005445119E+02  0.00000000000E+00 0.  1.
         11    1    3    3    0    0  0.17111243296E+02 -0.27254619190E+02 -0.46246071852E+01  0.32511473451E+02  0.00000000000E+00 0. -1.
        -11    1    4    4    0    0 -0.27822800660E+02 -0.11861787115E+02  0.10754667689E+03  0.11171883431E+03  0.00000000000E+00 0. -1.
         11    1    4    4    0    0  0.28321807207E+02 -0.78042991961E+01  0.12245902675E+02  0.31827566381E+02  0.00000000000E+00 0.  1.
         21    1    1    2  502  501  0.31337544312E+02  0.56898544350E+01 -0.48032197678E+02  0.57632526761E+02  0.00000000000E+00 0.  1.
<scales pt_clust_5="13000.00000" pt_clust_6="13000.00000" pt_clust_7="13000.00000" pt_clust_8="13000.00000" pt_clust_9="31.84990"></scales>
<clustering>
<clus scale="   31.850">  2  9  1 -1</clus>
<clus scale="   76.605">  7  8 -1 -1</clus>
<clus scale="   79.089">  1  7  2 -1</clus>
<clus scale="   89.866">  5  6 -1 -1</clus>
<clus scale="   79.089">  1  5  2 -1</clus>
</clustering>
</event>
<event>
 9    1  0.1484717E-005  0.1072837E+03  0.7546771E-02  0.1265708E+00
          1   -1    0    0  502    0  0.00000000000E+00  0.00000000000E+00  0.35007419484E+03  0.35007419484E+03  0.00000000000E+00 0. -1.
         -1   -1    0    0    0  501 -0.00000000000E+00 -0.00000000000E+00 -0.93569707202E+02  0.93569707202E+02  0.00000000000E+00 0.  1.
         23    2    1    2    0    0 -0.23862571261E+02 -0.64175170977E+02  0.80780812977E+02  0.13948915353E+03  0.90795425710E+02 0.  0.
         23    2    1    2    0    0  0.30810297109E+02  0.43300229769E+02  0.22598199683E+03  0.24929189212E+03  0.90853730130E+02 0.  0.
        -11    1    3    3    0    0  0.19951258554E+02 -0.66721198388E+02  0.53442397578E+02  0.87783033048E+02  0.00000000000E+00 0.  1.
         11    1    3    3    0    0 -0.43813829815E+02  0.25460274110E+01  0.27338415400E+02  0.51706120481E+02  0.00000000000E+00 0. -1.
        -13    1    4    4    0    0  0.11608492769E+02 -0.27736251433E+02  0.86706826295E+02  0.91772166118E+02  0.00000000000E+00 0. -1.
         13    1    4    4    0    0  0.19201804341E+02  0.71036481202E+02  0.13927517054E+03  0.15751972600E+03  0.00000000000E+00 0.  1.
         21    1    1    2  502  501 -0.69477258482E+01  0.20874941208E+02 -0.50258322167E+02  0.54862856396E+02  0.00000000000E+00 0. -1.
<scales pt_clust_5="13000.00000" pt_clust_6="13000.00000" pt_clust_7="13000.00000" pt_clust_8="13000.00000" pt_clust_9="22.00077"></scales>
<clustering>
<clus scale="   22.001">  2  9  1 -1</clus>
<clus scale="   90.795">  5  6 -1 -1</clus>
<clus scale="   90.854">  7  8 -1 -1</clus>
<clus scale="  107.234">  2  5  1 -1</clus>
<clus scale="  107.284">  1  5  2 -1</clus>
</clustering>
</event>
<event>
 9    1  0.1484717E-005  0.1007948E+03  0.7546771E-02  0.1282324E+00
          1   -1    0    0  502    0  0.00000000000E+00  0.00000000000E+00  0.13373625893E+03  0.13373625893E+03  0.00000000000E+00 0. -1.
         -1   -1    0    0    0  501 -0.00000000000E+00 -0.00000000000E+00 -0.14955340251E+03  0.14955340251E+03  0.00000000000E+00 0.  1.
         23    2    1    2    0    0 -0.20950783824E+02  0.41886713741E+02 -0.63090385920E+02  0.12338799175E+03  0.95135522192E+02 0.  0.
         23    2    1    2    0    0  0.28914683473E+02 -0.13443389604E+02  0.74654342005E+02  0.11962548560E+03  0.87864682214E+02 0.  0.
        -11    1    3    3    0    0 -0.28285470806E+02 -0.22964393974E+02 -0.40131227270E+02  0.54202828815E+02  0.00000000000E+00 0.  1.
         11    1    3    3    0    0  0.73346869820E+01  0.64851107715E+02 -0.22959158649E+02  0.69185162939E+02  0.00000000000E+00 0. -1.
        -13    1    4    4    0    0 -0.15749027346E+02 -0.15186043026E+02 -0.98769737183E+01  0.24004215775E+02  0.00000000000E+00 0.  1.
         13    1    4    4    0    0  0.44663710819E+02  0.17426534223E+01  0.84531315723E+02  0.95621269825E+02  0.00000000000E+00 0. -1.
         21    1    1    2  502  501 -0.79638996481E+01 -0.28443324137E+02 -0.27381099663E+02  0.40276184084E+02  0.00000000000E+00 0.  1.
<scales pt_clust_5="13000.00000" pt_clust_6="13000.00000" pt_clust_7="13000.00000" pt_clust_8="13000.00000" pt_clust_9="29.53720"></scales>
<clustering>
<clus scale="   29.537">  2  9  1 -1</clus>
<clus scale="   87.865">  7  8 -1 -1</clus>
<clus scale="   93.963">  1  7  2 -1</clus>
<clus scale="   95.136">  5  6 -1 -1</clus>
<clus scale="   93.963">  1  5  2 -1</clus>
</clustering>
</event>
<event>
 9    1  0.2312926E-005  0.1352876E+03  0.7546771E-02  0.1220164E+00
          1   -1    0    0  502    0  0.00000000000E+00  0.00000000000E+00  0.18988081368E+03  0.18988081368E+03  0.00000000000E+00 0. -1.
         -1   -1    0    0    0  501 -0.00000000000E+00 -0.00000000000E+00 -0.31833766382E+03  0.31833766382E+03  0.00000000000E+00 0.  1.
         23    2    1    2    0    0 -0.11233228283E+03  0.59997567392E+02 -0.23181963462E+03  0.27877621759E+03  0.88077162975E+02 0.  0.
         23    2    1    2    0    0  0.71513268217E+02 -0.68318040604E+02  0.12470161475E+03  0.18263662024E+03  0.89577564875E+02 0.  0.
        -11    1    3    3    0    0 -0.89284152434E+02  0.34970820582E+02 -0.22429374841E+03  0.24393094052E+03  0.00000000000E+00 0.  1.
         11    1    3    3    0    0 -0.23048130394E+02  0.25026746810E+02 -0.75258862125E+01  0.34845277066E+02  0.00000000000E+00 0. -1.
        -13    1    4    4    0    0 -0.16215692905E+02 -0.28633736816E+02  0.53783228504E+02  0.63051369920E+02  0.00000000000E+00 0.  1.
         13    1    4    4    0    0  0.87728961122E+02 -0.39684303788E+02  0.70918386244E+02  0.11958525032E+03  0.00000000000E+00 0. -1.
         21    1    1    2  502  501  0.40819014610E+02  0.83204732118E+01 -0.21338830261E+02  0.46805639672E+02  0.00000000000E+00 0.  1.
<scales pt_clust_5="13000.00000" pt_clust_6="13000.00000" pt_clust_7="13000.00000" pt_clust_8="13000.00000" pt_clust_9="41.65840"></scales>
<clustering>
<clus scale="   41.658">  2  9  1 -1</clus>
<clus scale="   88.077">  5  6 -1 -1</clus>
<clus scale="   89.578">  7  8 -1 -1</clus>
<clus scale="  134.299">  2  5  1 -1</clus>
<clus scale="  135.288">  1  5  2 -1</clus>
</clustering>
</event>
<event>
 9    1  0.1484717E-005  0.9274333E+02  0.7546771E-02  0.1300132E+00
          2   -1    0    0  502    0  0.00000000000E+00  0.00000000000E+00  0.16150244908E+03  0.16150244908E+03  0.00000000000E+00 0. -1.
         -2   -1    0    0    0  501 -0.00000000000E+00 -0.00000000000E+00 -0.66923157467E+02  0.66923157467E+02  0.00000000000E+00 0.  1.
         23    2    1    2    0    0  0.11313216215E+02 -0.43988004178E+01  0.25204553068E+02  0.95068583384E+02  0.90859384463E+02 0.  0.
         23    2    1    2    0    0 -0.20596969232E+02 -0.14581021109E+02  0.69482567669E+02  0.11222805436E+03  0.84442096483E+02 0.  0.
        -11    1    4    4    0    0  0.19154336537E+02 -0.21404173714E+02 -0.34060793836E+01  0.28924533485E+02  0.00000000000E+00 0.  1.
         11    1    4    4    0    0 -0.39751305769E+02  0.68231526053E+01  0.72888647053E+02  0.83303520880E+02  0.00000000000E+00 0. -1.
        -13    1    3    3    0    0  0.46420263163E+02  0.18037747507E+02  0.16850785099E+02  0.52575185456E+02  0.00000000000E+00 0.  1.
         13    1    3    3    0    0 -0.35107046948E+02 -0.22436547925E+02  0.83537679691E+01  0.42493397928E+02  0.00000000000E+00 0. -1.
         21    1    1    2  502  501  0.92837530168E+01  0.18979821527E+02 -0.10782912635E+00  0.21128968796E+02  0.00000000000E+00 0. -1.
<scales pt_clust_5="13000.00000" pt_clust_6="13000.00000" pt_clust_7="13000.00000" pt_clust_8="13000.00000" pt_clust_9="21.12869"></scales>
<clustering>
<clus scale="   21.129">  2  9  1 -1</clus>
<clus scale="   84.442">  5  6 -1 -1</clus>
<clus scale="   86.466">  1  5  2 -1</clus>
<clus scale="   90.859">  7  8 -1 -1</clus>
<clus scale="   86.466">  1  5  2 -1</clus>
</clustering>
</event>
<event>
 9    1  0.1484717E-005  0.1078450E+03  0.7546771E-02  0.1268496E+00
         -1   -1    0    0    0  501 -0.00000000000E+00  0.00000000000E+00  0.19793455058E+03  0.19793455058E+03  0.00000000000E+00 0.  1.
          1   -1    0    0  502    0  0.00000000000E+00 -0.00000000000E+00 -0.14490147267E+03  0.14490147267E+03  0.00000000000E+00 0. -1.
         23    2    1    2    0    0 -0.74884089550E+02 -0.18996228478E+02  0.10318492410E+03  0.15299893112E+03  0.82420026689E+02 0.  0.
         23    2    1    2    0    0  0.52428552836E+02 -0.12658141341E+02 -0.86116914717E+02  0.13692455664E+03  0.91778153805E+02 0.  0.
        -11    1    4    4    0    0  0.23671591774E+02 -0.33452774706E+02 -0.92220215858E+02  0.10091580949E+03  0.00000000000E+00 0.  1.
         11    1    4    4    0    0  0.28756961062E+02  0.20794633365E+02  0.61033011403E+01  0.36008747147E+02  0.00000000000E+00 0. -1.
        -11    1    3    3    0    0 -0.32971310363E+02  0.87642295496E+01 -0.42535777414E+01  0.34380400671E+02  0.00000000000E+00 0. -1.
         11    1    3    3    0    0 -0.41912779186E+02 -0.27760458028E+02  0.10743850184E+03  0.11861853045E+03  0.00000000000E+00 0.  1.
         21    1    1    2  502  501  0.22455536713E+02  0.31654369819E+02  0.35965068525E+02  0.52912535488E+02  0.00000000000E+00 0.  1.
<scales pt_clust_5="13000.00000" pt_clust_6="13000.00000" pt_clust_7="13000.00000" pt_clust_8="13000.00000" pt_clust_9="38.81044"></scales>
<clustering>
<clus scale="   38.810">  1  9  2 -1</clus>
<clus scale="   82.420">  7  8 -1 -1</clus>
<clus scale="   91.778">  5  6 -1 -1</clus>
<clus scale="  100.002">  1  7  2 -1</clus>
<clus scale="  107.845">  2  5  1 -1</clus>
</clustering>
</event>
<event>
 9    1  0.1484717E-005  0.1540778E+03  0.7546771E-02  0.1196560E+00
         -2   -1    0    0    0  501 -0.00000000000E+00  0.00000000000E+00  0.14667676068E+03  0.14667676068E+03  0.00000000000E+00 0.  1.
          2   -1    0    0  502    0  0.00000000000E+00 -0.00000000000E+00 -0.40920784158E+03  0.40920784158E+03  0.00000000000E+00 0. -1.
         23    2    1    2    0    0  0.91397377155E+02  0.43452107142E+02  0.18693911279E+02  0.14106363303E+03  0.96477562574E+02 0.  0.
         23    2    1    2    0    0 -0.11306563314E+03 -0.51408723594E+02 -0.32817600753E+03  0.36250253170E+03  0.91004941167E+02 0.  0.
        -11    1    3    3    0    0  0.87234817329E+02  0.18350577379E+02  0.48814662133E+02  0.10163428695E+03  0.00000000000E+00 0.  1.
         11    1    3    3    0    0  0.41625598262E+01  0.25101529762E+02 -0.30120750854E+02  0.39429346086E+02  0.00000000000E+00 0. -1.
        -11    1    4    4    0    0 -0.47321584393E+02 -0.14833722825E+02 -0.37297107025E+02  0.62051961087E+02  0.00000000000E+00 0.  1.
         11    1    4    4    0    0 -0.65744048742E+02 -0.36575000770E+02 -0.29087890050E+03  0.30045057062E+03  0.00000000000E+00 0. -1.
         21    1    1    2  502  501  0.21668255980E+02  0.79566164526E+01  0.46951015345E+02  0.52318437520E+02  0.00000000000E+00 0.  1.
<scales pt_clust_5="13000.00000" pt_clust_6="13000.00000" pt_clust_7="13000.00000" pt_clust_8="13000.00000" pt_clust_9="23.08292"></scales>
<clustering>
<clus scale="   23.083">  1  9  2 -1</clus>
<clus scale="   91.005">  7  8 -1 -1</clus>
<clus scale="   96.478">  5  6 -1 -1</clus>
<clus scale="  150.712">  2  7  1 -1</clus>
<clus scale="  150.712">  2  5  1 -1</clus>
</clustering>
</event>
<event>
 9    1  0.1484717E-005  0.1565354E+03  0.7546771E-02  0.1192774E+00
         -2   -1    0    0    0  501 -0.00000000000E+00  0.00000000000E+00  0.50654369445E+02  0.50654369445E+02  0.00000000000E+00 0.  1.
          2   -1    0    0  502    0  0.00000000000E+00 -0.00000000000E+00 -0.11620088940E+04  0.11620088940E+04  0.00000000000E+00 0. -1.
         23    2    1    2    0    0 -0.14437262555E+03  0.14005526517E+02 -0.50293531501E+03  0.53131134490E+03  0.91149351859E+02 0.  0.
         23    2    1    2    0    0  0.10391738693E+03 -0.61183515255E+02 -0.59997792393E+03  0.61863314736E+03  0.90505336621E+02 0.  0.
        -11    1    4    4    0    0  0.14048707791E+02  0.19830396922E+02 -0.51198009572E+02  0.56673159580E+02  0.00000000000E+00 0.  1.
         11    1    4    4    0    0  0.89868679137E+02 -0.81013912176E+02 -0.54877991436E+03  0.56195998778E+03  0.00000000000E+00 0. -1.
        -11    1    3    3    0    0 -0.52131040886E+02  0.48399134945E+02 -0.17458107542E+03  0.18851703791E+03  0.00000000000E+00 0.  1.
         11    1    3    3    0    0 -0.92241584669E+02 -0.34393608429E+02 -0.32835423960E+03  0.34279430699E+03  0.00000000000E+00 0. -1.
         21    1    1    2  502  501  0.40455238627E+02  0.47177988738E+02 -0.84412855770E+01  0.62718771161E+02  0.00000000000E+00 0.  1.
<scales pt_clust_5="13000.00000" pt_clust_6="13000.00000" pt_clust_7="13000.00000" pt_clust_8="13000.00000" pt_clust_9="62.14812"></scales>
<clustering>
<clus scale="   62.148">  1  9  2 -1</clus>
<clus scale="   90.505">  5  6 -1 -1</clus>
<clus scale="   91.149">  7  8 -1 -1</clus>
<clus scale="  156.161">  2  5  1 -1</clus>
<clus scale="  156.161">  2  5  1 -1</clus>
</clustering>
</event>
<event>
 9    1  0.1484717E-005  0.1111720E+03  0.7546771E-02  0.1267061E+00
         -2   -1    0    0    0  501 -0.00000000000E+00  0.00000000000E+00  0.43447839629E+02  0.43447839629E+02  0.00000000000E+00 0.  1.
          2   -1    0    0  502    0  0.00000000000E+00 -0.00000000000E+00 -0.35640080797E+03  0.35640080797E+03  0.00000000000E+00 0. -1.
         23    2    1    2    0    0 -0.48858688068E+01 -0.35448382162E+02 -0.91362917515E+02  0.13368475884E+03  0.90796324467E+02 0.  0.
         23    2    1    2    0    0 -0.33989840995E+01  0.16676346104E+02 -0.21957030202E+03  0.24554575328E+03  0.10859072619E+03 0.  0.
        -13    1    3    3    0    0  0.21308154224E+02 -0.46127962928E+02 -0.16131389343E+02  0.53310863081E+02  0.00000000000E+00 0.  1.
         13    1    3    3    0    0 -0.26194023031E+02  0.10679580766E+02 -0.75231528172E+02  0.80373895756E+02  0.00000000000E+00 0. -1.
        -13    1    4    4    0    0 -0.38964756542E+02  0.19635989724E+02 -0.20027898221E+03  0.20497681591E+03  0.00000000000E+00 0. -1.
         13    1    4    4    0    0  0.35565772443E+02 -0.29596436198E+01 -0.19291319813E+02  0.40568937377E+02  0.00000000000E+00 0.  1.
         21    1    1    2  502  501  0.82848529062E+01  0.18772036058E+02 -0.20197488071E+01  0.20618135480E+02  0.00000000000E+00 0.  1.
<scales pt_clust_5="13000.00000" pt_clust_6="13000.00000" pt_clust_7="13000.00000" pt_clust_8="13000.00000" pt_clust_9="20.51897"></scales>
<clustering>
<clus scale="   20.519">  1  9  2 -1</clus>
<clus scale="   90.796">  5  6 -1 -1</clus>
<clus scale="   93.868">  1  5  2 -1</clus>
<clus scale="  108.591">  7  8 -1 -1</clus>
<clus scale="  111.172">  2  5  1 -1</clus>
</clustering>
</event>
<event>
 9    1  0.1484717E-005  0.1172759E+03  0.7546771E-02  0.1247855E+00
         -1   -1    0    0    0  501 -0.00000000000E+00  0.00000000000E+00  0.65102434406E+02  0.65102434406E+02  0.00000000000E+00 0.  1.
          1   -1    0    0  502    0  0.00000000000E+00 -0.00000000000E+00 -0.32098673497E+03  0.32098673497E+03  0.00000000000E+00 0. -1.
         23    2    1    2    0    0  0.47302874306E+02  0.23478677705E+02 -0.64162509920E+02  0.12293577790E+03  0.90595626734E+02 0.  0.
         23    2    1    2    0    0 -0.62240985709E+02 -0.66445296522E+02 -0.16837396843E+03  0.21202220426E+03  0.91184999428E+02 0.  0.
        -11    1    4    4    0    0 -0.85656539937E+02 -0.43579907536E+02 -0.12728309365E+03  0.15949055490E+03  0.00000000000E+00 0. -1.
         11    1    4    4    0    0  0.23415554228E+02 -0.22865388986E+02 -0.41090874782E+02  0.52531649352E+02  0.00000000000E+00 0.  1.
        -13    1    3    3    0    0  0.34202057531E+02  0.48354695832E+02 -0.72493702962E+02  0.93612468814E+02  0.00000000000E+00 0. -1.
         13    1    3    3    0    0  0.13100816775E+02 -0.24876018127E+02  0.83311930417E+01  0.29323309082E+02  0.00000000000E+00 0.  1.
         21    1    1    2  502  501  0.14938111403E+02  0.42966618817E+02 -0.23347822213E+02  0.51131187224E+02  0.00000000000E+00 0.  1.
<scales pt_clust_5="13000.00000" pt_clust_6="13000.00000" pt_clust_7="13000.00000" pt_clust_8="13000.00000" pt_clust_9="45.48931"></scales>
<clustering>
<clus scale="   45.489">  1  9  2 -1</clus>
<clus scale="   90.596">  7  8 -1 -1</clus>
<clus scale="   91.185">  5  6 -1 -1</clus>
<clus scale="  116.818">  1  7  2 -1</clus>
<clus scale="  117.276">  2  5  1 -1</clus>
</clustering>
</event>
<event>
 9    1  0.1484717E-005  0.9400551E+02  0.7546771E-02  0.1293996E+00
          3   -1    0    0  502    0  0.00000000000E+00  0.00000000000E+00  0.14618168088E+03  0.14618168088E+03  0.00000000000E+00 0. -1.
         -3   -1    0    0    0  501 -0.00000000000E+00 -0.00000000000E+00 -0.18317490952E+03  0.18317490952E+03  0.00000000000E+00 0.  1.
         23    2    1    2    0    0 -0.19966289685E+01 -0.14993807273E+02 -0.27341148794E+02  0.96361535095E+02  0.91154847621E+02 0.  0.
         23    2    1    2    0    0 -0.22587678459E+02 -0.17414627110E+02  0.85883574142E+02  0.12915982057E+03  0.92156380601E+02 0.  0.
        -13    1    4    4    0    0  0.12550666097E+02 -0.38372162541E+02  0.79619392394E+01  0.41150146464E+02  0.00000000000E+00 0.  1.
         13    1    4    4    0    0 -0.35138344556E+02  0.20957535431E+02  0.77921634903E+02  0.88009674101E+02  0.00000000000E+00 0. -1.
        -13    1    3    3    0    0  0.20536796014E+02 -0.32015752148E+02 -0.48093186197E+02  0.61316579607E+02  0.00000000000E+00 0.  1.
         13    1    3    3    0    0 -0.22533424983E+02  0.17021944875E+02  0.20752037403E+02  0.35044955488E+02  0.00000000000E+00 0. -1.
         21    1    1    2  502  501  0.24584307427E+02  0.32408434383E+02 -0.95535653991E+02  0.10383523474E+03  0.00000000000E+00 0.  1.
<scales pt_clust_5="13000.00000" pt_clust_6="13000.00000" pt_clust_7="13000.00000" pt_clust_8="13000.00000" pt_clust_9="40.67794"></scales>
<clustering>
<clus scale="   40.678">  2  9  1 -1</clus>
<clus scale="   91.155">  7  8 -1 -1</clus>
<clus scale="   92.156">  5  6 -1 -1</clus>
<clus scale="   93.024">  2  7  1 -1</clus>
<clus scale="   94.006">  1  5  2 -1</clus>
</clustering>
</event>
<event>
 9    1  0.1484717E-005  0.1534096E+03  0.7546771E-02  0.1197220E+00
         -1   -1    0    0    0  501 -0.00000000000E+00  0.00000000000E+00  0.15474663897E+03  0.15474663897E+03  0.00000000000E+00 0.  1.
          1   -1    0    0  502    0  0.00000000000E+00 -0.00000000000E+00 -0.26041284477E+03  0.26041284477E+03  0.00000000000E+00 0. -1.
         23    2    1    2    0    0  0.30181589261E+02 -0.13881564580E+03 -0.11669262274E+02  0.17261305821E+03  0.97356994260E+02 0.  0.
         23    2    1    2    0    0 -0.51642460881E+02  0.97372482129E+02 -0.12145208936E+03  0.18839949710E+03  0.92711468854E+02 0.  0.
        -11    1    3    3    0    0  0.41477048592E+02 -0.73428485188E+02 -0.47924122466E+02  0.96999018093E+02  0.00000000000E+00 0. -1.
         11    1    3    3    0    0 -0.11295459331E+02 -0.65387160615E+02  0.36254860191E+02  0.75614040114E+02  0.00000000000E+00 0.  1.
        -13    1    4    4    0    0 -0.19536160506E+02 -0.13025612335E+02 -0.43688293898E+02  0.49598338356E+02  0.00000000000E+00 0. -1.
         13    1    4    4    0    0 -0.32106300375E+02  0.11039809446E+03 -0.77763795464E+02  0.13880115875E+03  0.00000000000E+00 0.  1.
         21    1    1    2  502  501  0.21460871619E+02  0.41443163674E+02  0.27455145838E+02  0.54146928435E+02  0.00000000000E+00 0.  1.
<scales pt_clust_5="13000.00000" pt_clust_6="13000.00000" pt_clust_7="13000.00000" pt_clust_8="13000.00000" pt_clust_9="46.67017"></scales>
<clustering>
<clus scale="   46.670">  1  9  2 -1</clus>
<clus scale="   92.711">  7  8 -1 -1</clus>
<clus scale="   97.357">  5  6 -1 -1</clus>
<clus scale="  150.504">  2  7  1 -1</clus>
<clus scale="  150.504">  2  5  1 -1</clus>
</clustering>
</event>
<event>
 9    1  0.1484717E-005  0.1795219E+03  0.7546771E-02  0.1176342E+00
          2   -1    0    0  502    0  0.00000000000E+00  0.00000000000E+00  0.45915049100E+03  0.45915049100E+03  0.00000000000E+00 0. -1.
         -2   -1    0    0    0  501 -0.00000000000E+00 -0.00000000000E+00 -0.24451753931E+03  0.24451753931E+03  0.00000000000E+00 0.  1.
         23    2    1    2    0    0 -0.23988191665E+02 -0.16417698804E+03  0.22899933015E+03  0.29735003996E+03  0.91906671772E+02 0.  0.
         23    2    1    2    0    0 -0.98534963228E+02  0.64609953831E+02  0.12574021779E+03  0.19523654612E+03  0.91777565121E+02 0.  0.
        -13    1    4    4    0    0 -0.54283653912E+02  0.69716104807E+02  0.36701517534E+02  0.95676808793E+02  0.00000000000E+00 0. -1.
         13    1    4    4    0    0 -0.44251309317E+02 -0.51061509760E+01  0.89038700253E+02  0.99559737328E+02  0.00000000000E+00 0.  1.
        -13    1    3    3    0    0 -0.38179358310E+02 -0.10905374649E+03  0.20552837918E+03  0.23578018932E+03  0.00000000000E+00 0. -1.
         13    1    3    3    0    0  0.14191166645E+02 -0.55123241547E+02  0.23470950970E+02  0.61569850648E+02  0.00000000000E+00 0.  1.
         21    1    1    2  502  501  0.12252315489E+03  0.99567034204E+02 -0.14010659625E+03  0.21108144423E+03  0.00000000000E+00 0.  1.
<scales pt_clust_5="13000.00000" pt_clust_6="13000.00000" pt_clust_7="13000.00000" pt_clust_8="13000.00000" pt_clust_9="154.21180"></scales>
<clustering>
<clus scale="   91.778">  5  6 -1 -1</clus>
<clus scale="   91.907">  7  8 -1 -1</clus>
<clus scale="  149.354">  1  5  2 -1</clus>
<clus scale="  154.212">  2  9  1 -1</clus>
<clus scale="  149.354">  1  5  2 -1</clus>
</clustering>
</event>
<event>
 9    1  0.1484717E-005  0.1450624E+03  0.7546771E-02  0.1206938E+00
         -1   -1    0    0    0  501 -0.00000000000E+00  0.00000000000E+00  0.35089595664E+03  0.35089595664E+03  0.00000000000E+00 0.  1.
          1   -1    0    0  502    0  0.00000000000E+00 -0.00000000000E+00 -0.14036514111E+03  0.14036514111E+03  0.00000000000E+00 0. -1.
         23    2    1    2    0    0 -0.82194436774E+02  0.73433191638E+02  0.22022845591E+03  0.26300824726E+03  0.92327711253E+02 0.  0.
         23    2    1    2    0    0  0.44851330505E+02 -0.11976607335E+03  0.25608852218E+02  0.15905897842E+03  0.91040601552E+02 0.  0.
        -11    1    4    4    0    0  0.72265253778E+02 -0.93221562805E+02  0.12062628728E+02  0.11856657913E+03  0.00000000000E+00 0. -1.
         11    1    4    4    0    0 -0.27413923273E+02 -0.26544510542E+02  0.13546223490E+02  0.40492399287E+02  0.00000000000E+00 0.  1.
        -13    1    3    3    0    0 -0.26866867134E+02  0.74599248960E+02  0.81769577728E+02  0.11389969419E+03  0.00000000000E+00 0. -1.
         13    1    3    3    0    0 -0.55327569641E+02 -0.11660573218E+01  0.13845887818E+03  0.14910855307E+03  0.00000000000E+00 0.  1.
         21    1    1    2  502  501  0.37343106270E+02  0.46332881709E+02 -0.35306492588E+02  0.69193872071E+02  0.00000000000E+00 0. -1.
<scales pt_clust_5="13000.00000" pt_clust_6="13000.00000" pt_clust_7="13000.00000" pt_clust_8="13000.00000" pt_clust_9="59.50835"></scales>
<clustering>
<clus scale="   59.508">  2  9  1 -1</clus>
<clus scale="   91.041">  5  6 -1 -1</clus>
<clus scale="   92.328">  7  8 -1 -1</clus>
<clus scale="  144.247">  2  5  1 -1</clus>
<clus scale="   59.508">  2  5  1 -1</clus>
</clustering>
</event>
<event>
 9    1  0.1484717E-005  0.1191168E+03  0.7546771E-02  0.1245763E+00
         -2   -1    0    0    0  501 -0.00000000000E+00  0.00000000000E+00  0.94972055557E+02  0.94972055557E+02  0.00000000000E+00 0.  1.
          2   -1    0    0  502    0  0.00000000000E+00 -0.00000000000E+00 -0.31627872397E+03  0.31627872397E+03  0.00000000000E+00 0. -1.
         23    2    1    2    0    0  0.63781152710E+02  0.25188016081E+02 -0.41388034982E+02  0.11843688866E+03  0.87245948673E+02 0.  0.
         23    2    1    2    0    0 -0.82445737847E+02  0.74199281374E+01 -0.21087190347E+03  0.24413381599E+03  0.91005524088E+02 0.  0.
        -11    1    4    4    0    0 -0.69421537831E+02 -0.35204408638E+02 -0.14553600529E+03  0.16504371887E+03  0.00000000000E+00 0. -1.
         11    1    4    4    0    0 -0.13024200016E+02  0.42624336776E+02 -0.65335898172E+02  0.79090097115E+02  0.00000000000E+00 0.  1.
        -13    1    3    3    0    0  0.10148614720E+02  0.43945154826E+02  0.46055835276E+01  0.45336325535E+02  0.00000000000E+00 0.  1.
         13    1    3    3    0    0  0.53632537990E+02 -0.18757138744E+02 -0.45993618509E+02  0.73100563121E+02  0.00000000000E+00 0. -1.
         21    1    1    2  502  501  0.18664585137E+02 -0.32607944219E+02  0.30953270036E+02  0.48680074882E+02  0.00000000000E+00 0.  1.
<scales pt_clust_5="13000.00000" pt_clust_6="13000.00000" pt_clust_7="13000.00000" pt_clust_8="13000.00000" pt_clust_9="37.57186"></scales>
<clustering>
<clus scale="   37.572">  1  9  2 -1</clus>
<clus scale="   87.246">  7  8 -1 -1</clus>
<clus scale="   91.006">  5  6 -1 -1</clus>
<clus scale="  116.270">  1  7  2 -1</clus>
<clus scale="  119.117">  2  5  1 -1</clus>
</clustering>
</event>
<event>
 9    1  0.1484717E-005  0.9276539E+02  0.7546771E-02  0.1298588E+00
          1   -1    0    0  502    0  0.00000000000E+00  0.00000000000E+00  0.43963240526E+02  0.43963240526E+02  0.00000000000E+00 0. -1.
         -1   -1    0    0    0  501 -0.00000000000E+00 -0.00000000000E+00 -0.39395393519E+03  0.39395393519E+03  0.00000000000E+00 0.  1.
         23    2    1    2    0    0  0.20332940423E+02 -0.24957468455E+02 -0.25946732941E+03  0.27506495287E+03  0.85446647493E+02 0.  0.
         23    2    1    2    0    0 -0.98060745490E+01  0.55620387864E+02 -0.49698465300E+02  0.11072063944E+03  0.81236296698E+02 0.  0.
        -13    1    3    3    0    0  0.25903093818E+02  0.19687362542E+02 -0.18668873357E+03  0.18950262731E+03  0.00000000000E+00 0.  1.
         13    1    3    3    0    0 -0.55701533957E+01 -0.44644830997E+02 -0.72778595838E+02  0.85562325563E+02  0.00000000000E+00 0. -1.
        -13    1    4    4    0    0  0.26504239083E+02  0.49228000334E+02 -0.10461617268E+02  0.56879839505E+02  0.00000000000E+00 0.  1.
         13    1    4    4    0    0 -0.36310313632E+02  0.63923875302E+01 -0.39236848032E+02  0.53840799937E+02  0.00000000000E+00 0. -1.
         21    1    1    2  502  501 -0.10526865874E+02 -0.30662919409E+02 -0.40824899949E+02  0.52131583399E+02  0.00000000000E+00 0. -1.
<scales pt_clust_5="13000.00000" pt_clust_6="13000.00000" pt_clust_7="13000.00000" pt_clust_8="13000.00000" pt_clust_9="32.41959"></scales>
<clustering>
<clus scale="   32.420">  1  9  2 -1</clus>
<clus scale="   81.236">  7  8 -1 -1</clus>
<clus scale="   85.447">  5  6 -1 -1</clus>
<clus scale="   88.902">  1  7  2 -1</clus>
<clus scale="   32.420">  1  5  2 -1</clus>
</clustering>
</event>
<event>
 9    1  0.1484717E-005  0.1083062E+03  0.7546771E-02  0.1266081E+00
         -3   -1    0    0    0  501 -0.00000000000E+00  0.00000000000E+00  0.33850367392E+03  0.33850367392E+03  0.00000000000E+00 0.  1.
          3   -1    0    0  502    0  0.00000000000E+00 -0.00000000000E+00 -0.10064824376E+03  0.10064824376E+03  0.00000000000E+00 0. -1.
         23    2    1    2    0    0 -0.27612746453E+02  0.59136968361E+02  0.68908217993E+02  0.13404306589E+03  0.94654932323E+02 0.  0.
         23    2    1    2    0    0  0.41308025135E+02 -0.28375616647E+02 -0.27459840423E+02  0.10583629541E+03  0.89082826790E+02 0.  0.
        -13    1    4    4    0    0  0.21024231136E+02  0.49076749800E+01  0.29659819704E+02  0.36685262346E+02  0.00000000000E+00 0.  1.
         13    1    4    4    0    0  0.20283793999E+02 -0.33283291627E+02 -0.57119660126E+02  0.69151033061E+02  0.00000000000E+00 0. -1.
        -13    1    3    3    0    0  0.33563273077E+02  0.67527236853E+01  0.24214131403E+02  0.41933479899E+02  0.00000000000E+00 0. -1.
         13    1    3    3    0    0 -0.61176019530E+02  0.52384244675E+02  0.44694086590E+02  0.92109585993E+02  0.00000000000E+00 0.  1.
         21    1    1    2  502  501 -0.13695278682E+02 -0.30761351714E+02  0.19640705260E+03  0.19927255638E+03  0.00000000000E+00 0.  1.
<scales pt_clust_5="13000.00000" pt_clust_6="13000.00000" pt_clust_7="13000.00000" pt_clust_8="13000.00000" pt_clust_9="33.67226"></scales>
<clustering>
<clus scale="   33.672">  1  9  2 -1</clus>
<clus scale="   89.083">  5  6 -1 -1</clus>
<clus scale="   94.655">  7  8 -1 -1</clus>
<clus scale="  103.472">  2  5  1 -1</clus>
<clus scale="  103.472">  2  5  1 -1</clus>
</clustering>
</event>
<event>
 9    1  0.1484717E-005  0.9345708E+02  0.7546771E-02  0.1295503E+00
         -1   -1    0    0    0  501 -0.00000000000E+00  0.00000000000E+00  0.32595403543E+02  0.32595403543E+02  0.00000000000E+00 0.  1.
          1   -1    0    0  502    0  0.00000000000E+00 -0.00000000000E+00 -0.45401703866E+03  0.45401703866E+03  0.00000000000E+00 0. -1.
         23    2    1    2    0    0 -0.23125922421E+01 -0.10412607448E+02 -0.18969404362E+03  0.21143217946E+03  0.92768345087E+02 0.  0.
         23    2    1    2    0    0 -0.21156739991E+02 -0.61984719502E+00 -0.23091964873E+03  0.24923460062E+03  0.91356500149E+02 0.  0.
        -11    1    4    4    0    0  0.31294892671E+02  0.97564040186E+01 -0.13974782911E+03  0.14354098184E+03  0.00000000000E+00 0. -1.
         11    1    4    4    0    0 -0.52451632662E+02 -0.10376251214E+02 -0.91171819622E+02  0.10569361878E+03  0.00000000000E+00 0.  1.
        -13    1    3    3    0    0  0.20492288378E+02 -0.46328835992E+02 -0.10954294106E+03  0.12068948116E+03  0.00000000000E+00 0. -1.
         13    1    3    3    0    0 -0.22804880620E+02  0.35916228544E+02 -0.80151102566E+02  0.90742698304E+02  0.00000000000E+00 0.  1.
         21    1    1    2  502  501  0.23469332233E+02  0.11032454643E+02 -0.80794275652E+00  0.25945662112E+02  0.00000000000E+00 0.  1.
<scales pt_clust_5="13000.00000" pt_clust_6="13000.00000" pt_clust_7="13000.00000" pt_clust_8="13000.00000" pt_clust_9="25.93308"></scales>
<clustering>
<clus scale="   25.933">  1  9  2 -1</clus>
<clus scale="   91.357">  5  6 -1 -1</clus>
<clus scale="   92.056">  2  5  1 -1</clus>
<clus scale="   92.768">  7  8 -1 -1</clus>
<clus scale="   92.056">  2  5  1 -1</clus>
</clustering>
</event>
<event>
 9    1  0.1484717E-005  0.9551556E+02  0.7546771E-02  0.1290040E+00
         -2   -1    0    0    0  501 -0.00000000000E+00  0.00000000000E+00  0.21528237368E+03  0.21528237368E+03  0.00000000000E+00 0.  1.
          2   -1    0    0  502    0  0.00000000000E+00 -0.00000000000E+00 -0.81489839413E+02  0.81489839413E+02  0.00000000000E+00 0. -1.
         23    2    1    2    0    0  0.74583690792E+01 -0.24387925279E+01  0.86840802611E+02  0.12677131665E+03  0.92022099241E+02 0.  0.
         23    2    1    2    0    0  0.37590240780E+02 -0.16388520177E+02 -0.21812499396E+01  0.10073405853E+03  0.91983601261E+02 0.  0.
        -11    1    4    4    0    0  0.67920632032E+02 -0.42915760042E+01 -0.13124706194E+01  0.68068733346E+02  0.00000000000E+00 0. -1.
         11    1    4    4    0    0 -0.30330391251E+02 -0.12096944173E+02 -0.86877932014E+00  0.32665325183E+02  0.00000000000E+00 0.  1.
        -13    1    3    3    0    0 -0.38884134048E+02 -0.71329808998E+01  0.17488529782E+02  0.43228508778E+02  0.00000000000E+00 0.  1.
         13    1    3    3    0    0  0.46342503128E+02  0.46941883719E+01  0.69352272829E+02  0.83542807873E+02  0.00000000000E+00 0. -1.
         21    1    1    2  502  501 -0.45048609860E+02  0.18827312705E+02  0.49132981594E+02  0.69266837912E+02  0.00000000000E+00 0. -1.
<scales pt_clust_5="13000.00000" pt_clust_6="13000.00000" pt_clust_7="13000.00000" pt_clust_8="13000.00000" pt_clust_9="48.82463"></scales>
<clustering>
<clus scale="   48.825">  1  9  2 -1</clus>
<clus scale="   91.984">  5  6 -1 -1</clus>
<clus scale="   92.022">  7  8 -1 -1</clus>
<clus scale="   95.478">  2  5  1 -1</clus>
<clus scale="   95.478">  2  5  1 -1</clus>
</clustering>
</event>
<event>
 9    1  0.1484717E-005  0.1217613E+03  0.7546771E-02  0.1247252E+00
         -1   -1    0    0    0  501 -0.00000000000E+00  0.00000000000E+00  0.38307821009E+03  0.38307821009E+03  0.00000000000E+00 0.  1.
          1   -1    0    0  502    0  0.00000000000E+00 -0.00000000000E+00 -0.16749731518E+03  0.16749731518E+03  0.00000000000E+00 0. -1.
         23    2    1    2    0    0 -0.75801005901E+02 -0.77219797625E+02  0.27685531909E+03  0.31614132674E+03  0.10764655648E+03 0.  0.
         23    2    1    2    0    0  0.42333537487E+02  0.32773755316E+02 -0.11647178853E+03  0.15606155565E+03  0.89012831632E+02 0.  0.
        -11    1    4    4    0    0  0.11129888545E+02 -0.27010088816E+02 -0.64877557952E+02  0.71151365712E+02  0.00000000000E+00 0.  1.
         11    1    4    4    0    0  0.31203648942E+02  0.59783844133E+02 -0.51594230582E+02  0.84910189942E+02  0.00000000000E+00 0. -1.
        -13    1    3    3    0    0 -0.43064276122E+02 -0.10051979917E+03  0.17166654091E+03  0.20353909495E+03  0.00000000000E+00 0.  1.
         13    1    3    3    0    0 -0.32736729779E+02  0.23300001550E+02  0.10518877818E+03  0.11260223179E+03  0.00000000000E+00 0. -1.
         21    1    1    2  502  501  0.33467468414E+02  0.44446042309E+02  0.55197364351E+02  0.78372642869E+02  0.00000000000E+00 0.  1.
<scales pt_clust_5="13000.00000" pt_clust_6="13000.00000" pt_clust_7="13000.00000" pt_clust_8="13000.00000" pt_clust_9="55.63742"></scales>
<clustering>
<clus scale="   55.637">  1  9  2 -1</clus>
<clus scale="   89.013">  5  6 -1 -1</clus>
<clus scale="  105.647">  2  5  1 -1</clus>
<clus scale="  107.647">  7  8 -1 -1</clus>
<clus scale="  105.647">  2  5  1 -1</clus>
</clustering>
</event>
<event>
 9    1  0.1484717E-005  0.9105439E+02  0.7546771E-02  0.1300388E+00
         -1   -1    0    0    0  501 -0.00000000000E+00  0.00000000000E+00  0.60316845709E+02  0.60316845709E+02  0.00000000000E+00 0.  1.
          1   -1    0    0  502    0  0.00000000000E+00 -0.00000000000E+00 -0.28507603693E+03  0.28507603693E+03  0.00000000000E+00 0. -1.
         23    2    1    2    0    0 -0.26641949458E+02  0.12280768425E+02 -0.56744657666E+02  0.10909175199E+03  0.88433271090E+02 0.  0.
         23    2    1    2    0    0  0.18277776337E+02  0.14124605214E+02 -0.18322237518E+03  0.20470237124E+03  0.88312176091E+02 0.  0.
        -11    1    4    4    0    0  0.41907456468E+02  0.28344672600E+02 -0.60246568128E+02  0.78672131938E+02  0.00000000000E+00 0. -1.
         11    1    4    4    0    0 -0.23629680130E+02 -0.14220067386E+02 -0.12297580705E+03  0.12603023930E+03  0.00000000000E+00 0.  1.
        -13    1    3    3    0    0  0.28362926229E+02 -0.12380688529E+02 -0.91045578339E+01  0.32258797344E+02  0.00000000000E+00 0.  1.
         13    1    3    3    0    0 -0.55004875687E+02  0.24661456954E+02 -0.47640099832E+02  0.76832954651E+02  0.00000000000E+00 0. -1.
         21    1    1    2  502  501  0.83641731206E+01 -0.26405373639E+02  0.15207841622E+02  0.31598759403E+02  0.00000000000E+00 0.  1.
<scales pt_clust_5="13000.00000" pt_clust_6="13000.00000" pt_clust_7="13000.00000" pt_clust_8="13000.00000" pt_clust_9="27.69843"></scales>
<clustering>
<clus scale="   27.698">  1  9  2 -1</clus>
<clus scale="   88.312">  5  6 -1 -1</clus>
<clus scale="   88.433">  7  8 -1 -1</clus>
<clus scale="   90.937">  2  5  1 -1</clus>
<clus scale="   90.937">  2  5  1 -1</clus>
</clustering>
</event>
<event>
 9    1  0.1484717E-005  0.1005057E+03  0.7546771E-02  0.1283241E+00
         -1   -1    0    0    0  501 -0.00000000000E+00  0.00000000000E+00  0.25998370716E+02  0.25998370716E+02  0.00000000000E+00 0.  1.
          1   -1    0    0  502    0  0.00000000000E+00 -0.00000000000E+00 -0.52306329584E+03  0.52306329584E+03  0.00000000000E+00 0. -1.
         23    2    1    2    0    0  0.41833733049E+02 -0.70707610387E+01 -0.20179985528E+03  0.22212307984E+03  0.82555582046E+02 0.  0.
         23    2    1    2    0    0 -0.43811759388E+02 -0.14575964531E+02 -0.28547441470E+03  0.30309848931E+03  0.90780635420E+02 0.  0.
        -11    1    4    4    0    0 -0.57189119706E+02 -0.40570259886E+02 -0.22916894801E+03  0.23965589526E+03  0.00000000000E+00 0.  1.
         11    1    4    4    0    0  0.13377360318E+02  0.25994295355E+02 -0.56305466697E+02  0.63442594052E+02  0.00000000000E+00 0. -1.
        -11    1    3    3    0    0  0.25200339254E+02 -0.40207023180E+02 -0.65575712677E+02  0.80943411743E+02  0.00000000000E+00 0.  1.
         11    1    3    3    0    0  0.16633393795E+02  0.33136262141E+02 -0.13622414260E+03  0.14117966810E+03  0.00000000000E+00 0. -1.
         21    1    1    2  502  501  0.19780263386E+01  0.21646725570E+02 -0.97906551422E+01  0.23840097403E+02  0.00000000000E+00 0. -1.
<scales pt_clust_5="13000.00000" pt_clust_6="13000.00000" pt_clust_7="13000.00000" pt_clust_8="13000.00000" pt_clust_9="21.73691"></scales>
<clustering>
<clus scale="   21.737">  1  9  2 -1</clus>
<clus scale="   82.556">  7  8 -1 -1</clus>
<clus scale="   90.781">  5  6 -1 -1</clus>
<clus scale="   93.143">  1  7  2 -1</clus>
<clus scale="  100.506">  2  5  1 -1</clus>
</clustering>
</event>
<event>
 9    1  0.1484717E-005  0.1155734E+03  0.7546771E-02  0.1253202E+00
          2   -1    0    0  502    0  0.00000000000E+00  0.00000000000E+00  0.17338757633E+03  0.17338757633E+03  0.00000000000E+00 0. -1.
         -2   -1    0    0    0  501 -0.00000000000E+00 -0.00000000000E+00 -0.13660888196E+03  0.13660888196E+03  0.00000000000E+00 0.  1.
         23    2    1    2    0    0 -0.34273527944E+02  0.58348478530E+02 -0.71813150114E+02  0.13868419728E+03  0.97452339024E+02 0.  0.
         23    2    1    2    0    0  0.20235476282E+02 -0.36141025617E+02  0.10529631234E+03  0.14483399839E+03  0.90409764208E+02 0.  0.
        -13    1    3    3    0    0  0.24237622881E+02  0.39319565018E+02 -0.60513786966E+02  0.76127583497E+02  0.00000000000E+00 0.  1.
         13    1    3    3    0    0 -0.58511150825E+02  0.19028913511E+02 -0.11299363148E+02  0.62556613782E+02  0.00000000000E+00 0. -1.
        -13    1    4    4    0    0  0.36631587298E+00  0.23969212022E+02  0.24938817570E+01  0.24101384991E+02  0.00000000000E+00 0.  1.
         13    1    4    4    0    0  0.19869160409E+02 -0.60110237639E+02  0.10280243058E+03  0.12073261340E+03  0.00000000000E+00 0. -1.
         21    1    1    2  502  501  0.14038051662E+02 -0.22207452912E+02  0.32955321445E+01  0.26478262621E+02  0.00000000000E+00 0.  1.
<scales pt_clust_5="13000.00000" pt_clust_6="13000.00000" pt_clust_7="13000.00000" pt_clust_8="13000.00000" pt_clust_9="26.27238"></scales>
<clustering>
<clus scale="   26.272">  1  9  2 -1</clus>
<clus scale="   90.410">  7  8 -1 -1</clus>
<clus scale="   97.452">  5  6 -1 -1</clus>
<clus scale="  109.700">  1  7  2 -1</clus>
<clus scale="   26.272">  1  5  2 -1</clus>
</clustering>
</event>
<event>
 9    1  0.1484717E-005  0.1122671E+03  0.7546771E-02  0.1266468E+00
         -1   -1    0    0    0  501 -0.00000000000E+00  0.00000000000E+00  0.48378459643E+02  0.48378459643E+02  0.00000000000E+00 0.  1.
          1   -1    0    0  502    0  0.00000000000E+00 -0.00000000000E+00 -0.27487792303E+03  0.27487792303E+03  0.00000000000E+00 0. -1.
         23    2    1    2    0    0  0.56524959902E+01  0.14047834354E+02 -0.81793815462E+02  0.13922156505E+03  0.11163836064E+03 0.  0.
         23    2    1    2    0    0  0.14289476210E+02 -0.81437804015E+01 -0.11779727941E+03  0.15002598929E+03  0.91438985868E+02 0.  0.
        -11    1    4    4    0    0 -0.17793834930E+01 -0.26239960066E+02 -0.12256925093E+03  0.12535917590E+03  0.00000000000E+00 0. -1.
         11    1    4    4    0    0  0.16068859703E+02  0.18096179665E+02  0.47719715161E+01  0.24666813389E+02  0.00000000000E+00 0.  1.
        -11    1    3    3    0    0  0.50725110232E+02  0.31057164849E+02 -0.65237092655E+02  0.88280589908E+02  0.00000000000E+00 0.  1.
         11    1    3    3    0    0 -0.45072614242E+02 -0.17009330495E+02 -0.16556722808E+02  0.50940975144E+02  0.00000000000E+00 0. -1.
         21    1    1    2  502  501 -0.19941972201E+02 -0.59040539522E+01 -0.26908368509E+02  0.34008828326E+02  0.00000000000E+00 0.  1.
<scales pt_clust_5="13000.00000" pt_clust_6="13000.00000" pt_clust_7="13000.00000" pt_clust_8="13000.00000" pt_clust_9="20.79760"></scales>
<clustering>
<clus scale="   20.798">  2  9  1 -1</clus>
<clus scale="   91.439">  5  6 -1 -1</clus>
<clus scale="   92.206">  2  5  1 -1</clus>
<clus scale="  111.638">  7  8 -1 -1</clus>
<clus scale="   20.798">  2  5  1 -1</clus>
</clustering>
</event>
<event>
 9    1  0.1484717E-005  0.1063796E+03  0.7546771E-02  0.1269996E+00
          4   -1    0    0  502    0  0.00000000000E+00  0.00000000000E+00  0.68157971850E+02  0.68157971850E+02  0.00000000000E+00 0. -1.
         -4   -1    0    0    0  501 -0.00000000000E+00 -0.00000000000E+00 -0.20024029095E+03  0.20024029095E+03  0.00000000000E+00 0.  1.
         23    2    1    2    0    0 -0.48956667228E+02  0.43821766801E+00 -0.59141270383E+02  0.11910931152E+03  0.91062565999E+02 0.  0.
         23    2    1    2    0    0  0.36764367823E+02 -0.21285907086E+02 -0.54578675361E+02  0.11894994876E+03  0.96775771372E+02 0.  0.
        -11    1    4    4    0    0  0.23708371426E+01 -0.55244599561E+02 -0.40713823021E+02  0.68667328726E+02  0.00000000000E+00 0.  1.
         11    1    4    4    0    0  0.34393530680E+02  0.33958692476E+02 -0.13864852340E+02  0.50282620036E+02  0.00000000000E+00 0. -1.
        -13    1    3    3    0    0  0.27269200810E+01  0.38835577002E+02 -0.24450769901E+02  0.45972581860E+02  0.00000000000E+00 0. -1.
         13    1    3    3    0    0 -0.51683587309E+02 -0.38397359334E+02 -0.34690500482E+02  0.73136729655E+02  0.00000000000E+00 0.  1.
         21    1    1    2  502  501  0.12192299405E+02  0.20847689418E+02 -0.18362373362E+02  0.30339002527E+02  0.00000000000E+00 0. -1.
<scales pt_clust_5="13000.00000" pt_clust_6="13000.00000" pt_clust_7="13000.00000" pt_clust_8="13000.00000" pt_clust_9="24.15116"></scales>
<clustering>
<clus scale="   24.151">  2  9  1 -1</clus>
<clus scale="   91.063">  7  8 -1 -1</clus>
<clus scale="   96.776">  5  6 -1 -1</clus>
<clus scale="  101.210">  2  7  1 -1</clus>
<clus scale="  106.380">  1  5  2 -1</clus>
</clustering>
</event>
<event>
 9    1  0.1484717E-005  0.1667323E+03  0.7546771E-02  0.1201713E+00
          1   -1    0    0  502    0  0.00000000000E+00  0.00000000000E+00  0.97303182085E+03  0.97303182085E+03  0.00000000000E+00 0. -1.
         -1   -1    0    0    0  501 -0.00000000000E+00 -0.00000000000E+00 -0.59742792518E+02  0.59742792518E+02  0.00000000000E+00 0.  1.
         23    2    1    2    0    0 -0.59066894051E+02 -0.10377661914E+02  0.56293590365E+02  0.12030739331E+03  0.87796963096E+02 0.  0.
         23    2    1    2    0    0  0.54120836478E+02 -0.13340016916E+03  0.46226761043E+03  0.49234035110E+03  0.89347678153E+02 0.  0.
        -13    1    4    4    0    0  0.34875771760E+02 -0.44970245903E+02  0.72306452626E+02  0.92015572398E+02  0.00000000000E+00 0.  1.
         13    1    4    4    0    0  0.19245064719E+02 -0.88429923257E+02  0.38996115781E+03  0.40032477870E+03  0.00000000000E+00 0. -1.
        -13    1    3    3    0    0 -0.69230793707E+02 -0.29445042326E+02  0.62521582943E+02  0.97820558415E+02  0.00000000000E+00 0. -1.
         13    1    3    3    0    0  0.10163899656E+02  0.19067380412E+02 -0.62279925778E+01  0.22486834894E+02  0.00000000000E+00 0.  1.
         21    1    1    2  502  501  0.49460575724E+01  0.14377783107E+03  0.39472782753E+03  0.42012686896E+03  0.00000000000E+00 0.  1.
<scales pt_clust_5="13000.00000" pt_clust_6="13000.00000" pt_clust_7="13000.00000" pt_clust_8="13000.00000" pt_clust_9="140.77162"></scales>
<clustering>
<clus scale="   87.797">  7  8 -1 -1</clus>
<clus scale="   89.348">  5  6 -1 -1</clus>
<clus scale="  106.325">  2  7  1 -1</clus>
<clus scale="  140.772">  2  9  1 -1</clus>
<clus scale="  166.732">  1  5  2 -1</clus>
</clustering>
</event>
<event>
 9    1  0.1484717E-005  0.1055224E+03  0.7546771E-02  0.1269222E+00
         -1   -1    0    0    0  501 -0.00000000000E+00  0.00000000000E+00  0.97192009364E+02  0.97192009364E+02  0.00000000000E+00 0.  1.
          1   -1    0    0  502    0  0.00000000000E+00 -0.00000000000E+00 -0.23003154046E+03  0.23003154046E+03  0.00000000000E+00 0. -1.
         23    2    1    2    0    0 -0.45361000691E+02  0.38661287029E-01  0.27879871684E+02  0.10568668295E+03  0.91294938690E+02 0.  0.
         23    2    1    2    0    0  0.47869005200E+02 -0.27756175820E+02 -0.16145195497E+03  0.19369647659E+03  0.91595547501E+02 0.  0.
        -11    1    3    3    0    0 -0.22483912042E+02 -0.43479407706E+02  0.28258910925E+02  0.56520361303E+02  0.00000000000E+00 0. -1.
         11    1    3    3    0    0 -0.22877088649E+02  0.43518068993E+02 -0.37903924084E+00  0.49166321651E+02  0.00000000000E+00 0.  1.
        -11    1    4    4    0    0 -0.18941870193E+02 -0.34094878602E+02 -0.47620217835E+02  0.61554368975E+02  0.00000000000E+00 0.  1.
         11    1    4    4    0    0  0.66810875393E+02  0.63387027817E+01 -0.11383173714E+03  0.13214210761E+03  0.00000000000E+00 0. -1.
         21    1    1    2  502  501 -0.25080045092E+01  0.27717514533E+02  0.73255219287E+00  0.27840390285E+02  0.00000000000E+00 0. -1.
<scales pt_clust_5="13000.00000" pt_clust_6="13000.00000" pt_clust_7="13000.00000" pt_clust_8="13000.00000" pt_clust_9="27.83075"></scales>
<clustering>
<clus scale="   27.831">  1  9  2 -1</clus>
<clus scale="   91.295">  5  6 -1 -1</clus>
<clus scale="   91.596">  7  8 -1 -1</clus>
<clus scale="  105.262">  1  5  2 -1</clus>
<clus scale="  105.522">  2  5  1 -1</clus>
</clustering>
</event>
<event>
 9    1  0.1484717E-005  0.9466203E+02  0.7546771E-02  0.1295716E+00
         -4   -1    0    0    0  501 -0.00000000000E+00  0.00000000000E+00  0.10711381474E+03  0.10711381474E+03  0.00000000000E+00 0.  1.
          4   -1    0    0  502    0  0.00000000000E+00 -0.00000000000E+00 -0.23887106358E+03  0.23887106358E+03  0.00000000000E+00 0. -1.
         23    2    1    2    0    0  0.31363801402E+01  0.14032996142E+01 -0.46391423496E+02  0.10367780381E+03  0.92655904818E+02 0.  0.
         23    2    1    2    0    0  0.16966125292E+02 -0.22694481312E+02 -0.14778662470E+03  0.17335940352E+03  0.86079657648E+02 0.  0.
        -13    1    4    4    0    0 -0.27420710521E+02 -0.34560587863E+02 -0.82036019820E+02  0.93146326534E+02  0.00000000000E+00 0.  1.
         13    1    4    4    0    0  0.44386835813E+02  0.11866106551E+02 -0.65750604875E+02  0.80213076986E+02  0.00000000000E+00 0. -1.
        -13    1    3    3    0    0 -0.33633614315E+02  0.60602301855E+01 -0.55804289986E+02  0.65437490651E+02  0.00000000000E+00 0. -1.
         13    1    3    3    0    0  0.36769994456E+02 -0.46569305712E+01  0.94128664899E+01  0.38240313155E+02  0.00000000000E+00 0.  1.
         21    1    1    2  502  501 -0.20102505432E+02  0.21291181698E+02  0.62420799359E+02  0.68947670993E+02  0.00000000000E+00 0.  1.
<scales pt_clust_5="13000.00000" pt_clust_6="13000.00000" pt_clust_7="13000.00000" pt_clust_8="13000.00000" pt_clust_9="29.28182"></scales>
<clustering>
<clus scale="   29.282">  1  9  2 -1</clus>
<clus scale="   86.080">  5  6 -1 -1</clus>
<clus scale="   88.235">  2  5  1 -1</clus>
<clus scale="   92.656">  7  8 -1 -1</clus>
<clus scale="   88.235">  2  5  1 -1</clus>
</clustering>
</event>
<event>
 9    1  0.1484717E-005  0.2222420E+03  0.7546771E-02  0.1132511E+00
         -1   -1    0    0    0  501 -0.00000000000E+00  0.00000000000E+00  0.84772836390E+03  0.84772836390E+03  0.00000000000E+00 0.  1.
          1   -1    0    0  502    0  0.00000000000E+00 -0.00000000000E+00 -0.73055696578E+02  0.73055696578E+02  0.00000000000E+00 0. -1.
         23    2    1    2    0    0  0.10994954370E+03 -0.18512099508E+03  0.40487313558E+03  0.46717685494E+03  0.89293185084E+02 0.  0.
         23    2    1    2    0    0 -0.11304286131E+03  0.15678459089E+03  0.24526534960E+03  0.32585242895E+03  0.93083926165E+02 0.  0.
        -13    1    4    4    0    0 -0.12137995875E+02  0.86339752161E+02  0.13447270573E+03  0.16026475699E+03  0.00000000000E+00 0.  1.
         13    1    4    4    0    0 -0.10090486543E+03  0.70444838724E+02  0.11079264386E+03  0.16558767196E+03  0.00000000000E+00 0. -1.
        -13    1    3    3    0    0  0.28687425474E+02 -0.15452428584E+02  0.18577988187E+02  0.37508500030E+02  0.00000000000E+00 0. -1.
         13    1    3    3    0    0  0.81262118226E+02 -0.16966856649E+03  0.38629514739E+03  0.42966835491E+03  0.00000000000E+00 0.  1.
         21    1    1    2  502  501  0.30933176068E+01  0.28336404193E+02  0.12453418215E+03  0.12775477658E+03  0.00000000000E+00 0. -1.
<scales pt_clust_5="13000.00000" pt_clust_6="13000.00000" pt_clust_7="13000.00000" pt_clust_8="13000.00000" pt_clust_9="28.50474"></scales>
<clustering>
<clus scale="   28.505">  1  9  2 -1</clus>
<clus scale="   89.293">  7  8 -1 -1</clus>
<clus scale="   93.084">  5  6 -1 -1</clus>
<clus scale="  220.681">  1  7  2 -1</clus>
<clus scale="  222.242">  2  5  1 -1</clus>
</clustering>
</event>
<event>
 9    1  0.1484717E-005  0.9258920E+02  0.7546771E-02  0.1296823E+00
          2   -1    0    0  502    0  0.00000000000E+00  0.00000000000E+00  0.48570967488E+03  0.48570967488E+03  0.00000000000E+00 0. -1.
         -2   -1    0    0    0  501 -0.00000000000E+00 -0.00000000000E+00 -0.24240756923E+02  0.24240756923E+02  0.00000000000E+00 0.  1.
         23    2    1    2    0    0 -0.24414954169E+02 -0.79840244603E+01  0.18226764349E+03  0.20519013182E+03  0.90673379212E+02 0.  0.
         23    2    1    2    0    0  0.34465435639E+01  0.16315739413E+02  0.25699493587E+03  0.27310254910E+03  0.90887420725E+02 0.  0.
        -11    1    4    4    0    0 -0.36493299534E+02  0.66734290056E+01  0.19651618983E+03  0.19998727068E+03  0.00000000000E+00 0. -1.
         11    1    4    4    0    0  0.39939843098E+02  0.96423104073E+01  0.60478746038E+02  0.73115278424E+02  0.00000000000E+00 0.  1.
        -13    1    3    3    0    0 -0.22979070084E+02  0.38507017030E+02  0.11475964269E+03  0.12320959221E+03  0.00000000000E+00 0. -1.
         13    1    3    3    0    0 -0.14358840853E+01 -0.46491041491E+02  0.67508000804E+02  0.81980539609E+02  0.00000000000E+00 0.  1.
         21    1    1    2  502  501  0.20968410606E+02 -0.83317149525E+01  0.22206338596E+02  0.31657750887E+02  0.00000000000E+00 0.  1.
<scales pt_clust_5="13000.00000" pt_clust_6="13000.00000" pt_clust_7="13000.00000" pt_clust_8="13000.00000" pt_clust_9="22.56306"></scales>
<clustering>
<clus scale="   22.563">  2  9  1 -1</clus>
<clus scale="   90.673">  7  8 -1 -1</clus>
<clus scale="   90.887">  5  6 -1 -1</clus>
<clus scale="   92.379">  2  7  1 -1</clus>
<clus scale="   92.589">  1  5  2 -1</clus>
</clustering>
</event>
<event>
 9    1  0.1484717E-005  0.1502911E+03  0.7546771E-02  0.1200332E+00
          1   -1    0    0  502    0  0.00000000000E+00  0.00000000000E+00  0.89415963621E+03  0.89415963621E+03  0.00000000000E+00 0. -1.
         -1   -1    0    0    0  501 -0.00000000000E+00 -0.00000000000E+00 -0.83377646887E+02  0.83377646887E+02  0.00000000000E+00 0.  1.
         23    2    1    2    0    0 -0.98383596067E+02 -0.47748321998E+02  0.18031029855E+02  0.14461941112E+03  0.92900063539E+02 0.  0.
         23    2    1    2    0    0  0.11756428873E+03  0.21643334277E+02  0.78536570083E+03  0.79969270983E+03  0.91757017181E+02 0.  0.
        -13    1    4    4    0    0  0.82720683734E+02 -0.30203335513E+02  0.44080890767E+03  0.44951912760E+03  0.00000000000E+00 0. -1.
         13    1    4    4    0    0  0.34843604993E+02  0.51846669790E+02  0.34455679316E+03  0.35017358223E+03  0.00000000000E+00 0.  1.
        -13    1    3    3    0    0 -0.61070603877E+02 -0.50871896231E+02  0.51242422025E+02  0.94569309499E+02  0.00000000000E+00 0. -1.
         13    1    3    3    0    0 -0.37312992190E+02  0.31235742335E+01 -0.33211392170E+02  0.50050101618E+02  0.00000000000E+00 0.  1.
         21    1    1    2  502  501 -0.19180692660E+02  0.26104987721E+02  0.73852586331E+01  0.33225162151E+02  0.00000000000E+00 0. -1.
<scales pt_clust_5="13000.00000" pt_clust_6="13000.00000" pt_clust_7="13000.00000" pt_clust_8="13000.00000" pt_clust_9="32.39397"></scales>
<clustering>
<clus scale="   32.394">  2  9  1 -1</clus>
<clus scale="   91.757">  5  6 -1 -1</clus>
<clus scale="   92.900">  7  8 -1 -1</clus>
<clus scale="  149.587">  1  5  2 -1</clus>
<clus scale="  149.587">  1  5  2 -1</clus>
</clustering>
</event>
<event>
 9    1  0.1484717E-005  0.9219416E+02  0.7546771E-02  0.1300621E+00
         -3   -1    0    0    0  501 -0.00000000000E+00  0.00000000000E+00  0.12675206294E+03  0.12675206294E+03  0.00000000000E+00 0.  1.
          3   -1    0    0  502    0  0.00000000000E+00 -0.00000000000E+00 -0.18789549867E+03  0.18789549867E+03  0.00000000000E+00 0. -1.
         23    2    1    2    0    0 -0.28774951109E+02  0.26644372148E+01 -0.94512779646E+01  0.91906966567E+02  0.86732155579E+02 0.  0.
         23    2    1    2    0    0 -0.62017434343E+01  0.12972658589E+02 -0.11557617746E+03  0.14824860958E+03  0.91722657808E+02 0.  0.
        -11    1    4    4    0    0 -0.20964438707E+02 -0.23993113623E+02 -0.70215977588E+01  0.32626370112E+02  0.00000000000E+00 0. -1.
         11    1    4    4    0    0  0.14762695273E+02  0.36965772212E+02 -0.10855457970E+03  0.11562223947E+03  0.00000000000E+00 0.  1.
        -13    1    3    3    0    0  0.21004852321E+02  0.40733696164E+01  0.23817614335E+02  0.32016791121E+02  0.00000000000E+00 0.  1.
         13    1    3    3    0    0 -0.49779803430E+02 -0.14089324016E+01 -0.33268892300E+02  0.59890175446E+02  0.00000000000E+00 0. -1.
         21    1    1    2  502  501  0.34976694543E+02 -0.15637095804E+02  0.63884019688E+02  0.74491985461E+02  0.00000000000E+00 0.  1.
<scales pt_clust_5="13000.00000" pt_clust_6="13000.00000" pt_clust_7="13000.00000" pt_clust_8="13000.00000" pt_clust_9="38.31303"></scales>
<clustering>
<clus scale="   38.313">  1  9  2 -1</clus>
<clus scale="   86.732">  7  8 -1 -1</clus>
<clus scale="   87.231">  1  7  2 -1</clus>
<clus scale="   91.723">  5  6 -1 -1</clus>
<clus scale="   92.194">  2  5  1 -1</clus>
</clustering>
</event>
<event>
 9    1  0.1484717E-005  0.3018230E+03  0.7546771E-02  0.1084409E+00
          1   -1    0    0  502    0  0.00000000000E+00  0.00000000000E+00  0.13845567785E+04  0.13845567785E+04  0.00000000000E+00 0. -1.
         -1   -1    0    0    0  501 -0.00000000000E+00 -0.00000000000E+00 -0.14667096012E+03  0.14667096012E+03  0.00000000000E+00 0.  1.
         23    2    1    2    0    0 -0.83151906019E+02  0.26255508117E+03  0.63197076086E+02  0.29762503002E+03  0.93473942611E+02 0.  0.
         23    2    1    2    0    0  0.58826652228E+02 -0.28306688167E+03  0.11592139403E+04  0.11982202069E+04  0.91472783926E+02 0.  0.
        -11    1    4    4    0    0 -0.24769667166E+02 -0.74089594076E+02  0.30752536177E+03  0.31729269215E+03  0.00000000000E+00 0.  1.
         11    1    4    4    0    0  0.83596319394E+02 -0.20897728760E+03  0.85168857857E+03  0.88092751474E+03  0.00000000000E+00 0. -1.
        -13    1    3    3    0    0 -0.82254583518E+02  0.23596680144E+03  0.84235909290E+02  0.26370786166E+03  0.00000000000E+00 0.  1.
         13    1    3    3    0    0 -0.89732250131E+00  0.26588279735E+02 -0.21038833204E+02  0.33917168360E+02  0.00000000000E+00 0. -1.
         21    1    1    2  502  501  0.24325253791E+02  0.20511800502E+02  0.15474801958E+02  0.35382501713E+02  0.00000000000E+00 0. -1.
<scales pt_clust_5="13000.00000" pt_clust_6="13000.00000" pt_clust_7="13000.00000" pt_clust_8="13000.00000" pt_clust_9="31.81905"></scales>
<clustering>
<clus scale="   31.819">  2  9  1 -1</clus>
<clus scale="   91.473">  5  6 -1 -1</clus>
<clus scale="   93.474">  7  8 -1 -1</clus>
<clus scale="  301.209">  1  5  2 -1</clus>
<clus scale="  301.209">  1  5  2 -1</clus>
</clustering>
</event>
<event>
 9    1  0.1484717E-005  0.1943503E+03  0.7546771E-02  0.1161267E+00
         -4   -1    0    0    0  501 -0.00000000000E+00  0.00000000000E+00  0.22538404301E+03  0.22538404301E+03  0.00000000000E+00 0.  1.
          4   -1    0    0  502    0  0.00000000000E+00 -0.00000000000E+00 -0.10092400287E+04  0.10092400287E+04  0.00000000000E+00 0. -1.
         23    2    1    2    0    0 -0.29281655467E+02  0.13229019919E+03  0.72271599934E+02  0.18132415539E+03  0.96421745594E+02 0.  0.
         23    2    1    2    0    0 -0.14630783138E+03  0.60128233043E+02 -0.74870631354E+03  0.77152722307E+03  0.98344934193E+02 0.  0.
        -11    1    4    4    0    0 -0.91201264699E+01  0.27309501783E+02 -0.42262039473E+02  0.51137711866E+02  0.00000000000E+00 0.  1.
         11    1    4    4    0    0 -0.13718770491E+03  0.32818731260E+02 -0.70644427407E+03  0.72038951121E+03  0.00000000000E+00 0. -1.
        -13    1    3    3    0    0  0.34367762145E+02  0.30587936139E+02  0.15114022257E+02  0.48427250395E+02  0.00000000000E+00 0.  1.
         13    1    3    3    0    0 -0.63649417612E+02  0.10170226305E+03  0.57157577677E+02  0.13289690500E+03  0.00000000000E+00 0. -1.
         21    1    1    2  502  501  0.17558948684E+03 -0.19241843223E+03 -0.10742127205E+03  0.28177269321E+03  0.00000000000E+00 0.  1.
<scales pt_clust_5="13000.00000" pt_clust_6="13000.00000" pt_clust_7="13000.00000" pt_clust_8="13000.00000" pt_clust_9="167.63145"></scales>
<clustering>
<clus scale="   96.422">  7  8 -1 -1</clus>
<clus scale="   98.345">  5  6 -1 -1</clus>
<clus scale="  166.299">  1  7  2 -1</clus>
<clus scale="  167.631">  1  9  2 -1</clus>
<clus scale="  194.350">  2  5  1 -1</clus>
</clustering>
</event>
<event>
 9    1  0.1484717E-005  0.9586159E+02  0.7546771E-02  0.1289714E+00
         -4   -1    0    0    0  501 -0.00000000000E+00  0.00000000000E+00  0.37097882219E+02  0.37097882219E+02  0.00000000000E+00 0.  1.
          4   -1    0    0  502    0  0.00000000000E+00 -0.00000000000E+00 -0.40182899622E+03  0.40182899622E+03  0.00000000000E+00 0. -1.
         23    2    1    2    0    0 -0.12779071763E+02 -0.35560337161E+02 -0.12092111264E+03  0.15622819744E+03  0.91419319287E+02 0.  0.
         23    2    1    2    0    0 -0.27977909472E+02  0.20230403732E+02 -0.19162087134E+03  0.21472924912E+03  0.90543135795E+02 0.  0.
        -13    1    3    3    0    0 -0.37465251248E+01 -0.65553184532E+02 -0.66609151826E+02  0.93530933705E+02  0.00000000000E+00 0.  1.
         13    1    3    3    0    0 -0.90325466384E+01  0.29992847371E+02 -0.54311960819E+02  0.62697263737E+02  0.00000000000E+00 0. -1.
        -13    1    4    4    0    0  0.32888316755E+01  0.51514827382E+02 -0.11877178423E+03  0.12950417207E+03  0.00000000000E+00 0.  1.
         13    1    4    4    0    0 -0.31266741147E+02 -0.31284423650E+02 -0.72849087107E+02  0.85225077046E+02  0.00000000000E+00 0. -1.
         21    1    1    2  502  501  0.40756981235E+02  0.15329933429E+02 -0.52189130021E+02  0.67969431884E+02  0.00000000000E+00 0.  1.
<scales pt_clust_5="13000.00000" pt_clust_6="13000.00000" pt_clust_7="13000.00000" pt_clust_8="13000.00000" pt_clust_9="43.54467"></scales>
<clustering>
<clus scale="   43.545">  1  9  2 -1</clus>
<clus scale="   90.543">  7  8 -1 -1</clus>
<clus scale="   91.419">  5  6 -1 -1</clus>
<clus scale="   95.026">  2  7  1 -1</clus>
<clus scale="   95.026">  2  5  1 -1</clus>
</clustering>
</event>
<event>
 9    1  0.1484717E-005  0.1269498E+03  0.7546771E-02  0.1232152E+00
          2   -1    0    0  502    0  0.00000000000E+00  0.00000000000E+00  0.30622164865E+03  0.30622164865E+03  0.00000000000E+00 0. -1.
         -2   -1    0    0    0  501 -0.00000000000E+00 -0.00000000000E+00 -0.11557436441E+03  0.11557436441E+03  0.00000000000E+00 0.  1.
         23    2    1    2    0    0  0.12192325613E+02 -0.66536198418E+02  0.14060565356E+02  0.11409257037E+03  0.90794804987E+02 0.  0.
         23    2    1    2    0    0  0.18758986293E+01  0.96461488608E+02  0.21768201324E+03  0.25495629921E+03  0.91153265654E+02 0.  0.
        -13    1    4    4    0    0 -0.32162377767E+02  0.25373469603E+02  0.28195590017E+02  0.49731507113E+02  0.00000000000E+00 0.  1.
         13    1    4    4    0    0  0.34038276396E+02  0.71088019004E+02  0.18948642323E+03  0.20522479210E+03  0.00000000000E+00 0. -1.
        -13    1    3    3    0    0 -0.16340872966E+02 -0.78494434352E+02  0.16485188844E+00  0.80177475202E+02  0.00000000000E+00 0.  1.
         13    1    3    3    0    0  0.28533198579E+02  0.11958235934E+02  0.13895713468E+02  0.33915095173E+02  0.00000000000E+00 0. -1.
         21    1    1    2  502  501 -0.14068224242E+02 -0.29925290189E+02 -0.41095294360E+02  0.52747143475E+02  0.00000000000E+00 0.  1.
<scales pt_clust_5="13000.00000" pt_clust_6="13000.00000" pt_clust_7="13000.00000" pt_clust_8="13000.00000" pt_clust_9="33.06717"></scales>
<clustering>
<clus scale="   33.067">  2  9  1 -1</clus>
<clus scale="   90.795">  7  8 -1 -1</clus>
<clus scale="   91.153">  5  6 -1 -1</clus>
<clus scale="  126.693">  2  7  1 -1</clus>
<clus scale="  126.950">  1  5  2 -1</clus>
</clustering>
</event>
<event>
 9    1  0.1484717E-005  0.9869342E+02  0.7546771E-02  0.1283114E+00
          1   -1    0    0  502    0  0.00000000000E+00  0.00000000000E+00  0.76525702346E+03  0.76525702346E+03  0.00000000000E+00 0. -1.
         -1   -1    0    0    0  501 -0.00000000000E+00 -0.00000000000E+00 -0.21216723698E+02  0.21216723698E+02  0.00000000000E+00 0.  1.
         23    2    1    2    0    0  0.23645015727E+02 -0.36926184430E+02  0.26248718688E+03  0.28150017887E+03  0.91761634495E+02 0.  0.
         23    2    1    2    0    0  0.13471111646E+02  0.35978912729E+02  0.43063378749E+03  0.44195546030E+03  0.91669062152E+02 0.  0.
        -11    1    4    4    0    0 -0.39226339807E+02  0.16006503583E+02  0.15981482807E+03  0.16533509356E+03  0.00000000000E+00 0.  1.
         11    1    4    4    0    0  0.52697451454E+02  0.19972409146E+02  0.27081895942E+03  0.27662036674E+03  0.00000000000E+00 0. -1.
        -11    1    3    3    0    0  0.44719932203E+02  0.13234614013E+02  0.13717252513E+03  0.14488384656E+03  0.00000000000E+00 0.  1.
         11    1    3    3    0    0 -0.21074916475E+02 -0.50160798443E+02  0.12531466175E+03  0.13661633231E+03  0.00000000000E+00 0. -1.
         21    1    1    2  502  501 -0.37116127373E+02  0.94727170172E+00  0.50919325398E+02  0.63018107984E+02  0.00000000000E+00 0.  1.
<scales pt_clust_5="13000.00000" pt_clust_6="13000.00000" pt_clust_7="13000.00000" pt_clust_8="13000.00000" pt_clust_9="37.12821"></scales>
<clustering>
<clus scale="   37.128">  2  9  1 -1</clus>
<clus scale="   91.669">  5  6 -1 -1</clus>
<clus scale="   91.762">  7  8 -1 -1</clus>
<clus scale="   98.607">  1  5  2 -1</clus>
<clus scale="   98.607">  1  5  2 -1</clus>
</clustering>
</event>
<event>
 9    1  0.1484717E-005  0.1079498E+03  0.7546771E-02  0.1265638E+00
         -1   -1    0    0    0  501 -0.00000000000E+00  0.00000000000E+00  0.63925943809E+02  0.63925943809E+02  0.00000000000E+00 0.  1.
          1   -1    0    0  502    0  0.00000000000E+00 -0.00000000000E+00 -0.39076485543E+03  0.39076485543E+03  0.00000000000E+00 0. -1.
         23    2    1    2    0    0 -0.38785919998E+02 -0.71774194277E+02 -0.13257426294E+03  0.18178825289E+03  0.93889036329E+02 0.  0.
         23    2    1    2    0    0  0.41436639519E+02  0.15600521887E+02 -0.19152766365E+03  0.21659980334E+03  0.90951951521E+02 0.  0.
        -13    1    3    3    0    0 -0.67841669988E+02 -0.66203415321E+02 -0.10025190842E+03  0.13797039367E+03  0.00000000000E+00 0.  1.
         13    1    3    3    0    0  0.29055749990E+02 -0.55707789558E+01 -0.32322354511E+02  0.43817859222E+02  0.00000000000E+00 0. -1.
        -13    1    4    4    0    0  0.18364036747E+02 -0.20830731330E+02 -0.16193696225E+03  0.16430075154E+03  0.00000000000E+00 0.  1.
         13    1    4    4    0    0  0.23072602772E+02  0.36431253217E+02 -0.29590701394E+02  0.52299051795E+02  0.00000000000E+00 0. -1.
         21    1    1    2  502  501 -0.26507195204E+01  0.56173672389E+02 -0.27369850407E+01  0.56302743013E+02  0.00000000000E+00 0. -1.
<scales pt_clust_5="13000.00000" pt_clust_6="13000.00000" pt_clust_7="13000.00000" pt_clust_8="13000.00000" pt_clust_9="56.23618"></scales>
<clustering>
<clus scale="   56.236">  1  9  2 -1</clus>
<clus scale="   90.952">  7  8 -1 -1</clus>
<clus scale="   93.889">  5  6 -1 -1</clus>
<clus scale="  105.405">  2  7  1 -1</clus>
<clus scale="  105.405">  2  5  1 -1</clus>
</clustering>
</event>
<event>
 9    1  0.1484717E-005  0.1544856E+03  0.7546771E-02  0.1195343E+00
         -1   -1    0    0    0  501 -0.00000000000E+00  0.00000000000E+00  0.65612842347E+02  0.65612842347E+02  0.00000000000E+00 0.  1.
          1   -1    0    0  502    0  0.00000000000E+00 -0.00000000000E+00 -0.46028768522E+03  0.46028768522E+03  0.00000000000E+00 0. -1.
         23    2    1    2    0    0  0.27447243730E+01 -0.12879196058E+03 -0.15176686441E+03  0.21853027640E+03  0.90152082319E+02 0.  0.
         23    2    1    2    0    0  0.16130385292E+02  0.12085652568E+03 -0.24295780402E+03  0.28689481773E+03  0.91725965660E+02 0.  0.
        -11    1    3    3    0    0  0.29583374189E+02 -0.12142972463E+02 -0.58942853743E+02  0.67058838463E+02  0.00000000000E+00 0. -1.
         11    1    3    3    0    0 -0.26838649816E+02 -0.11664898812E+03 -0.92824010669E+02  0.15147143794E+03  0.00000000000E+00 0.  1.
        -13    1    4    4    0    0 -0.28209640382E+02  0.97291435043E+02 -0.17782243725E+03  0.20465147527E+03  0.00000000000E+00 0. -1.
         13    1    4    4    0    0  0.44340025674E+02  0.23565090634E+02 -0.65135366778E+02  0.82243342458E+02  0.00000000000E+00 0.  1.
         21    1    1    2  502  501 -0.18875109665E+02  0.79354349057E+01  0.49825560440E-01  0.20475433441E+02  0.00000000000E+00 0. -1.
<scales pt_clust_5="13000.00000" pt_clust_6="13000.00000" pt_clust_7="13000.00000" pt_clust_8="13000.00000" pt_clust_9="20.47537"></scales>
<clustering>
<clus scale="   20.475">  1  9  2 -1</clus>
<clus scale="   90.152">  5  6 -1 -1</clus>
<clus scale="   91.726">  7  8 -1 -1</clus>
<clus scale="  153.556">  1  5  2 -1</clus>
<clus scale="  154.486">  2  5  1 -1</clus>
</clustering>
</event>
<event>
 9    1  0.1484717E-005  0.8837445E+02  0.7546771E-02  0.1308903E+00
         -1   -1    0    0    0  501 -0.00000000000E+00  0.00000000000E+00  0.56635611349E+02  0.56635611349E+02  0.00000000000E+00 0.  1.
          1   -1    0    0  502    0  0.00000000000E+00 -0.00000000000E+00 -0.22468889610E+03  0.22468889610E+03  0.00000000000E+00 0. -1.
         23    2    1    2    0    0 -0.12128535515E+01 -0.40447457365E+01 -0.19914595798E+02  0.90534458222E+02  0.88216019055E+02 0.  0.
         23    2    1    2    0    0  0.61814513436E+00 -0.26888980880E+02 -0.11453094820E+03  0.14510931632E+03  0.84946902184E+02 0.  0.
        -13    1    4    4    0    0  0.35728875023E+02 -0.13017969110E+02 -0.19248484669E+02  0.42620701451E+02  0.00000000000E+00 0.  1.
         13    1    4    4    0    0 -0.35110729888E+02 -0.13871011770E+02 -0.95282463532E+02  0.10248861487E+03  0.00000000000E+00 0. -1.
        -13    1    3    3    0    0 -0.12594900427E+02  0.27177818580E+02 -0.41297407470E+02  0.51017067765E+02  0.00000000000E+00 0. -1.
         13    1    3    3    0    0  0.11382046876E+02 -0.31222564316E+02  0.21382811672E+02  0.39517390457E+02  0.00000000000E+00 0.  1.
         21    1    1    2  502  501  0.59470841709E+00  0.30933726617E+02 -0.33607740747E+02  0.45680732904E+02  0.00000000000E+00 0. -1.
<scales pt_clust_5="13000.00000" pt_clust_6="13000.00000" pt_clust_7="13000.00000" pt_clust_8="13000.00000" pt_clust_9="30.93944"></scales>
<clustering>
<clus scale="   30.939">  2  9  1 -1</clus>
<clus scale="   84.947">  5  6 -1 -1</clus>
<clus scale="   85.111">  2  5  1 -1</clus>
<clus scale="   88.216">  7  8 -1 -1</clus>
<clus scale="   30.939">  2  5  1 -1</clus>
</clustering>
</event>
<event>
 9    1  0.1484717E-005  0.1111095E+03  0.7546771E-02  0.1261942E+00
         -3   -1    0    0    0  501 -0.00000000000E+00  0.00000000000E+00  0.64964564170E+03  0.64964564170E+03  0.00000000000E+00 0.  1.
          3   -1    0    0  502    0  0.00000000000E+00 -0.00000000000E+00 -0.48084468027E+02  0.48084468027E+02  0.00000000000E+00 0. -1.
         23    2    1    2    0    0  0.32766091082E+02 -0.70091187098E+01  0.36380324360E+03  0.37694681615E+03  0.92808176827E+02 0.  0.
         23    2    1    2    0    0 -0.39233687147E+02  0.31227217048E+02  0.37073055536E+02  0.11853897362E+03  0.10080999716E+03 0.  0.
        -13    1    3    3    0    0 -0.98448128484E-01  0.40305115073E+02  0.17320642900E+03  0.17783413351E+03  0.00000000000E+00 0. -1.
         13    1    3    3    0    0  0.32864539210E+02 -0.47314233783E+02  0.19059681460E+03  0.19911268265E+03  0.00000000000E+00 0.  1.
        -13    1    4    4    0    0 -0.15262621873E+02  0.58575696867E+02 -0.75200888271E+01  0.60996816522E+02  0.00000000000E+00 0. -1.
         13    1    4    4    0    0 -0.23971065275E+02 -0.27348479819E+02  0.44593144363E+02  0.57542157094E+02  0.00000000000E+00 0.  1.
         21    1    1    2  502  501  0.64675960659E+01 -0.24218098338E+02  0.20068487454E+03  0.20224431995E+03  0.00000000000E+00 0.  1.
<scales pt_clust_5="13000.00000" pt_clust_6="13000.00000" pt_clust_7="13000.00000" pt_clust_8="13000.00000" pt_clust_9="25.06683"></scales>
<clustering>
<clus scale="   25.067">  1  9  2 -1</clus>
<clus scale="   92.808">  5  6 -1 -1</clus>
<clus scale="  100.810">  7  8 -1 -1</clus>
<clus scale="  103.904">  1  5  2 -1</clus>
<clus scale="  111.110">  2  5  1 -1</clus>
</clustering>
</event>
<event>
 9    1  0.1484717E-005  0.1138330E+03  0.7546771E-02  0.1255780E+00
          2   -1    0    0  502    0  0.00000000000E+00  0.00000000000E+00  0.42739241576E+03  0.42739241576E+03  0.00000000000E+00 0. -1.
         -2   -1    0    0    0  501 -0.00000000000E+00 -0.00000000000E+00 -0.22207721932E+03  0.22207721932E+03  0.00000000000E+00 0.  1.
         23    2    1    2    0    0 -0.16271953411E+02 -0.71496195528E+02 -0.13761401478E+03  0.18008898025E+03  0.90099618750E+02 0.  0.
         23    2    1    2    0    0  0.53290432964E+02  0.31710278093E+02  0.38442616824E+03  0.40100460276E+03  0.95790399461E+02 0.  0.
        -11    1    3    3    0    0  0.24454982772E+02  0.43235476333E+01 -0.11405639062E+02  0.27328151217E+02  0.00000000000E+00 0. -1.
         11    1    3    3    0    0 -0.40726936182E+02 -0.75819743161E+02 -0.12620837572E+03  0.15276082903E+03  0.00000000000E+00 0.  1.
        -11    1    4    4    0    0  0.60243796308E+02 -0.68107293399E+01  0.31942148031E+03  0.32512425796E+03  0.00000000000E+00 0. -1.
         11    1    4    4    0    0 -0.69533633438E+01  0.38521007433E+02  0.65004687925E+02  0.75880344804E+02  0.00000000000E+00 0.  1.
         21    1    1    2  502  501 -0.37018479553E+02  0.39785917434E+02 -0.41496957021E+02  0.68376052069E+02  0.00000000000E+00 0. -1.
<scales pt_clust_5="13000.00000" pt_clust_6="13000.00000" pt_clust_7="13000.00000" pt_clust_8="13000.00000" pt_clust_9="54.34415"></scales>
<clustering>
<clus scale="   54.344">  2  9  1 -1</clus>
<clus scale="   90.100">  5  6 -1 -1</clus>
<clus scale="   95.790">  7  8 -1 -1</clus>
<clus scale="  109.088">  2  5  1 -1</clus>
<clus scale="  113.833">  1  5  2 -1</clus>
</clustering>
</event>
<event>
 9    1  0.1484717E-005  0.1352969E+03  0.7546771E-02  0.1221317E+00
          3   -1    0    0  502    0  0.00000000000E+00  0.00000000000E+00  0.72314403925E+03  0.72314403925E+03  0.00000000000E+00 0. -1.
         -3   -1    0    0    0  501 -0.00000000000E+00 -0.00000000000E+00 -0.44687823800E+02  0.44687823800E+02  0.00000000000E+00 0.  1.
         23    2    1    2    0    0  0.71586930517E+02 -0.60138452718E+02  0.11297327887E+03  0.17379589015E+03  0.93277690674E+02 0.  0.
         23    2    1    2    0    0 -0.38654407282E+02  0.87021001972E+02  0.39135333443E+03  0.41479216998E+03  0.99137752254E+02 0.  0.
        -11    1    3    3    0    0 -0.51301223599E+01 -0.25868479608E+02  0.78787744651E+02  0.83084325236E+02  0.00000000000E+00 0. -1.
         11    1    3    3    0    0  0.76717052877E+02 -0.34269973110E+02  0.34185534223E+02  0.90711564915E+02  0.00000000000E+00 0.  1.
        -13    1    4    4    0    0  0.22056043254E+02  0.48680490137E+02  0.25655578273E+03  0.26206321531E+03  0.00000000000E+00 0.  1.
         13    1    4    4    0    0 -0.60710450536E+02  0.38340511835E+02  0.13479755169E+03  0.15272895467E+03  0.00000000000E+00 0. -1.
         21    1    1    2  502  501 -0.32932523235E+02 -0.26882549253E+02  0.17412960215E+03  0.17924380292E+03  0.00000000000E+00 0. -1.
<scales pt_clust_5="13000.00000" pt_clust_6="13000.00000" pt_clust_7="13000.00000" pt_clust_8="13000.00000" pt_clust_9="42.51144"></scales>
<clustering>
<clus scale="   42.511">  1  9  2 -1</clus>
<clus scale="   93.278">  5  6 -1 -1</clus>
<clus scale="   99.138">  7  8 -1 -1</clus>
<clus scale="  131.064">  2  5  1 -1</clus>
<clus scale="   42.511">  1  5  2 -1</clus>
</clustering>
</event>
<event>
 9    1  0.1484717E-005  0.1417797E+03  0.7546771E-02  0.1211572E+00
         -1   -1    0    0    0  501 -0.00000000000E+00  0.00000000000E+00  0.24342214429E+02  0.24342214429E+02  0.00000000000E+00 0.  1.
          1   -1    0    0  502    0  0.00000000000E+00 -0.00000000000E+00 -0.11838347346E+04  0.11838347346E+04  0.00000000000E+00 0. -1.
         23    2    1    2    0    0  0.10632991262E+03  0.21043934252E+02 -0.45563691561E+03  0.47683573256E+03  0.89545627992E+02 0.  0.
         23    2    1    2    0    0 -0.10839125361E+03  0.18158646335E+02 -0.64361067334E+03  0.65943472727E+03  0.92417857540E+02 0.  0.
        -11    1    4    4    0    0 -0.83068196367E+02  0.54008410216E+02 -0.47324155669E+03  0.48350264178E+03  0.00000000000E+00 0.  1.
         11    1    4    4    0    0 -0.25323057240E+02 -0.35849763882E+02 -0.17036911665E+03  0.17593208549E+03  0.00000000000E+00 0. -1.
        -11    1    3    3    0    0  0.24585419329E+02  0.48300030487E+02 -0.16281335345E+03  0.17159698089E+03  0.00000000000E+00 0.  1.
         11    1    3    3    0    0  0.81744493289E+02 -0.27256096235E+02 -0.29282356216E+03  0.30523875167E+03  0.00000000000E+00 0. -1.
         21    1    1    2  502  501  0.20613409898E+01 -0.39202580586E+02 -0.60244931196E+02  0.71906489179E+02  0.00000000000E+00 0. -1.
<scales pt_clust_5="13000.00000" pt_clust_6="13000.00000" pt_clust_7="13000.00000" pt_clust_8="13000.00000" pt_clust_9="39.25674"></scales>
<clustering>
<clus scale="   39.257">  1  9  2 -1</clus>
<clus scale="   89.546">  7  8 -1 -1</clus>
<clus scale="   92.418">  5  6 -1 -1</clus>
<clus scale="  139.924">  1  7  2 -1</clus>
<clus scale="  141.780">  2  5  1 -1</clus>
</clustering>
</event>
<event>
 9    1  0.1484717E-005  0.1642398E+03  0.7546771E-02  0.1184991E+00
         -1   -1    0    0    0  501 -0.00000000000E+00  0.00000000000E+00  0.40234376619E+03  0.40234376619E+03  0.00000000000E+00 0.  1.
          1   -1    0    0  502    0  0.00000000000E+00 -0.00000000000E+00 -0.21672087315E+03  0.21672087315E+03  0.00000000000E+00 0. -1.
         23    2    1    2    0    0  0.14266368851E+03 -0.56322493709E+01  0.20063509767E+03  0.26052458968E+03  0.85052743395E+02 0.  0.
         23    2    1    2    0    0 -0.13451689997E+03 -0.16071210759E+02 -0.14977321036E+03  0.22179964228E+03  0.91705978976E+02 0.  0.
        -11    1    4    4    0    0  0.29767917314E-01 -0.28475660760E+02 -0.25739661042E+02  0.38384818515E+02  0.00000000000E+00 0.  1.
         11    1    4    4    0    0 -0.13454666789E+03  0.12404450001E+02 -0.12403354932E+03  0.18341482376E+03  0.00000000000E+00 0. -1.
        -13    1    3    3    0    0  0.53078170653E+02  0.38600624305E+02  0.68460721819E+02  0.94837602398E+02  0.00000000000E+00 0. -1.
         13    1    3    3    0    0  0.89585517852E+02 -0.44232873676E+02  0.13217437585E+03  0.16568698728E+03  0.00000000000E+00 0.  1.
         21    1    1    2  502  501 -0.81467885354E+01  0.21703460130E+02  0.13476100574E+03  0.13674040739E+03  0.00000000000E+00 0.  1.
<scales pt_clust_5="13000.00000" pt_clust_6="13000.00000" pt_clust_7="13000.00000" pt_clust_8="13000.00000" pt_clust_9="23.18211"></scales>
<clustering>
<clus scale="   23.182">  1  9  2 -1</clus>
<clus scale="   85.053">  7  8 -1 -1</clus>
<clus scale="   91.706">  5  6 -1 -1</clus>
<clus scale="  160.620">  1  7  2 -1</clus>
<clus scale="  164.240">  2  5  1 -1</clus>
</clustering>
</event>
<event>
 9    1  0.1484717E-005  0.1838709E+03  0.7546771E-02  0.1164536E+00
          2   -1    0    0  502    0  0.00000000000E+00  0.00000000000E+00  0.59943351504E+03  0.59943351504E+03  0.00000000000E+00 0. -1.
         -2   -1    0    0    0  501 -0.00000000000E+00 -0.00000000000E+00 -0.16328857068E+03  0.16328857068E+03  0.00000000000E+00 0.  1.
         23    2    1    2    0    0 -0.12721473839E+03  0.12175936169E+03  0.90165517805E+02  0.21823583328E+03  0.92131028977E+02 0.  0.
         23    2    1    2    0    0 -0.48837801764E+02 -0.17480666817E+03  0.28633713448E+03  0.35118411427E+03  0.91645105787E+02 0.  0.
        -11    1    3    3    0    0 -0.58153803031E+02 -0.47752331471E+00  0.30741938698E+02  0.65781149506E+02  0.00000000000E+00 0. -1.
         11    1    3    3    0    0 -0.69060935362E+02  0.12223688501E+03  0.59423579107E+02  0.15245468377E+03  0.00000000000E+00 0.  1.
        -13    1    4    4    0    0 -0.39092015366E+02 -0.21613116860E+02  0.35295300535E+02  0.56930402472E+02  0.00000000000E+00 0.  1.
         13    1    4    4    0    0 -0.97457863981E+01 -0.15319355131E+03  0.25104183395E+03  0.29425371180E+03  0.00000000000E+00 0. -1.
         21    1    1    2  502  501  0.17605254016E+03  0.53047306479E+02  0.59642292077E+02  0.19330213818E+03  0.00000000000E+00 0. -1.
<scales pt_clust_5="13000.00000" pt_clust_6="13000.00000" pt_clust_7="13000.00000" pt_clust_8="13000.00000" pt_clust_9="183.87092"></scales>
<clustering>
<clus scale="   91.645">  7  8 -1 -1</clus>
<clus scale="   92.131">  5  6 -1 -1</clus>
<clus scale="  183.871">  2  9  1 -1</clus>
<clus scale="  182.063">  1  7  2 -1</clus>
<clus scale="  182.063">  1  5  2 -1</clus>
</clustering>
</event>
<event>
 9    1  0.1484717E-005  0.1056379E+03  0.7546771E-02  0.1268941E+00
         -2   -1    0    0    0  501 -0.00000000000E+00  0.00000000000E+00  0.41129511183E+02  0.41129511183E+02  0.00000000000E+00 0.  1.
          2   -1    0    0  502    0  0.00000000000E+00 -0.00000000000E+00 -0.52911355500E+03  0.52911355500E+03  0.00000000000E+00 0. -1.
         23    2    1    2    0    0 -0.48844020052E+02  0.31847930420E+02 -0.12151609935E+03  0.16263306915E+03  0.91012767302E+02 0.  0.
         23    2    1    2    0    0 -0.11233682045E+01 -0.60289506771E+02 -0.30225978512E+03  0.32142211575E+03  0.91187237091E+02 0.  0.
        -13    1    4    4    0    0  0.34800606345E+02 -0.16813891452E+02 -0.51450148434E+02  0.64349878956E+02  0.00000000000E+00 0.  1.
         13    1    4    4    0    0 -0.35923974550E+02 -0.43475615319E+02 -0.25080963668E+03  0.25707223679E+03  0.00000000000E+00 0. -1.
        -13    1    3    3    0    0  0.18267817402E+02 -0.94414213242E+01 -0.36966175099E+01  0.20893026833E+02  0.00000000000E+00 0.  1.
         13    1    3    3    0    0 -0.67111837454E+02  0.41289351744E+02 -0.11781948184E+03  0.14174004231E+03  0.00000000000E+00 0. -1.
         21    1    1    2  502  501  0.49967388257E+02  0.28441576351E+02 -0.64208159349E+02  0.86187881292E+02  0.00000000000E+00 0.  1.
<scales pt_clust_5="13000.00000" pt_clust_6="13000.00000" pt_clust_7="13000.00000" pt_clust_8="13000.00000" pt_clust_9="57.49490"></scales>
<clustering>
<clus scale="   57.495">  1  9  2 -1</clus>
<clus scale="   91.013">  7  8 -1 -1</clus>
<clus scale="   91.187">  5  6 -1 -1</clus>
<clus scale="  105.487">  1  7  2 -1</clus>
<clus scale="  105.638">  2  5  1 -1</clus>
</clustering>
</event>
<event>
 9    1  0.1484717E-005  0.3022089E+03  0.7546771E-02  0.1084419E+00
          1   -1    0    0  502    0  0.00000000000E+00  0.00000000000E+00  0.59014702429E+03  0.59014702429E+03  0.00000000000E+00 0. -1.
         -1   -1    0    0    0  501 -0.00000000000E+00 -0.00000000000E+00 -0.59147370522E+03  0.59147370522E+03  0.00000000000E+00 0.  1.
         23    2    1    2    0    0  0.28520746884E+03  0.10377606120E+03 -0.37349952413E+02  0.31840386861E+03  0.88731242759E+02 0.  0.
         23    2    1    2    0    0 -0.23927551063E+03 -0.15169991366E+03  0.39649740744E+03  0.49668167417E+03  0.96004466372E+02 0.  0.
        -13    1    4    4    0    0 -0.87835431759E+02 -0.10720410660E+03  0.15236931082E+03  0.20597133398E+03  0.00000000000E+00 0. -1.
         13    1    4    4    0    0 -0.15144007887E+03 -0.44495807063E+02  0.24412809662E+03  0.29071034019E+03  0.00000000000E+00 0.  1.
        -13    1    3    3    0    0  0.22811513156E+03  0.48328939651E+02 -0.71727679841E+01  0.23328876582E+03  0.00000000000E+00 0. -1.
         13    1    3    3    0    0  0.57092337274E+02  0.55447121546E+02 -0.30177184429E+02  0.85115102792E+02  0.00000000000E+00 0.  1.
         21    1    1    2  502  501 -0.45931958209E+02  0.47923852462E+02 -0.36047413596E+03  0.36653518673E+03  0.00000000000E+00 0.  1.
<scales pt_clust_5="13000.00000" pt_clust_6="13000.00000" pt_clust_7="13000.00000" pt_clust_8="13000.00000" pt_clust_9="66.38102"></scales>
<clustering>
<clus scale="   66.381">  2  9  1 -1</clus>
<clus scale="   88.731">  7  8 -1 -1</clus>
<clus scale="   96.004">  5  6 -1 -1</clus>
<clus scale="  299.978">  2  7  1 -1</clus>
<clus scale="  302.209">  1  5  2 -1</clus>
</clustering>
</event>
<event>
 9    1  0.1484717E-005  0.2424819E+03  0.7546771E-02  0.1133605E+00
          2   -1    0    0  502    0  0.00000000000E+00  0.00000000000E+00  0.74126283569E+03  0.74126283569E+03  0.00000000000E+00 0. -1.
         -2   -1    0    0    0  501 -0.00000000000E+00 -0.00000000000E+00 -0.21964321089E+03  0.21964321089E+03  0.00000000000E+00 0.  1.
         23    2    1    2    0    0  0.14127939307E+03  0.18093854412E+03 -0.54241153277E+02  0.25297851120E+03  0.91418820614E+02 0.  0.
         23    2    1    2    0    0 -0.12469505637E+03  0.58498864351E+02  0.29735455693E+03  0.34027140798E+03  0.91618362499E+02 0.  0.
        -11    1    3    3    0    0  0.75967710001E+02  0.39995637119E+02  0.66959201375E+01  0.86113757889E+02  0.00000000000E+00 0. -1.
         11    1    3    3    0    0  0.65311683074E+02  0.14094290700E+03 -0.60937073415E+02  0.16686475331E+03  0.00000000000E+00 0.  1.
        -11    1    4    4    0    0 -0.96857794774E+02  0.78425656996E+02  0.26643021190E+03  0.29413784846E+03  0.00000000000E+00 0. -1.
         11    1    4    4    0    0 -0.27837261596E+02 -0.19926792645E+02  0.30924345031E+02  0.46133559519E+02  0.00000000000E+00 0.  1.
         21    1    1    2  502  501 -0.16584336704E+02 -0.23943740847E+03  0.27850622115E+03  0.36765612740E+03  0.00000000000E+00 0. -1.
<scales pt_clust_5="13000.00000" pt_clust_6="13000.00000" pt_clust_7="13000.00000" pt_clust_8="13000.00000" pt_clust_9="224.58864"></scales>
<clustering>
<clus scale="   91.419">  5  6 -1 -1</clus>
<clus scale="   91.618">  7  8 -1 -1</clus>
<clus scale="  165.423">  1  7  2 -1</clus>
<clus scale="  224.589">  1  9  2 -1</clus>
<clus scale="  165.423">  1  5  2 -1</clus>
</clustering>
</event>
<event>
 9    1  0.1484717E-005  0.1166034E+03  0.7546771E-02  0.1260529E+00
         -1   -1    0    0    0  501 -0.00000000000E+00  0.00000000000E+00  0.98554049974E+02  0.98554049974E+02  0.00000000000E+00 0.  1.
          1   -1    0    0  502    0  0.00000000000E+00 -0.00000000000E+00 -0.27844946411E+03  0.27844946411E+03  0.00000000000E+00 0. -1.
         23    2    1    2    0    0  0.18947938585E+02  0.18771123068E+02  0.31850877408E+02  0.12082842170E+03  0.11346210672E+03 0.  0.
         23    2    1    2    0    0 -0.27062291400E+02  0.96415629209E+01 -0.20608568121E+03  0.22608911631E+03  0.88428802794E+02 0.  0.
        -11    1    3    3    0    0 -0.29535766634E+02 -0.22154672189E+02 -0.17103241602E+02  0.40690439710E+02  0.00000000000E+00 0.  1.
         11    1    3    3    0    0  0.48483705220E+02  0.40925795257E+02  0.48954119010E+02  0.80137981989E+02  0.00000000000E+00 0. -1.
        -11    1    4    4    0    0 -0.17272600381E+02 -0.39069855123E+02 -0.82847590874E+02  0.93212228902E+02  0.00000000000E+00 0.  1.
         11    1    4    4    0    0 -0.97896910194E+01  0.48711418044E+02 -0.12323809034E+03  0.13287688741E+03  0.00000000000E+00 0. -1.
         21    1    1    2  502  501  0.81143528148E+01 -0.28412685988E+02 -0.56606103279E+01  0.30085976068E+02  0.00000000000E+00 0. -1.
<scales pt_clust_5="13000.00000" pt_clust_6="13000.00000" pt_clust_7="13000.00000" pt_clust_8="13000.00000" pt_clust_9="29.54866"></scales>
<clustering>
<clus scale="   29.549">  1  9  2 -1</clus>
<clus scale="   88.429">  7  8 -1 -1</clus>
<clus scale="   92.425">  2  7  1 -1</clus>
<clus scale="  113.462">  5  6 -1 -1</clus>
<clus scale="   92.425">  2  5  1 -1</clus>
</clustering>
</event>
<event>
 9    1  0.1484717E-005  0.9685041E+02  0.7546771E-02  0.1287469E+00
         -1   -1    0    0    0  501 -0.00000000000E+00  0.00000000000E+00  0.53366656747E+02  0.53366656747E+02  0.00000000000E+00 0.  1.
          1   -1    0    0  502    0  0.00000000000E+00 -0.00000000000E+00 -0.28352340414E+03  0.28352340414E+03  0.00000000000E+00 0. -1.
         23    2    1    2    0    0 -0.88661157314E+01 -0.34367320885E+02 -0.90279311831E+02  0.13327211173E+03  0.91385889874E+02 0.  0.
         23    2    1    2    0    0  0.41562476854E+02  0.41816953120E+01 -0.11639683832E+03  0.15330331442E+03  0.90602186412E+02 0.  0.
        -11    1    4    4    0    0  0.10224375296E+02 -0.42404495260E+02 -0.51445166004E+02  0.67448381549E+02  0.00000000000E+00 0. -1.
         11    1    4    4    0    0  0.31338101559E+02  0.46586190572E+02 -0.64951672319E+02  0.85854932871E+02  0.00000000000E+00 0.  1.
        -11    1    3    3    0    0 -0.49174160999E+02 -0.78784273244E+01 -0.46305637758E+02  0.68002792702E+02  0.00000000000E+00 0.  1.
         11    1    3    3    0    0  0.40308045267E+02 -0.26488893561E+02 -0.43973674072E+02  0.65269319031E+02  0.00000000000E+00 0. -1.
         21    1    1    2  502  501 -0.32696361123E+02  0.30185625573E+02 -0.23480597244E+02  0.50314634738E+02  0.00000000000E+00 0.  1.
<scales pt_clust_5="13000.00000" pt_clust_6="13000.00000" pt_clust_7="13000.00000" pt_clust_8="13000.00000" pt_clust_9="44.49971"></scales>
<clustering>
<clus scale="   44.500">  1  9  2 -1</clus>
<clus scale="   90.602">  5  6 -1 -1</clus>
<clus scale="   91.386">  7  8 -1 -1</clus>
<clus scale="   96.111">  2  5  1 -1</clus>
<clus scale="   96.111">  2  5  1 -1</clus>
</clustering>
</event>
<event>
 9    1  0.1484717E-005  0.2899337E+03  0.7546771E-02  0.1117502E+00
         -1   -1    0    0    0  501 -0.00000000000E+00  0.00000000000E+00  0.24664703191E+03  0.24664703191E+03  0.00000000000E+00 0.  1.
          1   -1    0    0  502    0  0.00000000000E+00 -0.00000000000E+00 -0.60528342528E+03  0.60528342528E+03  0.00000000000E+00 0. -1.
         23    2    1    2    0    0 -0.54590374892E+02  0.27774942540E+03 -0.11792809569E+03  0.31995732207E+03  0.91327979565E+02 0.  0.
         23    2    1    2    0    0 -0.10493354050E+03 -0.48217293795E+02 -0.20435683798E+03  0.25009673022E+03  0.86317448359E+02 0.  0.
        -11    1    3    3    0    0 -0.30547534733E+02  0.13235231898E+03 -0.79344365862E+01  0.13606338045E+03  0.00000000000E+00 0.  1.
         11    1    3    3    0    0 -0.24042840159E+02  0.14539710643E+03 -0.10999365911E+03  0.18389394162E+03  0.00000000000E+00 0. -1.
        -13    1    4    4    0    0 -0.77889046913E+02 -0.72870907346E+02 -0.13920476256E+03  0.17537057531E+03  0.00000000000E+00 0. -1.
         13    1    4    4    0    0 -0.27044493585E+02  0.24653613550E+02 -0.65152075426E+02  0.74726154903E+02  0.00000000000E+00 0.  1.
         21    1    1    2  502  501  0.15952391539E+03 -0.22953213161E+03 -0.36351459689E+02  0.28187640491E+03  0.00000000000E+00 0. -1.
<scales pt_clust_5="13000.00000" pt_clust_6="13000.00000" pt_clust_7="13000.00000" pt_clust_8="13000.00000" pt_clust_9="275.17405"></scales>
<clustering>
<clus scale="   86.317">  7  8 -1 -1</clus>
<clus scale="   91.328">  5  6 -1 -1</clus>
<clus scale="  144.176">  2  7  1 -1</clus>
<clus scale="  275.174">  1  9  2 -1</clus>
<clus scale="  144.176">  2  5  1 -1</clus>
</clustering>
</event>
<event>
 9    1  0.1484717E-005  0.1107618E+03  0.7546771E-02  0.1259731E+00
         -1   -1    0    0    0  501 -0.00000000000E+00  0.00000000000E+00  0.77634776968E+02  0.77634776968E+02  0.00000000000E+00 0.  1.
          1   -1    0    0  502    0  0.00000000000E+00 -0.00000000000E+00 -0.22729738721E+03  0.22729738721E+03  0.00000000000E+00 0. -1.
         23    2    1    2    0    0 -0.48347170614E+02 -0.30386687833E+02 -0.14072206268E+02  0.10936620891E+03  0.92207054818E+02 0.  0.
         23    2    1    2    0    0  0.70118136452E+02  0.20346172737E+02 -0.11830938946E+03  0.16601226922E+03  0.90732806030E+02 0.  0.
        -11    1    4    4    0    0  0.47042139210E+02 -0.33513074534E+02 -0.55178290542E+02  0.79879489065E+02  0.00000000000E+00 0.  1.
         11    1    4    4    0    0  0.23075997242E+02  0.53859247271E+02 -0.63131098923E+02  0.86132780151E+02  0.00000000000E+00 0. -1.
        -11    1    3    3    0    0 -0.39743858427E+02 -0.22579899928E+01 -0.49369286504E+02  0.63419234080E+02  0.00000000000E+00 0. -1.
         11    1    3    3    0    0 -0.86033121865E+01 -0.28128697840E+02  0.35297080236E+02  0.45946974829E+02  0.00000000000E+00 0.  1.
         21    1    1    2  502  501 -0.21770965838E+02  0.10040515096E+02 -0.17281014513E+02  0.29553686057E+02  0.00000000000E+00 0. -1.
<scales pt_clust_5="13000.00000" pt_clust_6="13000.00000" pt_clust_7="13000.00000" pt_clust_8="13000.00000" pt_clust_9="23.97471"></scales>
<clustering>
<clus scale="   23.975">  2  9  1 -1</clus>
<clus scale="   90.733">  5  6 -1 -1</clus>
<clus scale="   92.207">  7  8 -1 -1</clus>
<clus scale="  109.538">  2  5  1 -1</clus>
<clus scale="   23.975">  2  5  1 -1</clus>
</clustering>
</event>
<event>
 9    1  0.1484717E-005  0.1028641E+03  0.7546771E-02  0.1276113E+00
          1   -1    0    0  502    0  0.00000000000E+00  0.00000000000E+00  0.13298460930E+03  0.13298460930E+03  0.00000000000E+00 0. -1.
         -1   -1    0    0    0  501 -0.00000000000E+00 -0.00000000000E+00 -0.20406322654E+03  0.20406322654E+03  0.00000000000E+00 0.  1.
         23    2    1    2    0    0 -0.26479057532E+02  0.31590026788E+02 -0.78500432053E+02  0.12590822631E+03  0.89395152779E+02 0.  0.
         23    2    1    2    0    0  0.43691764280E+02 -0.13354948049E+02  0.82154838139E+02  0.13231182163E+03  0.93111093920E+02 0.  0.
        -11    1    4    4    0    0 -0.13019524286E+02  0.21509302520E+02 -0.17525542424E+01  0.25203760710E+02  0.00000000000E+00 0.  1.
         11    1    4    4    0    0  0.56711288565E+02 -0.34864250570E+02  0.83907392382E+02  0.10710806092E+03  0.00000000000E+00 0. -1.
        -13    1    3    3    0    0 -0.35935382240E+02  0.54522166422E+02 -0.77137614472E+02  0.10106547331E+03  0.00000000000E+00 0.  1.
         13    1    3    3    0    0  0.94563247080E+01 -0.22932139634E+02 -0.13628175809E+01  0.24842753007E+02  0.00000000000E+00 0. -1.
         21    1    1    2  502  501 -0.17212706748E+02 -0.18235078739E+02 -0.74733023320E+02  0.78827787897E+02  0.00000000000E+00 0.  1.
<scales pt_clust_5="13000.00000" pt_clust_6="13000.00000" pt_clust_7="13000.00000" pt_clust_8="13000.00000" pt_clust_9="25.07579"></scales>
<clustering>
<clus scale="   25.076">  2  9  1 -1</clus>
<clus scale="   89.395">  7  8 -1 -1</clus>
<clus scale="   93.111">  5  6 -1 -1</clus>
<clus scale="   99.513">  2  7  1 -1</clus>
<clus scale="  102.864">  1  5  2 -1</clus>
</clustering>
</event>
<event>
 9    1  0.1484717E-005  0.3221390E+03  0.7546771E-02  0.1074885E+00
          2   -1    0    0  502    0  0.00000000000E+00  0.00000000000E+00  0.15027849719E+03  0.15027849719E+03  0.00000000000E+00 0. -1.
         -2   -1    0    0    0  501 -0.00000000000E+00 -0.00000000000E+00 -0.11084114613E+04  0.11084114613E+04  0.00000000000E+00 0.  1.
         23    2    1    2    0    0 -0.56882348418E+01  0.33499822238E+03 -0.38952013770E+03  0.52077853895E+03  0.85018727046E+02 0.  0.
         23    2    1    2    0    0  0.85409356813E+02 -0.28329974296E+03 -0.22903495131E+03  0.38529076882E+03  0.91861118101E+02 0.  0.
        -11    1    4    4    0    0 -0.16077720041E+01 -0.10990335884E+03 -0.48002082026E+02  0.11993970608E+03  0.00000000000E+00 0. -1.
         11    1    4    4    0    0  0.87017128817E+02 -0.17339638412E+03 -0.18103286929E+03  0.26535106274E+03  0.00000000000E+00 0.  1.
        -11    1    3    3    0    0  0.15152735213E+02  0.30217980876E+03 -0.36776692643E+03  0.47622972858E+03  0.00000000000E+00 0.  1.
         11    1    3    3    0    0 -0.20840970055E+02  0.32818413613E+02 -0.21753211269E+02  0.44548810370E+02  0.00000000000E+00 0. -1.
         21    1    1    2  502  501 -0.79721121971E+02 -0.51698479416E+02 -0.33957787505E+03  0.35262065068E+03  0.00000000000E+00 0.  1.
<scales pt_clust_5="13000.00000" pt_clust_6="13000.00000" pt_clust_7="13000.00000" pt_clust_8="13000.00000" pt_clust_9="95.01679"></scales>
<clustering>
<clus scale="   85.019">  7  8 -1 -1</clus>
<clus scale="   91.861">  5  6 -1 -1</clus>
<clus scale="   95.017">  2  9  1 -1</clus>
<clus scale="  320.255">  2  7  1 -1</clus>
<clus scale="  322.139">  1  5  2 -1</clus>
</clustering>
</event>
<event>
 9    1  0.1484717E-005  0.1363029E+03  0.7546771E-02  0.1218754E+00
         -1   -1    0    0    0  501 -0.00000000000E+00  0.00000000000E+00  0.67870909291E+02  0.67870909291E+02  0.00000000000E+00 0.  1.
          1   -1    0    0  502    0  0.00000000000E+00 -0.00000000000E+00 -0.57016362076E+03  0.57016362076E+03  0.00000000000E+00 0. -1.
         23    2    1    2    0    0 -0.88757945633E+02 -0.60516727955E+02 -0.53746045926E+02  0.15148724671E+03  0.92301144026E+02 0.  0.
         23    2    1    2    0    0  0.57588513367E+02  0.79454011405E+02 -0.41625944881E+03  0.43783775063E+03  0.93811461736E+02 0.  0.
        -11    1    3    3    0    0 -0.39849435761E+02 -0.24368555957E+01 -0.63423847287E+02  0.74943313247E+02  0.00000000000E+00 0. -1.
         11    1    3    3    0    0 -0.48908509873E+02 -0.58079872359E+02  0.96778013617E+01  0.76543933466E+02  0.00000000000E+00 0.  1.
        -11    1    4    4    0    0  0.53832197442E+02 -0.21900179988E+01 -0.17554011922E+03  0.18362198974E+03  0.00000000000E+00 0. -1.
         11    1    4    4    0    0  0.37563159245E+01  0.81644029404E+02 -0.24071932959E+03  0.25421576089E+03  0.00000000000E+00 0.  1.
         21    1    1    2  502  501  0.31169432267E+02 -0.18937283450E+02 -0.32287216736E+02  0.48709532710E+02  0.00000000000E+00 0.  1.
<scales pt_clust_5="13000.00000" pt_clust_6="13000.00000" pt_clust_7="13000.00000" pt_clust_8="13000.00000" pt_clust_9="36.47128"></scales>
<clustering>
<clus scale="   36.471">  1  9  2 -1</clus>
<clus scale="   92.301">  5  6 -1 -1</clus>
<clus scale="   93.811">  7  8 -1 -1</clus>
<clus scale="  135.268">  1  5  2 -1</clus>
<clus scale="  136.303">  2  5  1 -1</clus>
</clustering>
</event>
<event>
 9    1  0.1484717E-005  0.1970815E+03  0.7546771E-02  0.1175952E+00
          1   -1    0    0  502    0  0.00000000000E+00  0.00000000000E+00  0.32907632754E+03  0.32907632754E+03  0.00000000000E+00 0. -1.
         -1   -1    0    0    0  501 -0.00000000000E+00 -0.00000000000E+00 -0.26176341213E+03  0.26176341213E+03  0.00000000000E+00 0.  1.
         23    2    1    2    0    0 -0.63285996053E+02  0.25420984540E+02 -0.17153573765E+02  0.11516967269E+03  0.91205617503E+02 0.  0.
         23    2    1    2    0    0 -0.11342153070E+03 -0.80822902242E+02 -0.11648329148E+03  0.20240145033E+03  0.89449453585E+02 0.  0.
        -11    1    4    4    0    0  0.21029520820E+01 -0.44301734118E+02 -0.30140679621E+02  0.53623937018E+02  0.00000000000E+00 0. -1.
         11    1    4    4    0    0 -0.11552448278E+03 -0.36521168123E+02 -0.86342611861E+02  0.14877751331E+03  0.00000000000E+00 0.  1.
        -11    1    3    3    0    0  0.22658896688E+02 -0.40642236522E+01 -0.31569746043E+01  0.23235963541E+02  0.00000000000E+00 0. -1.
         11    1    3    3    0    0 -0.85944892742E+02  0.29485208193E+02 -0.13996599160E+02  0.91933709153E+02  0.00000000000E+00 0.  1.
         21    1    1    2  502  501  0.17670752675E+03  0.55401917701E+02  0.20094978067E+03  0.27326861665E+03  0.00000000000E+00 0. -1.
<scales pt_clust_5="13000.00000" pt_clust_6="13000.00000" pt_clust_7="13000.00000" pt_clust_8="13000.00000" pt_clust_9="175.61297"></scales>
<clustering>
<clus scale="   89.449">  5  6 -1 -1</clus>
<clus scale="   91.206">  7  8 -1 -1</clus>
<clus scale="  113.885">  2  7  1 -1</clus>
<clus scale="  175.613">  1  9  2 -1</clus>
<clus scale="  175.613">  1  5  2 -1</clus>
</clustering>
</event>
<event>
 9    1  0.1484717E-005  0.1147331E+03  0.7546771E-02  0.1253880E+00
         -1   -1    0    0    0  501 -0.00000000000E+00  0.00000000000E+00  0.20438673205E+03  0.20438673205E+03  0.00000000000E+00 0.  1.
          1   -1    0    0  502    0  0.00000000000E+00 -0.00000000000E+00 -0.88178547879E+02  0.88178547879E+02  0.00000000000E+00 0. -1.
         23    2    1    2    0    0 -0.37586044120E+02  0.44543875127E+02  0.85079187785E+02  0.13531604061E+03  0.87607620269E+02 0.  0.
         23    2    1    2    0    0  0.64068671064E+02 -0.37149697394E+02  0.41877760597E+01  0.11875465857E+03  0.92737461873E+02 0.  0.
        -11    1    3    3    0    0  0.18988051307E+02  0.40007048128E+02  0.56452575209E+02  0.71749587037E+02  0.00000000000E+00 0. -1.
         11    1    3    3    0    0 -0.56574095427E+02  0.45368269991E+01  0.28626612576E+02  0.63566453575E+02  0.00000000000E+00 0.  1.
        -13    1    4    4    0    0 -0.17158237401E+02  0.10957458021E+02  0.12655809975E+02  0.23971660834E+02  0.00000000000E+00 0.  1.
         13    1    4    4    0    0  0.81226908466E+02 -0.48107155414E+02 -0.84680339156E+01  0.94782997733E+02  0.00000000000E+00 0. -1.
         21    1    1    2  502  501 -0.26482626945E+02 -0.73941777332E+01  0.26941220323E+02  0.38494580745E+02  0.00000000000E+00 0. -1.
<scales pt_clust_5="13000.00000" pt_clust_6="13000.00000" pt_clust_7="13000.00000" pt_clust_8="13000.00000" pt_clust_9="27.49552"></scales>
<clustering>
<clus scale="   27.496">  1  9  2 -1</clus>
<clus scale="   87.608">  5  6 -1 -1</clus>
<clus scale="   92.737">  7  8 -1 -1</clus>
<clus scale="  110.628">  1  5  2 -1</clus>
<clus scale="  114.733">  2  5  1 -1</clus>
</clustering>
</event>
<event>
 9    1  0.1484717E-005  0.9714776E+02  0.7546771E-02  0.1286660E+00
         -1   -1    0    0    0  501 -0.00000000000E+00  0.00000000000E+00  0.13896382157E+03  0.13896382157E+03  0.00000000000E+00 0.  1.
          1   -1    0    0  502    0  0.00000000000E+00 -0.00000000000E+00 -0.63070781208E+03  0.63070781208E+03  0.00000000000E+00 0. -1.
         23    2    1    2    0    0  0.12997070624E+02  0.19229340481E+02 -0.25307399384E+03  0.27002085792E+03  0.91247608048E+02 0.  0.
         23    2    1    2    0    0  0.35573189902E+01 -0.44518644977E+02 -0.36034689980E+03  0.37427587595E+03  0.90763312260E+02 0.  0.
        -11    1    4    4    0    0 -0.40382665224E+02 -0.40072044491E+02 -0.19451811714E+03  0.20266678636E+03  0.00000000000E+00 0. -1.
         11    1    4    4    0    0  0.43939984214E+02 -0.44466004852E+01 -0.16582878267E+03  0.17160908959E+03  0.00000000000E+00 0.  1.
        -11    1    3    3    0    0 -0.27591016835E+02 -0.11143095162E+02 -0.34109352097E+02  0.45264563184E+02  0.00000000000E+00 0. -1.
         11    1    3    3    0    0  0.40588087458E+02  0.30372435644E+02 -0.21896464175E+03  0.22475629474E+03  0.00000000000E+00 0.  1.
         21    1    1    2  502  501 -0.16554389614E+02  0.25289304495E+02  0.12167690313E+03  0.12537489977E+03  0.00000000000E+00 0.  1.
<scales pt_clust_5="13000.00000" pt_clust_6="13000.00000" pt_clust_7="13000.00000" pt_clust_8="13000.00000" pt_clust_9="30.22576"></scales>
<clustering>
<clus scale="   30.226">  1  9  2 -1</clus>
<clus scale="   90.763">  5  6 -1 -1</clus>
<clus scale="   91.248">  7  8 -1 -1</clus>
<clus scale="   96.693">  2  5  1 -1</clus>
<clus scale="   96.693">  2  5  1 -1</clus>
</clustering>
</event>
<event>
 9    1  0.1484717E-005  0.9739804E+02  0.7546771E-02  0.1285958E+00
         -4   -1    0    0    0  501 -0.00000000000E+00  0.00000000000E+00  0.52482475893E+03  0.52482475893E+03  0.00000000000E+00 0.  1.
          4   -1    0    0  502    0  0.00000000000E+00 -0.00000000000E+00 -0.23040581825E+02  0.23040581825E+02  0.00000000000E+00 0. -1.
         23    2    1    2    0    0  0.28040325559E+02 -0.21448339577E+02  0.22878218966E+03  0.24907833984E+03  0.91937141261E+02 0.  0.
         23    2    1    2    0    0 -0.32108512666E+02 -0.13817084321E+01  0.20726291920E+03  0.22907770216E+03  0.92118457709E+02 0.  0.
        -13    1    4    4    0    0 -0.57975697743E+01 -0.43987423476E+02  0.12645188077E+03  0.13400963917E+03  0.00000000000E+00 0. -1.
         13    1    4    4    0    0 -0.26310942892E+02  0.42605715044E+02  0.80811038425E+02  0.95068062995E+02  0.00000000000E+00 0.  1.
        -13    1    3    3    0    0  0.12081795570E+02 -0.41381253837E+02  0.21648833914E+03  0.22073871192E+03  0.00000000000E+00 0.  1.
         13    1    3    3    0    0  0.15958529989E+02  0.19932914260E+02  0.12293850517E+02  0.28339627923E+02  0.00000000000E+00 0. -1.
         21    1    1    2  502  501  0.40681871067E+01  0.22830048009E+02  0.65739068248E+02  0.69709298752E+02  0.00000000000E+00 0.  1.
<scales pt_clust_5="13000.00000" pt_clust_6="13000.00000" pt_clust_7="13000.00000" pt_clust_8="13000.00000" pt_clust_9="23.18968"></scales>
<clustering>
<clus scale="   23.190">  1  9  2 -1</clus>
<clus scale="   91.937">  7  8 -1 -1</clus>
<clus scale="   92.118">  5  6 -1 -1</clus>
<clus scale="   97.227">  1  7  2 -1</clus>
<clus scale="   97.398">  2  5  1 -1</clus>
</clustering>
</event>
<event>
 9    1  0.1484717E-005  0.1596992E+03  0.7546771E-02  0.1189405E+00
         -1   -1    0    0    0  501 -0.00000000000E+00  0.00000000000E+00  0.33723904087E+03  0.33723904087E+03  0.00000000000E+00 0.  1.
          1   -1    0    0  502    0  0.00000000000E+00 -0.00000000000E+00 -0.16249260564E+03  0.16249260564E+03  0.00000000000E+00 0. -1.
         23    2    1    2    0    0 -0.40612264313E+02 -0.18607254489E+03  0.13567605911E+03  0.25041411242E+03  0.89592894280E+02 0.  0.
         23    2    1    2    0    0  0.21600664153E+02  0.10980276974E+03 -0.26216723126E+02  0.14713669015E+03  0.91862136280E+02 0.  0.
        -11    1    3    3    0    0  0.28164242955E+02 -0.39363275353E+02  0.33331169915E+02  0.58767839127E+02  0.00000000000E+00 0. -1.
         11    1    3    3    0    0 -0.68776507268E+02 -0.14670926954E+03  0.10234488920E+03  0.19164627329E+03  0.00000000000E+00 0.  1.
        -11    1    4    4    0    0  0.13608043292E+02  0.15389323449E+02 -0.45967426711E+02  0.50348926869E+02  0.00000000000E+00 0.  1.
         11    1    4    4    0    0  0.79926208614E+01  0.94413446287E+02  0.19750703584E+02  0.96787763277E+02  0.00000000000E+00 0. -1.
         21    1    1    2  502  501  0.19011600159E+02  0.76269775159E+02  0.65287099243E+02  0.10218084395E+03  0.00000000000E+00 0. -1.
<scales pt_clust_5="13000.00000" pt_clust_6="13000.00000" pt_clust_7="13000.00000" pt_clust_8="13000.00000" pt_clust_9="78.60356"></scales>
<clustering>
<clus scale="   78.604">  1  9  2 -1</clus>
<clus scale="   89.593">  5  6 -1 -1</clus>
<clus scale="   91.862">  7  8 -1 -1</clus>
<clus scale="  158.405">  1  5  2 -1</clus>
<clus scale="  159.699">  2  5  1 -1</clus>
</clustering>
</event>
<event>
 9    1  0.1484717E-005  0.1020348E+03  0.7546771E-02  0.1277036E+00
          2   -1    0    0  502    0  0.00000000000E+00  0.00000000000E+00  0.41847075641E+03  0.41847075641E+03  0.00000000000E+00 0. -1.
         -2   -1    0    0    0  501 -0.00000000000E+00 -0.00000000000E+00 -0.33265701282E+02  0.33265701282E+02  0.00000000000E+00 0.  1.
         23    2    1    2    0    0  0.34919405301E+02  0.15779374613E+02  0.15326502493E+03  0.18272395481E+03  0.91812429793E+02 0.  0.
         23    2    1    2    0    0 -0.54744654613E+02  0.76633463103E+01  0.17372967875E+03  0.20320181461E+03  0.89740025066E+02 0.  0.
        -11    1    4    4    0    0  0.21948309646E+02  0.73279809183E+01  0.73120226422E+02  0.76694166093E+02  0.00000000000E+00 0. -1.
         11    1    4    4    0    0 -0.76692964259E+02  0.33536539200E+00  0.10060945233E+03  0.12650764852E+03  0.00000000000E+00 0.  1.
        -13    1    3    3    0    0  0.99426275411E+00 -0.36781036100E+02  0.61419203745E+02  0.71597149131E+02  0.00000000000E+00 0.  1.
         13    1    3    3    0    0  0.33925142547E+02  0.52560410713E+02  0.91845821186E+02  0.11112680568E+03  0.00000000000E+00 0. -1.
         21    1    1    2  502  501  0.19825249312E+02 -0.23442720923E+02  0.58210351453E+02  0.65810688272E+02  0.00000000000E+00 0.  1.
<scales pt_clust_5="13000.00000" pt_clust_6="13000.00000" pt_clust_7="13000.00000" pt_clust_8="13000.00000" pt_clust_9="30.70182"></scales>
<clustering>
<clus scale="   30.702">  1  9  2 -1</clus>
<clus scale="   89.740">  5  6 -1 -1</clus>
<clus scale="   91.812">  7  8 -1 -1</clus>
<clus scale="  100.174">  1  5  2 -1</clus>
<clus scale="   30.702">  1  5  2 -1</clus>
</clustering>
</event>
<event>
 9    1  0.1484717E-005  0.1417286E+03  0.7546771E-02  0.1211450E+00
          1   -1    0    0  502    0  0.00000000000E+00  0.00000000000E+00  0.47121398146E+03  0.47121398146E+03  0.00000000000E+00 0. -1.
         -1   -1    0    0    0  501 -0.00000000000E+00 -0.00000000000E+00 -0.26243773824E+03  0.26243773824E+03  0.00000000000E+00 0.  1.
         23    2    1    2    0    0  0.11782179935E+03  0.35078363041E+02  0.18273713747E+02  0.15512871227E+03  0.92835988720E+02 0.  0.
         23    2    1    2    0    0 -0.10456326267E+03 -0.54785492602E+01  0.37052061142E+03  0.39560650299E+03  0.90859734303E+02 0.  0.
        -13    1    3    3    0    0  0.28031996505E+02 -0.30562909226E+02  0.14179131899E+02  0.43828438597E+02  0.00000000000E+00 0. -1.
         13    1    3    3    0    0  0.89789802842E+02  0.65641272267E+02  0.40945818488E+01  0.11130027367E+03  0.00000000000E+00 0.  1.
        -13    1    4    4    0    0 -0.58716887500E+02  0.15024487808E+02  0.77865708078E+02  0.98673586162E+02  0.00000000000E+00 0.  1.
         13    1    4    4    0    0 -0.45846375173E+02 -0.20503037068E+02  0.29265490334E+03  0.29693291683E+03  0.00000000000E+00 0. -1.
         21    1    1    2  502  501 -0.13258536674E+02 -0.29599813781E+02 -0.18001808194E+03  0.18291650444E+03  0.00000000000E+00 0.  1.
<scales pt_clust_5="13000.00000" pt_clust_6="13000.00000" pt_clust_7="13000.00000" pt_clust_8="13000.00000" pt_clust_9="32.43359"></scales>
<clustering>
<clus scale="   32.434">  2  9  1 -1</clus>
<clus scale="   90.860">  7  8 -1 -1</clus>
<clus scale="   92.836">  5  6 -1 -1</clus>
<clus scale="  140.442">  1  7  2 -1</clus>
<clus scale="  140.442">  1  5  2 -1</clus>
</clustering>
</event>
<event>
 9    1  0.1484717E-005  0.1240854E+03  0.7546771E-02  0.1247520E+00
         -1   -1    0    0    0  501 -0.00000000000E+00  0.00000000000E+00  0.30814733911E+03  0.30814733911E+03  0.00000000000E+00 0.  1.
          1   -1    0    0  502    0  0.00000000000E+00 -0.00000000000E+00 -0.11307550109E+03  0.11307550109E+03  0.00000000000E+00 0. -1.
         23    2    1    2    0    0  0.24391692030E+02 -0.45554685095E+02  0.14176240022E+03  0.16418366146E+03  0.64726444381E+02 0.  0.
         23    2    1    2    0    0 -0.53421841813E+02  0.62155128330E+02 -0.58049094649E+02  0.14076774174E+03  0.98634205851E+02 0.  0.
        -11    1    3    3    0    0  0.38703727489E+02 -0.42664330376E+01  0.61317091338E+02  0.72635849706E+02  0.00000000000E+00 0.  1.
         11    1    3    3    0    0 -0.14312035459E+02 -0.41288252058E+02  0.80445308877E+02  0.91547811756E+02  0.00000000000E+00 0. -1.
        -13    1    4    4    0    0 -0.13504915214E+02  0.15638824120E+02  0.28197851332E+02  0.34958180366E+02  0.00000000000E+00 0.  1.
         13    1    4    4    0    0 -0.39916926599E+02  0.46516304210E+02 -0.86246945981E+02  0.10580956137E+03  0.00000000000E+00 0. -1.
         21    1    1    2  502  501  0.29030149783E+02 -0.16600443235E+02  0.11135853245E+03  0.11627143700E+03  0.00000000000E+00 0.  1.
<scales pt_clust_5="13000.00000" pt_clust_6="13000.00000" pt_clust_7="13000.00000" pt_clust_8="13000.00000" pt_clust_9="33.44136"></scales>
<clustering>
<clus scale="   33.441">  1  9  2 -1</clus>
<clus scale="   64.726">  5  6 -1 -1</clus>
<clus scale="   98.634">  7  8 -1 -1</clus>
<clus scale="   99.287">  1  5  2 -1</clus>
<clus scale="  124.085">  2  5  1 -1</clus>
</clustering>
</event>
<event>
 9    1  0.1484717E-005  0.1575269E+03  0.7546771E-02  0.1191815E+00
          2   -1    0    0  502    0  0.00000000000E+00  0.00000000000E+00  0.83628187328E+02  0.83628187328E+02  0.00000000000E+00 0. -1.
         -2   -1    0    0    0  501 -0.00000000000E+00 -0.00000000000E+00 -0.10680052117E+04  0.10680052117E+04  0.00000000000E+00 0.  1.
         23    2    1    2    0    0 -0.12456110651E+03  0.99442001366E+02 -0.25296189445E+03  0.31206792297E+03  0.89400713729E+02 0.  0.
         23    2    1    2    0    0  0.45925039382E+01 -0.13317927304E+03 -0.83931922667E+02  0.18019822423E+03  0.87572955374E+02 0.  0.
        -11    1    4    4    0    0 -0.14509767840E+02 -0.11728103259E+03 -0.96294927347E+02  0.15244043755E+03  0.00000000000E+00 0. -1.
         11    1    4    4    0    0  0.19102271778E+02 -0.15898240449E+02  0.12363004680E+02  0.27757786677E+02  0.00000000000E+00 0.  1.
        -13    1    3    3    0    0 -0.13696157576E+03  0.77954214202E+02 -0.22480144765E+03  0.27453783639E+03  0.00000000000E+00 0.  1.
         13    1    3    3    0    0  0.12400469248E+02  0.21487787164E+02 -0.28160446800E+02  0.37530086581E+02  0.00000000000E+00 0. -1.
         21    1    1    2  502  501  0.11996860257E+03  0.33737271671E+02 -0.64748320730E+03  0.65936725187E+03  0.00000000000E+00 0.  1.
<scales pt_clust_5="13000.00000" pt_clust_6="13000.00000" pt_clust_7="13000.00000" pt_clust_8="13000.00000" pt_clust_9="124.62211"></scales>
<clustering>
<clus scale="   87.573">  5  6 -1 -1</clus>
<clus scale="   89.401">  7  8 -1 -1</clus>
<clus scale="  124.622">  2  9  1 -1</clus>
<clus scale="  156.497">  1  5  2 -1</clus>
<clus scale="  156.497">  1  5  2 -1</clus>
</clustering>
</event>
<event>
 9    1  0.1484717E-005  0.1080768E+03  0.7546771E-02  0.1265457E+00
         -4   -1    0    0    0  501 -0.00000000000E+00  0.00000000000E+00  0.73232219558E+03  0.73232219558E+03  0.00000000000E+00 0.  1.
          4   -1    0    0  502    0  0.00000000000E+00 -0.00000000000E+00 -0.89134260517E+02  0.89134260517E+02  0.00000000000E+00 0. -1.
         23    2    1    2    0    0  0.61762564797E+02 -0.30469692962E+02  0.61123178991E+03  0.62157248423E+03  0.89470864266E+02 0.  0.
         23    2    1    2    0    0 -0.32744876255E+02  0.44662434129E+02 -0.44628674870E+02  0.11676541312E+03  0.92603904548E+02 0.  0.
        -13    1    3    3    0    0  0.17017911794E+02 -0.57940904205E+02  0.33185314319E+03  0.33730292965E+03  0.00000000000E+00 0.  1.
         13    1    3    3    0    0  0.44744653003E+02  0.27471211243E+02  0.27937864672E+03  0.28426955458E+03  0.00000000000E+00 0. -1.
        -13    1    4    4    0    0 -0.49596819275E+02  0.63650434899E+02 -0.24389111382E+02  0.84297396751E+02  0.00000000000E+00 0. -1.
         13    1    4    4    0    0  0.16851943020E+02 -0.18988000771E+02 -0.20239563488E+02  0.32468016370E+02  0.00000000000E+00 0.  1.
         21    1    1    2  502  501 -0.29017688542E+02 -0.14192741167E+02  0.76584820019E+02  0.83118558743E+02  0.00000000000E+00 0.  1.
<scales pt_clust_5="13000.00000" pt_clust_6="13000.00000" pt_clust_7="13000.00000" pt_clust_8="13000.00000" pt_clust_9="32.30263"></scales>
<clustering>
<clus scale="   32.303">  1  9  2 -1</clus>
<clus scale="   89.471">  5  6 -1 -1</clus>
<clus scale="   92.604">  7  8 -1 -1</clus>
<clus scale="  105.405">  1  5  2 -1</clus>
<clus scale="  108.077">  2  5  1 -1</clus>
</clustering>
</event>
<event>
 9    1  0.1484717E-005  0.1528471E+03  0.7546771E-02  0.1197304E+00
         -1   -1    0    0    0  501 -0.00000000000E+00  0.00000000000E+00  0.79171184859E+02  0.79171184859E+02  0.00000000000E+00 0.  1.
          1   -1    0    0  502    0  0.00000000000E+00 -0.00000000000E+00 -0.61569336818E+03  0.61569336818E+03  0.00000000000E+00 0. -1.
         23    2    1    2    0    0  0.10035256451E+03  0.10159775316E+03 -0.55148737978E+02  0.17959662880E+03  0.93919247880E+02 0.  0.
         23    2    1    2    0    0 -0.85935759411E+02 -0.78428879849E+02 -0.44895862936E+03  0.47289622077E+03  0.92363092217E+02 0.  0.
        -11    1    3    3    0    0  0.46691644616E+02  0.60167190460E+02 -0.77065741350E+02  0.10834818399E+03  0.00000000000E+00 0. -1.
         11    1    3    3    0    0  0.53660919896E+02  0.41430562702E+02  0.21917003372E+02  0.71248444802E+02  0.00000000000E+00 0.  1.
        -13    1    4    4    0    0 -0.16087645444E+01 -0.54391417266E+02 -0.24354310488E+03  0.24954810825E+03  0.00000000000E+00 0. -1.
         13    1    4    4    0    0 -0.84326994867E+02 -0.24037462583E+02 -0.20541552448E+03  0.22334811252E+03  0.00000000000E+00 0.  1.
         21    1    1    2  502  501 -0.14416805101E+02 -0.23168873314E+02 -0.32414815988E+02  0.42371703476E+02  0.00000000000E+00 0. -1.
<scales pt_clust_5="13000.00000" pt_clust_6="13000.00000" pt_clust_7="13000.00000" pt_clust_8="13000.00000" pt_clust_9="27.28811"></scales>
<clustering>
<clus scale="   27.288">  1  9  2 -1</clus>
<clus scale="   92.363">  7  8 -1 -1</clus>
<clus scale="   93.919">  5  6 -1 -1</clus>
<clus scale="  151.896">  2  7  1 -1</clus>
<clus scale="  151.896">  2  5  1 -1</clus>
</clustering>
</event>
<event>
 9    1  0.1484717E-005  0.9312185E+02  0.7546771E-02  0.1296204E+00
         -1   -1    0    0    0  501 -0.00000000000E+00  0.00000000000E+00  0.14657471662E+03  0.14657471662E+03  0.00000000000E+00 0.  1.
          1   -1    0    0  502    0  0.00000000000E+00 -0.00000000000E+00 -0.79321474256E+02  0.79321474256E+02  0.00000000000E+00 0. -1.
         23    2    1    2    0    0 -0.19588201242E+02  0.35008384347E+01  0.48154927494E+02  0.10634037718E+03  0.92700729656E+02 0.  0.
         23    2    1    2    0    0 -0.37943066167E+01 -0.93630789651E+01  0.61344686879E+01  0.92184864765E+02  0.91424031716E+02 0.  0.
        -11    1    3    3    0    0  0.25680701377E+02  0.25760942950E+02  0.41934553394E+02  0.55512443409E+02  0.00000000000E+00 0.  1.
         11    1    3    3    0    0 -0.45268902619E+02 -0.22260104515E+02  0.62203740998E+01  0.50827933769E+02  0.00000000000E+00 0. -1.
        -13    1    4    4    0    0 -0.15941836934E+02 -0.46797296409E+02 -0.85628652925E+01  0.50174214274E+02  0.00000000000E+00 0. -1.
         13    1    4    4    0    0  0.12147530318E+02  0.37434217444E+02  0.14697333980E+02  0.42010650490E+02  0.00000000000E+00 0.  1.
         21    1    1    2  502  501  0.23382507859E+02  0.58622405303E+01  0.12963846186E+02  0.27370948937E+02  0.00000000000E+00 0. -1.
<scales pt_clust_5="13000.00000" pt_clust_6="13000.00000" pt_clust_7="13000.00000" pt_clust_8="13000.00000" pt_clust_9="24.10617"></scales>
<clustering>
<clus scale="   24.106">  1  9  2 -1</clus>
<clus scale="   91.424">  7  8 -1 -1</clus>
<clus scale="   91.851">  2  7  1 -1</clus>
<clus scale="   92.701">  5  6 -1 -1</clus>
<clus scale="   91.851">  2  5  1 -1</clus>
</clustering>
</event>
<event>
 9    1  0.1484717E-005  0.1326393E+03  0.7546771E-02  0.1223688E+00
          1   -1    0    0  502    0  0.00000000000E+00  0.00000000000E+00  0.13003859193E+03  0.13003859193E+03  0.00000000000E+00 0. -1.
         -1   -1    0    0    0  501 -0.00000000000E+00 -0.00000000000E+00 -0.18316303842E+03  0.18316303842E+03  0.00000000000E+00 0.  1.
         23    2    1    2    0    0 -0.42546911094E+02 -0.72163195544E+02 -0.24380008749E+02  0.12565275988E+03  0.90423806622E+02 0.  0.
         23    2    1    2    0    0  0.59778612087E+02  0.89997376990E+02  0.10060356844E+02  0.14149670842E+03  0.90813530848E+02 0.  0.
        -11    1    4    4    0    0 -0.62488590830E+01  0.59434007995E+02  0.28836287140E+02  0.66354962152E+02  0.00000000000E+00 0. -1.
         11    1    4    4    0    0  0.66027471170E+02  0.30563368995E+02 -0.18775930296E+02  0.75141746266E+02  0.00000000000E+00 0.  1.
        -11    1    3    3    0    0 -0.67066504278E+01 -0.71996571319E+02 -0.44149699854E+02  0.84721198285E+02  0.00000000000E+00 0. -1.
         11    1    3    3    0    0 -0.35840260666E+02 -0.16662422495E+00  0.19769691104E+02  0.40931561595E+02  0.00000000000E+00 0.  1.
         21    1    1    2  502  501 -0.17231700994E+02 -0.17834181446E+02 -0.38804794581E+02  0.46052162050E+02  0.00000000000E+00 0.  1.
<scales pt_clust_5="13000.00000" pt_clust_6="13000.00000" pt_clust_7="13000.00000" pt_clust_8="13000.00000" pt_clust_9="24.79898"></scales>
<clustering>
<clus scale="   24.799">  2  9  1 -1</clus>
<clus scale="   90.424">  7  8 -1 -1</clus>
<clus scale="   90.814">  5  6 -1 -1</clus>
<clus scale="  132.373">  2  7  1 -1</clus>
<clus scale="  132.639">  1  5  2 -1</clus>
</clustering>
</event>
<event>
 9    1  0.1484717E-005  0.1031349E+03  0.7546771E-02  0.1274616E+00
          1   -1    0    0  502    0  0.00000000000E+00  0.00000000000E+00  0.28041531266E+03  0.28041531266E+03  0.00000000000E+00 0. -1.
         -1   -1    0    0    0  501 -0.00000000000E+00 -0.00000000000E+00 -0.11087356221E+03  0.11087356221E+03  0.00000000000E+00 0.  1.
         23    2    1    2    0    0 -0.18427617064E+02 -0.35734569173E+02 -0.59673644496E+02  0.11748430581E+03  0.92871318282E+02 0.  0.
         23    2    1    2    0    0  0.11621348047E+00  0.45905133917E+02  0.23123375428E+03  0.25276124084E+03  0.91169627216E+02 0.  0.
        -11    1    4    4    0    0  0.18697585850E+02 -0.23110415002E+02  0.83799836390E+02  0.88916272848E+02  0.00000000000E+00 0.  1.
         11    1    4    4    0    0 -0.18581372370E+02  0.69015548919E+02  0.14743391789E+03  0.16384496799E+03  0.00000000000E+00 0. -1.
        -13    1    3    3    0    0 -0.26802838206E+02 -0.56306448632E+02 -0.69343317037E+02  0.93259336858E+02  0.00000000000E+00 0.  1.
         13    1    3    3    0    0  0.83752211423E+01  0.20571879460E+02  0.96696725408E+01  0.24224968952E+02  0.00000000000E+00 0. -1.
         21    1    1    2  502  501  0.18311403583E+02 -0.10170564744E+02 -0.20183593288E+01  0.21043328225E+02  0.00000000000E+00 0. -1.
<scales pt_clust_5="13000.00000" pt_clust_6="13000.00000" pt_clust_7="13000.00000" pt_clust_8="13000.00000" pt_clust_9="20.94631"></scales>
<clustering>
<clus scale="   20.946">  2  9  1 -1</clus>
<clus scale="   91.170">  5  6 -1 -1</clus>
<clus scale="   92.871">  7  8 -1 -1</clus>
<clus scale="  101.605">  1  5  2 -1</clus>
<clus scale="  101.605">  1  5  2 -1</clus>
</clustering>
</event>
<event>
 9    1  0.1484717E-005  0.9300044E+02  0.7546771E-02  0.1296669E+00
         -1   -1    0    0    0  501 -0.00000000000E+00  0.00000000000E+00  0.40884275032E+02  0.40884275032E+02  0.00000000000E+00 0.  1.
          1   -1    0    0  502    0  0.00000000000E+00 -0.00000000000E+00 -0.34725965706E+03  0.34725965706E+03  0.00000000000E+00 0. -1.
         23    2    1    2    0    0  0.39420938735E+01 -0.13885912412E+01 -0.50260441755E+02  0.10309328656E+03  0.89914656415E+02 0.  0.
         23    2    1    2    0    0  0.15252599717E+02  0.16938109498E+02 -0.23238858018E+03  0.25079916464E+03  0.91521732033E+02 0.  0.
        -11    1    4    4    0    0 -0.38015202406E+02  0.85638331785E-01 -0.82527066883E+02  0.90861871631E+02  0.00000000000E+00 0. -1.
         11    1    4    4    0    0  0.53267802123E+02  0.16852471166E+02 -0.14986151330E+03  0.15993729301E+03  0.00000000000E+00 0.  1.
        -13    1    3    3    0    0  0.29469081975E+02  0.13882338204E+02  0.11497691246E+02  0.34544797155E+02  0.00000000000E+00 0.  1.
         13    1    3    3    0    0 -0.25526988102E+02 -0.15270929446E+02 -0.61758133001E+02  0.68548489403E+02  0.00000000000E+00 0. -1.
         21    1    1    2  502  501 -0.19194693591E+02 -0.15549518257E+02 -0.23726360090E+02  0.34251480890E+02  0.00000000000E+00 0. -1.
<scales pt_clust_5="13000.00000" pt_clust_6="13000.00000" pt_clust_7="13000.00000" pt_clust_8="13000.00000" pt_clust_9="24.70271"></scales>
<clustering>
<clus scale="   24.703">  1  9  2 -1</clus>
<clus scale="   89.915">  7  8 -1 -1</clus>
<clus scale="   91.419">  1  7  2 -1</clus>
<clus scale="   91.522">  5  6 -1 -1</clus>
<clus scale="   93.000">  2  5  1 -1</clus>
</clustering>
</event>
<event>
 9    1  0.1484717E-005  0.1017828E+03  0.7546771E-02  0.1276894E+00
         -1   -1    0    0    0  501 -0.00000000000E+00  0.00000000000E+00  0.14043995236E+03  0.14043995236E+03  0.00000000000E+00 0.  1.
          1   -1    0    0  502    0  0.00000000000E+00 -0.00000000000E+00 -0.19495261295E+03  0.19495261295E+03  0.00000000000E+00 0. -1.
         23    2    1    2    0    0 -0.21601064563E+02 -0.43042715750E+02 -0.11967181038E+02  0.10396892299E+03  0.91362148382E+02 0.  0.
         23    2    1    2    0    0  0.45476748641E+02  0.11115291188E+02 -0.11138664435E+03  0.15187168004E+03  0.92012707239E+02 0.  0.
        -11    1    3    3    0    0 -0.38364415864E+02 -0.58172895456E+02  0.12364779930E+02  0.70772889958E+02  0.00000000000E+00 0.  1.
         11    1    3    3    0    0  0.16763351301E+02  0.15130179706E+02 -0.24331960968E+02  0.33196033035E+02  0.00000000000E+00 0. -1.
        -13    1    4    4    0    0  0.50021319715E+01  0.40339689589E+02 -0.87600673307E+02  0.96572200163E+02  0.00000000000E+00 0. -1.
         13    1    4    4    0    0  0.40474616669E+02 -0.29224398400E+02 -0.23785971046E+02  0.55299479880E+02  0.00000000000E+00 0.  1.
         21    1    1    2  502  501 -0.23875684078E+02  0.31927424562E+02  0.68841164801E+02  0.79551962267E+02  0.00000000000E+00 0.  1.
<scales pt_clust_5="13000.00000" pt_clust_6="13000.00000" pt_clust_7="13000.00000" pt_clust_8="13000.00000" pt_clust_9="39.86739"></scales>
<clustering>
<clus scale="   39.867">  1  9  2 -1</clus>
<clus scale="   91.362">  5  6 -1 -1</clus>
<clus scale="   92.013">  7  8 -1 -1</clus>
<clus scale="  101.195">  1  5  2 -1</clus>
<clus scale="  101.783">  2  5  1 -1</clus>
</clustering>
</event>
<event>
 9    1  0.1484717E-005  0.9298740E+02  0.7546771E-02  0.1296100E+00
         -1   -1    0    0    0  501 -0.00000000000E+00  0.00000000000E+00  0.11640371972E+03  0.11640371972E+03  0.00000000000E+00 0.  1.
          1   -1    0    0  502    0  0.00000000000E+00 -0.00000000000E+00 -0.14703173421E+03  0.14703173421E+03  0.00000000000E+00 0. -1.
         23    2    1    2    0    0  0.92240389101E+00 -0.21193145619E+02  0.55671351642E+02  0.10935830204E+03  0.91705717277E+02 0.  0.
         23    2    1    2    0    0  0.18177835875E+02  0.15179295747E+01 -0.86037189703E+02  0.12665449662E+03  0.91138497210E+02 0.  0.
        -11    1    4    4    0    0  0.36889479855E+02 -0.33892464367E+02 -0.62865520617E+02  0.80384118750E+02  0.00000000000E+00 0. -1.
         11    1    4    4    0    0 -0.18711643980E+02  0.35410393942E+02 -0.23171669086E+02  0.46270377865E+02  0.00000000000E+00 0.  1.
        -11    1    3    3    0    0 -0.85156468306E+01 -0.56697620345E+02  0.32079576833E+02  0.65698064230E+02  0.00000000000E+00 0. -1.
         11    1    3    3    0    0  0.94380507216E+01  0.35504474726E+02  0.23591774809E+02  0.43660237810E+02  0.00000000000E+00 0.  1.
         21    1    1    2  502  501 -0.19100239766E+02  0.19675216044E+02 -0.26217642952E+00  0.27422655268E+02  0.00000000000E+00 0.  1.
<scales pt_clust_5="13000.00000" pt_clust_6="13000.00000" pt_clust_7="13000.00000" pt_clust_8="13000.00000" pt_clust_9="27.42140"></scales>
<clustering>
<clus scale="   27.421">  1  9  2 -1</clus>
<clus scale="   91.138">  5  6 -1 -1</clus>
<clus scale="   91.706">  7  8 -1 -1</clus>
<clus scale="   92.428">  2  5  1 -1</clus>
<clus scale="   92.428">  2  5  1 -1</clus>
</clustering>
</event>
<event>
 9    1  0.1484717E-005  0.9837990E+02  0.7546771E-02  0.1284204E+00
          1   -1    0    0  502    0  0.00000000000E+00  0.00000000000E+00  0.24851503174E+03  0.24851503174E+03  0.00000000000E+00 0. -1.
         -1   -1    0    0    0  501 -0.00000000000E+00 -0.00000000000E+00 -0.88781671440E+02  0.88781671440E+02  0.00000000000E+00 0.  1.
         23    2    1    2    0    0  0.27288366918E+02  0.26858169824E+02  0.28097971220E+02  0.10348942188E+03  0.91948617173E+02 0.  0.
         23    2    1    2    0    0  0.30193371826E+02 -0.35097090992E+02  0.14190822449E+03  0.17483643037E+03  0.91029597982E+02 0.  0.
        -11    1    3    3    0    0 -0.11406460091E+02  0.38249466760E+02  0.44649314444E+02  0.59888983290E+02  0.00000000000E+00 0. -1.
         11    1    3    3    0    0  0.38694827009E+02 -0.11391296937E+02 -0.16551343224E+02  0.43600438595E+02  0.00000000000E+00 0.  1.
        -13    1    4    4    0    0  0.21031135145E+02  0.20357035762E+02  0.10143799950E+03  0.10557644289E+03  0.00000000000E+00 0.  1.
         13    1    4    4    0    0  0.91622366806E+01 -0.55454126755E+02  0.40470224987E+02  0.69259987479E+02  0.00000000000E+00 0. -1.
         21    1    1    2  502  501 -0.57481738744E+02  0.82389211687E+01 -0.10272835411E+02  0.58970850922E+02  0.00000000000E+00 0. -1.
<scales pt_clust_5="13000.00000" pt_clust_6="13000.00000" pt_clust_7="13000.00000" pt_clust_8="13000.00000" pt_clust_9="58.06918"></scales>
<clustering>
<clus scale="   58.069">  2  9  1 -1</clus>
<clus scale="   91.030">  7  8 -1 -1</clus>
<clus scale="   91.949">  5  6 -1 -1</clus>
<clus scale="   97.522">  1  7  2 -1</clus>
<clus scale="   97.522">  1  5  2 -1</clus>
</clustering>
</event>
<event>
 9    1  0.1484717E-005  0.1008959E+03  0.7546771E-02  0.1282860E+00
         -1   -1    0    0    0  501 -0.00000000000E+00  0.00000000000E+00  0.12353920887E+03  0.12353920887E+03  0.00000000000E+00 0.  1.
          1   -1    0    0  502    0  0.00000000000E+00 -0.00000000000E+00 -0.21472035281E+03  0.21472035281E+03  0.00000000000E+00 0. -1.
         23    2    1    2    0    0  0.71211857259E+01 -0.23883794360E+02  0.53606811506E+02  0.11555070799E+03  0.99283074886E+02 0.  0.
         23    2    1    2    0    0 -0.18660632375E+02  0.24636425624E+01 -0.16613098651E+03  0.19034364541E+03  0.90977524323E+02 0.  0.
        -13    1    4    4    0    0  0.22731158013E+02 -0.24445223276E+02 -0.27714718582E+02  0.43386404687E+02  0.00000000000E+00 0. -1.
         13    1    4    4    0    0 -0.41391790388E+02  0.26908865838E+02 -0.13841626793E+03  0.14695724072E+03  0.00000000000E+00 0.  1.
        -13    1    3    3    0    0 -0.32021384704E+02 -0.29680183817E+02  0.61281089624E+02  0.75243965441E+02  0.00000000000E+00 0.  1.
         13    1    3    3    0    0  0.39142570430E+02  0.57963894569E+01 -0.76742781180E+01  0.40306742553E+02  0.00000000000E+00 0. -1.
         21    1    1    2  502  501  0.11539446649E+02  0.21420151798E+02  0.21343031061E+02  0.32365208278E+02  0.00000000000E+00 0. -1.
<scales pt_clust_5="13000.00000" pt_clust_6="13000.00000" pt_clust_7="13000.00000" pt_clust_8="13000.00000" pt_clust_9="24.33067"></scales>
<clustering>
<clus scale="   24.331">  1  9  2 -1</clus>
<clus scale="   90.978">  5  6 -1 -1</clus>
<clus scale="   92.735">  2  5  1 -1</clus>
<clus scale="   99.283">  7  8 -1 -1</clus>
<clus scale="   92.735">  2  5  1 -1</clus>
</clustering>
</event>
<event>
 9    1  0.1484717E-005  0.1058428E+03  0.7546771E-02  0.1268827E+00
          1   -1    0    0  502    0  0.00000000000E+00  0.00000000000E+00  0.26737606539E+03  0.26737606539E+03  0.00000000000E+00 0. -1.
         -1   -1    0    0    0  501 -0.00000000000E+00 -0.00000000000E+00 -0.62023009366E+02  0.62023009366E+02  0.00000000000E+00 0.  1.
         23    2    1    2    0    0 -0.37241246388E+02 -0.75476360467E-01  0.60921446748E+02  0.11512165152E+03  0.90303133086E+02 0.  0.
         23    2    1    2    0    0  0.64374224030E+02  0.14795946237E+02  0.14479502177E+03  0.18340635624E+03  0.91155539788E+02 0.  0.
        -11    1    3    3    0    0 -0.22197135587E+02 -0.25004755051E+02 -0.12843786472E+02  0.35817781260E+02  0.00000000000E+00 0.  1.
         11    1    3    3    0    0 -0.15044110801E+02  0.24929278691E+02  0.73765233220E+02  0.79303870258E+02  0.00000000000E+00 0. -1.
        -13    1    4    4    0    0  0.17881445487E+02  0.25165072231E+02 -0.11127698453E+00  0.30871335178E+02  0.00000000000E+00 0.  1.
         13    1    4    4    0    0  0.46492778543E+02 -0.10369125994E+02  0.14490629876E+03  0.15253502106E+03  0.00000000000E+00 0. -1.
         21    1    1    2  502  501 -0.27132977643E+02 -0.14720469877E+02 -0.36341249394E+00  0.30871067001E+02  0.00000000000E+00 0.  1.
<scales pt_clust_5="13000.00000" pt_clust_6="13000.00000" pt_clust_7="13000.00000" pt_clust_8="13000.00000" pt_clust_9="30.86893"></scales>
<clustering>
<clus scale="   30.869">  2  9  1 -1</clus>
<clus scale="   90.303">  5  6 -1 -1</clus>
<clus scale="   91.156">  7  8 -1 -1</clus>
<clus scale="  105.110">  2  5  1 -1</clus>
<clus scale="  105.843">  1  5  2 -1</clus>
</clustering>
</event>
<event>
 9    1  0.1484717E-005  0.9903988E+02  0.7546771E-02  0.1286189E+00
         -1   -1    0    0    0  501 -0.00000000000E+00  0.00000000000E+00  0.30118017138E+03  0.30118017138E+03  0.00000000000E+00 0.  1.
          1   -1    0    0  502    0  0.00000000000E+00 -0.00000000000E+00 -0.17323316612E+03  0.17323316612E+03  0.00000000000E+00 0. -1.
         23    2    1    2    0    0 -0.22726619860E+02 -0.29438237804E+02  0.19680855765E+03  0.22237984989E+03  0.96623393532E+02 0.  0.
         23    2    1    2    0    0 -0.15416822724E+02 -0.20783255991E+02 -0.13281644752E+03  0.16221506377E+03  0.89464495912E+02 0.  0.
        -13    1    3    3    0    0  0.60158604200E+01 -0.52149056618E+02  0.16729487756E+03  0.17533764781E+03  0.00000000000E+00 0.  1.
         13    1    3    3    0    0 -0.28742480280E+02  0.22710818813E+02  0.29513680089E+02  0.47042202076E+02  0.00000000000E+00 0. -1.
        -13    1    4    4    0    0  0.18996707607E+02  0.22585560197E+02 -0.81682201814E+02  0.86850241926E+02  0.00000000000E+00 0.  1.
         13    1    4    4    0    0 -0.34413530331E+02 -0.43368816188E+02 -0.51134245708E+02  0.75364821844E+02  0.00000000000E+00 0. -1.
         21    1    1    2  502  501  0.38143442584E+02  0.50221493795E+02  0.63954895130E+02  0.89818423847E+02  0.00000000000E+00 0.  1.
<scales pt_clust_5="13000.00000" pt_clust_6="13000.00000" pt_clust_7="13000.00000" pt_clust_8="13000.00000" pt_clust_9="63.06442"></scales>
<clustering>
<clus scale="   63.064">  1  9  2 -1</clus>
<clus scale="   89.464">  7  8 -1 -1</clus>
<clus scale="   92.069">  2  7  1 -1</clus>
<clus scale="   96.623">  5  6 -1 -1</clus>
<clus scale="   92.069">  2  5  1 -1</clus>
</clustering>
</event>
<event>
 9    1  0.1484717E-005  0.9716128E+02  0.7546771E-02  0.1286456E+00
         -1   -1    0    0    0  501 -0.00000000000E+00  0.00000000000E+00  0.22035695351E+03  0.22035695351E+03  0.00000000000E+00 0.  1.
          1   -1    0    0  502    0  0.00000000000E+00 -0.00000000000E+00 -0.90529025451E+02  0.90529025451E+02  0.00000000000E+00 0. -1.
         23    2    1    2    0    0 -0.38918055490E+02  0.48580070719E+01  0.11123556271E+03  0.14906455982E+03  0.91151946267E+02 0.  0.
         23    2    1    2    0    0  0.22845054261E+02 -0.25384547124E+02 -0.34117531064E+02  0.10301654353E+03  0.91006211758E+02 0.  0.
        -11    1    4    4    0    0 -0.10095778610E+01  0.32054579669E+02 -0.23878536020E+02  0.39983744293E+02  0.00000000000E+00 0.  1.
         11    1    4    4    0    0  0.23854632122E+02 -0.57439126793E+02 -0.10238995044E+02  0.63032799239E+02  0.00000000000E+00 0. -1.
        -11    1    3    3    0    0 -0.33476331420E+02 -0.33574061460E+02  0.23057223215E+02  0.52721133435E+02  0.00000000000E+00 0. -1.
         11    1    3    3    0    0 -0.54417240702E+01  0.38432068532E+02  0.88178339490E+02  0.96343426386E+02  0.00000000000E+00 0.  1.
         21    1    1    2  502  501  0.16073001229E+02  0.20526540052E+02  0.52709896421E+02  0.58804875611E+02  0.00000000000E+00 0.  1.
<scales pt_clust_5="13000.00000" pt_clust_6="13000.00000" pt_clust_7="13000.00000" pt_clust_8="13000.00000" pt_clust_9="26.07068"></scales>
<clustering>
<clus scale="   26.071">  1  9  2 -1</clus>
<clus scale="   91.006">  5  6 -1 -1</clus>
<clus scale="   91.152">  7  8 -1 -1</clus>
<clus scale="   97.025">  2  5  1 -1</clus>
<clus scale="   97.025">  2  5  1 -1</clus>
</clustering>
</event>
<event>
 9    1  0.1484717E-005  0.1031928E+03  0.7546771E-02  0.1274206E+00
          1   -1    0    0  502    0  0.00000000000E+00  0.00000000000E+00  0.15470850660E+03  0.15470850660E+03  0.00000000000E+00 0. -1.
         -1   -1    0    0    0  501 -0.00000000000E+00 -0.00000000000E+00 -0.89829330278E+02  0.89829330278E+02  0.00000000000E+00 0.  1.
         23    2    1    2    0    0  0.26180726396E+02 -0.20470327116E+02  0.50175240245E+01  0.97892977602E+02  0.91942344921E+02 0.  0.
         23    2    1    2    0    0 -0.37798585380E+02  0.41709779042E+02  0.59706641992E+02  0.12243508865E+03  0.90868196366E+02 0.  0.
        -11    1    4    4    0    0  0.13696779405E+02  0.40152659285E+02 -0.14765889050E+01  0.42450184081E+02  0.00000000000E+00 0.  1.
         11    1    4    4    0    0 -0.51495364785E+02  0.15571197569E+01  0.61183230897E+02  0.79984904571E+02  0.00000000000E+00 0. -1.
        -11    1    3    3    0    0  0.51580591851E+02 -0.39651970136E+02 -0.27910350461E+01  0.65120089588E+02  0.00000000000E+00 0.  1.
         11    1    3    3    0    0 -0.25399865455E+02  0.19181643019E+02  0.78085590706E+01  0.32772888014E+02  0.00000000000E+00 0. -1.
         21    1    1    2  502  501  0.11617858983E+02 -0.21239451926E+02  0.15501030727E+00  0.24209770624E+02  0.00000000000E+00 0.  1.
<scales pt_clust_5="13000.00000" pt_clust_6="13000.00000" pt_clust_7="13000.00000" pt_clust_8="13000.00000" pt_clust_9="24.20927"></scales>
<clustering>
<clus scale="   24.209">  2  9  1 -1</clus>
<clus scale="   90.868">  5  6 -1 -1</clus>
<clus scale="   91.942">  7  8 -1 -1</clus>
<clus scale="  102.237">  1  5  2 -1</clus>
<clus scale="  102.237">  1  5  2 -1</clus>
</clustering>
</event>
<event>
 9    1  0.1484717E-005  0.1326067E+03  0.7546771E-02  0.1225774E+00
          4   -1    0    0  502    0  0.00000000000E+00  0.00000000000E+00  0.47906949914E+02  0.47906949914E+02  0.00000000000E+00 0. -1.
         -4   -1    0    0    0  501 -0.00000000000E+00 -0.00000000000E+00 -0.44268120429E+03  0.44268120429E+03  0.00000000000E+00 0.  1.
         23    2    1    2    0    0 -0.16200769447E+01 -0.92942651009E+02 -0.16600699826E+03  0.21391090350E+03  0.97768042517E+02 0.  0.
         23    2    1    2    0    0 -0.32114526252E+00  0.69290193650E+02 -0.15802930193E+03  0.20206448206E+03  0.10514542582E+03 0.  0.
        -13    1    3    3    0    0  0.33562969406E+02 -0.83383364558E+02 -0.14822009093E+03  0.17334489826E+03  0.00000000000E+00 0.  1.
         13    1    3    3    0    0 -0.35183046351E+02 -0.95592864514E+01 -0.17786907334E+02  0.40566005232E+02  0.00000000000E+00 0. -1.
        -13    1    4    4    0    0 -0.48298672834E+02  0.43987974666E+02 -0.11718901348E+03  0.13416768834E+03  0.00000000000E+00 0. -1.
         13    1    4    4    0    0  0.47977527572E+02  0.25302218984E+02 -0.40840288450E+02  0.67896793724E+02  0.00000000000E+00 0.  1.
         21    1    1    2  502  501  0.19412222072E+01  0.23652457359E+02 -0.70737954183E+02  0.74612768645E+02  0.00000000000E+00 0. -1.
<scales pt_clust_5="13000.00000" pt_clust_6="13000.00000" pt_clust_7="13000.00000" pt_clust_8="13000.00000" pt_clust_9="23.73198"></scales>
<clustering>
<clus scale="   23.732">  2  9  1 -1</clus>
<clus scale="   97.768">  5  6 -1 -1</clus>
<clus scale="  105.145">  7  8 -1 -1</clus>
<clus scale="  126.837">  2  5  1 -1</clus>
<clus scale="  132.607">  1  5  2 -1</clus>
</clustering>
</event>
<event>
 9    1  0.1484717E-005  0.1181999E+03  0.7546771E-02  0.1246431E+00
         -2   -1    0    0    0  501 -0.00000000000E+00  0.00000000000E+00  0.10106389481E+03  0.10106389481E+03  0.00000000000E+00 0.  1.
          2   -1    0    0  502    0  0.00000000000E+00 -0.00000000000E+00 -0.29675753189E+03  0.29675753189E+03  0.00000000000E+00 0. -1.
         23    2    1    2    0    0  0.50142743396E+02  0.74459569973E+02 -0.87242185795E+02  0.15497241223E+03  0.91360425202E+02 0.  0.
         23    2    1    2    0    0 -0.41187842180E+02 -0.50405860155E+02 -0.15373339390E+03  0.19079879317E+03  0.92374422836E+02 0.  0.
        -13    1    4    4    0    0 -0.61466175051E+02 -0.35997187389E+01 -0.92242550386E+02  0.11090417824E+03  0.00000000000E+00 0. -1.
         13    1    4    4    0    0  0.20278332870E+02 -0.46806141416E+02 -0.61490843511E+02  0.79894614925E+02  0.00000000000E+00 0.  1.
        -13    1    3    3    0    0  0.40376029123E+02  0.34013523754E+01  0.18915102888E+01  0.40563169709E+02  0.00000000000E+00 0.  1.
         13    1    3    3    0    0  0.97667142738E+01  0.71058217598E+02 -0.89133696084E+02  0.11440924252E+03  0.00000000000E+00 0. -1.
         21    1    1    2  502  501 -0.89549012161E+01 -0.24053709818E+02  0.45281942606E+02  0.52050221306E+02  0.00000000000E+00 0. -1.
<scales pt_clust_5="13000.00000" pt_clust_6="13000.00000" pt_clust_7="13000.00000" pt_clust_8="13000.00000" pt_clust_9="25.66654"></scales>
<clustering>
<clus scale="   25.667">  1  9  2 -1</clus>
<clus scale="   91.360">  7  8 -1 -1</clus>
<clus scale="   92.374">  5  6 -1 -1</clus>
<clus scale="  117.409">  1  7  2 -1</clus>
<clus scale="  118.200">  2  5  1 -1</clus>
</clustering>
</event>
<event>
 9    1  0.1484717E-005  0.1126105E+03  0.7546771E-02  0.1258252E+00
         -2   -1    0    0    0  501 -0.00000000000E+00  0.00000000000E+00  0.13415436043E+03  0.13415436043E+03  0.00000000000E+00 0.  1.
          2   -1    0    0  502    0  0.00000000000E+00 -0.00000000000E+00 -0.20486130965E+03  0.20486130965E+03  0.00000000000E+00 0. -1.
         23    2    1    2    0    0  0.52105080324E+02 -0.10550429104E+02  0.60870303966E+02  0.11645238715E+03  0.83843387442E+02 0.  0.
         23    2    1    2    0    0 -0.70095861893E+02  0.70583094133E+00 -0.15417951287E+03  0.19204367485E+03  0.90529126858E+02 0.  0.
        -11    1    3    3    0    0  0.58882822882E+01  0.25390147553E+02 -0.68338644450E+01  0.26945002585E+02  0.00000000000E+00 0. -1.
         11    1    3    3    0    0  0.46216798035E+02 -0.35940576656E+02  0.67704168411E+02  0.89507384563E+02  0.00000000000E+00 0.  1.
        -13    1    4    4    0    0 -0.28272757018E+02 -0.34552144087E+02 -0.23665598922E+02  0.50529793417E+02  0.00000000000E+00 0.  1.
         13    1    4    4    0    0 -0.41823104874E+02  0.35257975029E+02 -0.13051391395E+03  0.14151388143E+03  0.00000000000E+00 0. -1.
         21    1    1    2  502  501  0.17990781569E+02  0.98445981624E+01  0.22602259684E+02  0.30519608079E+02  0.00000000000E+00 0. -1.
<scales pt_clust_5="13000.00000" pt_clust_6="13000.00000" pt_clust_7="13000.00000" pt_clust_8="13000.00000" pt_clust_9="20.50815"></scales>
<clustering>
<clus scale="   20.508">  1  9  2 -1</clus>
<clus scale="   83.843">  5  6 -1 -1</clus>
<clus scale="   90.529">  7  8 -1 -1</clus>
<clus scale="  107.309">  1  5  2 -1</clus>
<clus scale="  112.610">  2  5  1 -1</clus>
</clustering>
</event>
<event>
 9    1  0.1484717E-005  0.1476120E+03  0.7546771E-02  0.1203803E+00
          2   -1    0    0  502    0  0.00000000000E+00  0.00000000000E+00  0.93155314712E+03  0.93155314712E+03  0.00000000000E+00 0. -1.
         -2   -1    0    0    0  501 -0.00000000000E+00 -0.00000000000E+00 -0.32064202770E+02  0.32064202770E+02  0.00000000000E+00 0.  1.
         23    2    1    2    0    0  0.23264241400E+02 -0.12339189804E+03  0.45402114759E+03  0.48004841320E+03  0.92436416648E+02 0.  0.
         23    2    1    2    0    0 -0.29541364629E+02  0.99434248934E+02  0.43438169071E+03  0.45643458625E+03  0.94261424858E+02 0.  0.
        -13    1    4    4    0    0 -0.63801507293E+02  0.60963286246E+02  0.25729061824E+03  0.27200297211E+03  0.00000000000E+00 0.  1.
         13    1    4    4    0    0  0.34260142664E+02  0.38470962689E+02  0.17709107247E+03  0.18443161414E+03  0.00000000000E+00 0. -1.
        -13    1    3    3    0    0  0.43155275403E+02 -0.11646196261E+03  0.43231492429E+03  0.44980213460E+03  0.00000000000E+00 0. -1.
         13    1    3    3    0    0 -0.19891034003E+02 -0.69299354295E+01  0.21706223305E+02  0.30246278597E+02  0.00000000000E+00 0.  1.
         21    1    1    2  502  501  0.62771232289E+01  0.23957649105E+02  0.11086106049E+02  0.27134350444E+02  0.00000000000E+00 0.  1.
<scales pt_clust_5="13000.00000" pt_clust_6="13000.00000" pt_clust_7="13000.00000" pt_clust_8="13000.00000" pt_clust_9="24.76633"></scales>
<clustering>
<clus scale="   24.766">  2  9  1 -1</clus>
<clus scale="   92.436">  7  8 -1 -1</clus>
<clus scale="   94.261">  5  6 -1 -1</clus>
<clus scale="  146.453">  2  7  1 -1</clus>
<clus scale="  147.612">  1  5  2 -1</clus>
</clustering>
</event>
<event>
 9    1  0.1484717E-005  0.1266959E+03  0.7546771E-02  0.1232545E+00
          1   -1    0    0  502    0  0.00000000000E+00  0.00000000000E+00  0.52819481676E+03  0.52819481676E+03  0.00000000000E+00 0. -1.
         -1   -1    0    0    0  501 -0.00000000000E+00 -0.00000000000E+00 -0.23202700758E+03  0.23202700758E+03  0.00000000000E+00 0.  1.
         23    2    1    2    0    0  0.28785704235E+02  0.14773327018E+03  0.31019797671E+03  0.35643849057E+03  0.90398434252E+02 0.  0.
         23    2    1    2    0    0 -0.79107538199E+01 -0.48389659514E+02  0.16696284227E+03  0.19626613897E+03  0.90772613899E+02 0.  0.
        -11    1    3    3    0    0  0.57164715229E+02  0.59123098831E+02  0.15577210338E+03  0.17614849893E+03  0.00000000000E+00 0. -1.
         11    1    3    3    0    0 -0.28379010993E+02  0.88610171349E+02  0.15442587333E+03  0.18028999164E+03  0.00000000000E+00 0.  1.
        -11    1    4    4    0    0  0.35877783641E+02  0.22472209767E+01  0.51619246585E+02  0.62903195301E+02  0.00000000000E+00 0. -1.
         11    1    4    4    0    0 -0.43788537461E+02 -0.50636880491E+02  0.11534359569E+03  0.13336294367E+03  0.00000000000E+00 0.  1.
         21    1    1    2  502  501 -0.20874950415E+02 -0.99343610666E+02 -0.18099300981E+03  0.20751719479E+03  0.00000000000E+00 0.  1.
<scales pt_clust_5="13000.00000" pt_clust_6="13000.00000" pt_clust_7="13000.00000" pt_clust_8="13000.00000" pt_clust_9="101.51313"></scales>
<clustering>
<clus scale="   90.398">  5  6 -1 -1</clus>
<clus scale="   90.773">  7  8 -1 -1</clus>
<clus scale="  101.513">  2  9  1 -1</clus>
<clus scale="  126.428">  2  5  1 -1</clus>
<clus scale="  126.696">  1  5  2 -1</clus>
</clustering>
</event>
<event>
 9    1  0.1484717E-005  0.9705242E+02  0.7546771E-02  0.1287629E+00
         -1   -1    0    0    0  501 -0.00000000000E+00  0.00000000000E+00  0.30897666492E+02  0.30897666492E+02  0.00000000000E+00 0.  1.
          1   -1    0    0  502    0  0.00000000000E+00 -0.00000000000E+00 -0.40088355897E+03  0.40088355897E+03  0.00000000000E+00 0. -1.
         23    2    1    2    0    0  0.21215537469E+02 -0.28685614159E+02 -0.11342088582E+03  0.15029699564E+03  0.91934357397E+02 0.  0.
         23    2    1    2    0    0 -0.26046841430E+02  0.76942569844E+01 -0.21545127657E+03  0.23506960522E+03  0.90004595367E+02 0.  0.
        -13    1    3    3    0    0  0.40492688240E+02 -0.49045814484E+02 -0.10160728060E+03  0.11987155288E+03  0.00000000000E+00 0. -1.
         13    1    3    3    0    0 -0.19277150772E+02  0.20360200324E+02 -0.11813605221E+02  0.30425442765E+02  0.00000000000E+00 0.  1.
        -13    1    4    4    0    0 -0.51599548900E+02  0.65927688705E+01 -0.69053228822E+02  0.86454187052E+02  0.00000000000E+00 0.  1.
         13    1    4    4    0    0  0.25552707470E+02  0.11014881140E+01 -0.14639804774E+03  0.14861541817E+03  0.00000000000E+00 0. -1.
         21    1    1    2  502  501  0.48313039608E+01  0.20991357175E+02 -0.41113730089E+02  0.46414624590E+02  0.00000000000E+00 0.  1.
<scales pt_clust_5="13000.00000" pt_clust_6="13000.00000" pt_clust_7="13000.00000" pt_clust_8="13000.00000" pt_clust_9="21.54016"></scales>
<clustering>
<clus scale="   21.540">  2  9  1 -1</clus>
<clus scale="   90.005">  7  8 -1 -1</clus>
<clus scale="   91.934">  5  6 -1 -1</clus>
<clus scale="   95.226">  2  7  1 -1</clus>
<clus scale="   21.540">  2  5  1 -1</clus>
</clustering>
</event>
<event>
 9    1  0.1484717E-005  0.1005661E+03  0.7546771E-02  0.1280116E+00
         -1   -1    0    0    0  501 -0.00000000000E+00  0.00000000000E+00  0.59772598083E+02  0.59772598083E+02  0.00000000000E+00 0.  1.
          1   -1    0    0  502    0  0.00000000000E+00 -0.00000000000E+00 -0.36851171064E+03  0.36851171064E+03  0.00000000000E+00 0. -1.
         23    2    1    2    0    0  0.65808761698E+01 -0.39516940541E+02 -0.31671498760E+02  0.10551262913E+03  0.92330572141E+02 0.  0.
         23    2    1    2    0    0 -0.33315044422E+02  0.15945315434E+02 -0.26722741177E+03  0.28579646035E+03  0.94366211519E+02 0.  0.
        -11    1    4    4    0    0  0.25092131649E+02 -0.19501487157E+02 -0.65269485625E+02  0.72594964190E+02  0.00000000000E+00 0.  1.
         11    1    4    4    0    0 -0.58407176071E+02  0.35446802592E+02 -0.20195792615E+03  0.21320149616E+03  0.00000000000E+00 0. -1.
        -11    1    3    3    0    0  0.44459726126E+02 -0.32844881828E+02  0.63960979823E+00  0.55279857183E+02  0.00000000000E+00 0.  1.
         11    1    3    3    0    0 -0.37878849956E+02 -0.66720587128E+01 -0.32311108559E+02  0.50232771949E+02  0.00000000000E+00 0. -1.
         21    1    1    2  502  501  0.26734168252E+02  0.23571625107E+02 -0.98402020292E+01  0.36975219246E+02  0.00000000000E+00 0.  1.
<scales pt_clust_5="13000.00000" pt_clust_6="13000.00000" pt_clust_7="13000.00000" pt_clust_8="13000.00000" pt_clust_9="35.64179"></scales>
<clustering>
<clus scale="   35.642">  1  9  2 -1</clus>
<clus scale="   92.331">  7  8 -1 -1</clus>
<clus scale="   94.366">  5  6 -1 -1</clus>
<clus scale="   98.658">  1  7  2 -1</clus>
<clus scale="  100.566">  2  5  1 -1</clus>
</clustering>
</event>
<event>
 9    1  0.1484717E-005  0.1244810E+03  0.7546771E-02  0.1247859E+00
         -2   -1    0    0    0  501 -0.00000000000E+00  0.00000000000E+00  0.11199941953E+03  0.11199941953E+03  0.00000000000E+00 0.  1.
          2   -1    0    0  502    0  0.00000000000E+00 -0.00000000000E+00 -0.52551553132E+03  0.52551553132E+03  0.00000000000E+00 0. -1.
         23    2    1    2    0    0 -0.18181294520E+02 -0.82152970828E+01 -0.22271540151E+03  0.25325837862E+03  0.11891007398E+03 0.  0.
         23    2    1    2    0    0  0.40041893657E+02 -0.37104630888E+02 -0.27027341774E+03  0.29019439654E+03  0.90470771912E+02 0.  0.
        -11    1    4    4    0    0 -0.21091875853E+02 -0.35377611637E+02 -0.14582812451E+03  0.15153311364E+03  0.00000000000E+00 0. -1.
         11    1    4    4    0    0  0.61133769510E+02 -0.17270192513E+01 -0.12444529323E+03  0.13866128290E+03  0.00000000000E+00 0.  1.
        -11    1    3    3    0    0  0.42191819836E+02  0.71541061122E+01 -0.34401838870E+02  0.54907352995E+02  0.00000000000E+00 0.  1.
         11    1    3    3    0    0 -0.60373114356E+02 -0.15369403195E+02 -0.18831356264E+03  0.19835102562E+03  0.00000000000E+00 0. -1.
         21    1    1    2  502  501 -0.21860599137E+02  0.45319927971E+02  0.79472707447E+02  0.94062175687E+02  0.00000000000E+00 0.  1.
<scales pt_clust_5="13000.00000" pt_clust_6="13000.00000" pt_clust_7="13000.00000" pt_clust_8="13000.00000" pt_clust_9="50.31681"></scales>
<clustering>
<clus scale="   50.317">  1  9  2 -1</clus>
<clus scale="   90.471">  5  6 -1 -1</clus>
<clus scale="   97.677">  2  5  1 -1</clus>
<clus scale="  118.910">  7  8 -1 -1</clus>
<clus scale="   97.677">  2  5  1 -1</clus>
</clustering>
</event>
<event>
 9    1  0.1484717E-005  0.1007867E+03  0.7546771E-02  0.1279092E+00
          1   -1    0    0  502    0  0.00000000000E+00  0.00000000000E+00  0.11818296079E+03  0.11818296079E+03  0.00000000000E+00 0. -1.
         -1   -1    0    0    0  501 -0.00000000000E+00 -0.00000000000E+00 -0.31435726025E+03  0.31435726025E+03  0.00000000000E+00 0.  1.
         23    2    1    2    0    0  0.35419877852E+02  0.29970859462E+02 -0.24147523971E+03  0.26224466574E+03  0.91154556394E+02 0.  0.
         23    2    1    2    0    0  0.11638835530E+02 -0.48255275204E+01  0.65006427435E+02  0.11341747122E+03  0.92081154212E+02 0.  0.
        -11    1    3    3    0    0  0.20529271196E+02  0.59941302506E+02 -0.11372391659E+03  0.13018271746E+03  0.00000000000E+00 0. -1.
         11    1    3    3    0    0  0.14890606656E+02 -0.29970443044E+02 -0.12775132313E+03  0.13206194828E+03  0.00000000000E+00 0.  1.
        -11    1    4    4    0    0  0.28974072737E+02 -0.42131470364E+02  0.42729030968E+02  0.66635784482E+02  0.00000000000E+00 0. -1.
         11    1    4    4    0    0 -0.17335237207E+02  0.37305942843E+02  0.22277396467E+02  0.46781686735E+02  0.00000000000E+00 0.  1.
         21    1    1    2  502  501 -0.47058713383E+02 -0.25145331942E+02 -0.19705487184E+02  0.56878084082E+02  0.00000000000E+00 0. -1.
<scales pt_clust_5="13000.00000" pt_clust_6="13000.00000" pt_clust_7="13000.00000" pt_clust_8="13000.00000" pt_clust_9="53.35551"></scales>
<clustering>
<clus scale="   53.356">  1  9  2 -1</clus>
<clus scale="   91.155">  5  6 -1 -1</clus>
<clus scale="   92.081">  7  8 -1 -1</clus>
<clus scale="   99.941">  2  5  1 -1</clus>
<clus scale="   53.356">  1  5  2 -1</clus>
</clustering>
</event>
<event>
 9    1  0.1484717E-005  0.1085632E+03  0.7546771E-02  0.1264565E+00
         -1   -1    0    0    0  501 -0.00000000000E+00  0.00000000000E+00  0.78197801852E+02  0.78197801852E+02  0.00000000000E+00 0.  1.
          1   -1    0    0  502    0  0.00000000000E+00 -0.00000000000E+00 -0.19085541274E+03  0.19085541274E+03  0.00000000000E+00 0. -1.
         23    2    1    2    0    0 -0.30576271991E+02  0.33502830432E+02 -0.35496423589E+02  0.10554659455E+03  0.88446251912E+02 0.  0.
         23    2    1    2    0    0  0.50086050780E+02 -0.47669309222E+02 -0.78879600688E+02  0.13933486930E+03  0.91712806482E+02 0.  0.
        -11    1    3    3    0    0  0.25786153156E+02 -0.84333898307E+00  0.73861343845E+01  0.26836391269E+02  0.00000000000E+00 0.  1.
         11    1    3    3    0    0 -0.56362425147E+02  0.34346169415E+02 -0.42882557974E+02  0.78710203279E+02  0.00000000000E+00 0. -1.
        -13    1    4    4    0    0  0.21178204788E+02  0.23785240551E+01  0.17081850795E+02  0.27312329840E+02  0.00000000000E+00 0.  1.
         13    1    4    4    0    0  0.28907845992E+02 -0.50047833277E+02 -0.95961451483E+02  0.11202253946E+03  0.00000000000E+00 0. -1.
         21    1    1    2  502  501 -0.19509778789E+02  0.14166478789E+02  0.17184133867E+01  0.24171750749E+02  0.00000000000E+00 0.  1.
<scales pt_clust_5="13000.00000" pt_clust_6="13000.00000" pt_clust_7="13000.00000" pt_clust_8="13000.00000" pt_clust_9="24.11059"></scales>
<clustering>
<clus scale="   24.111">  1  9  2 -1</clus>
<clus scale="   88.446">  5  6 -1 -1</clus>
<clus scale="   91.713">  7  8 -1 -1</clus>
<clus scale="  105.818">  1  5  2 -1</clus>
<clus scale="  108.563">  2  5  1 -1</clus>
</clustering>
</event>
<event>
 9    1  0.1484717E-005  0.9726026E+02  0.7546771E-02  0.1287833E+00
         -2   -1    0    0    0  501 -0.00000000000E+00  0.00000000000E+00  0.16462750916E+03  0.16462750916E+03  0.00000000000E+00 0.  1.
          2   -1    0    0  502    0  0.00000000000E+00 -0.00000000000E+00 -0.16315893011E+03  0.16315893011E+03  0.00000000000E+00 0. -1.
         23    2    1    2    0    0 -0.32560321161E+02 -0.54590135089E+01 -0.29861681581E+02  0.98086668465E+02  0.87403084391E+02 0.  0.
         23    2    1    2    0    0  0.36252058989E+02 -0.15015959645E+02 -0.73317251620E+02  0.12300415104E+03  0.90636146013E+02 0.  0.
        -11    1    3    3    0    0  0.65904786770E+01  0.35041605068E+02 -0.20055609407E+02  0.40909362787E+02  0.00000000000E+00 0.  1.
         11    1    3    3    0    0 -0.39150799838E+02 -0.40500618577E+02 -0.98060721739E+01  0.57177305678E+02  0.00000000000E+00 0. -1.
        -13    1    4    4    0    0  0.59994850074E+02 -0.31270009586E+02 -0.38523067855E+02  0.77853852132E+02  0.00000000000E+00 0.  1.
         13    1    4    4    0    0 -0.23742791085E+02  0.16254049941E+02 -0.34794183765E+02  0.45150298912E+02  0.00000000000E+00 0. -1.
         21    1    1    2  502  501 -0.36917378282E+01  0.20474973154E+02  0.10464751226E+03  0.10669561976E+03  0.00000000000E+00 0.  1.
<scales pt_clust_5="13000.00000" pt_clust_6="13000.00000" pt_clust_7="13000.00000" pt_clust_8="13000.00000" pt_clust_9="20.80513"></scales>
<clustering>
<clus scale="   20.805">  1  9  2 -1</clus>
<clus scale="   87.403">  5  6 -1 -1</clus>
<clus scale="   90.636">  7  8 -1 -1</clus>
<clus scale="   94.255">  1  5  2 -1</clus>
<clus scale="   97.260">  2  5  1 -1</clus>
</clustering>
</event>
<event>
 9    1  0.1484717E-005  0.1409451E+03  0.7546771E-02  0.1213227E+00
         -1   -1    0    0    0  501 -0.00000000000E+00  0.00000000000E+00  0.44610448520E+02  0.44610448520E+02  0.00000000000E+00 0.  1.
          1   -1    0    0  502    0  0.00000000000E+00 -0.00000000000E+00 -0.74485705662E+03  0.74485705662E+03  0.00000000000E+00 0. -1.
         23    2    1    2    0    0 -0.49971391403E+02  0.12433594855E+03 -0.30662342403E+03  0.34736955605E+03  0.93226156457E+02 0.  0.
         23    2    1    2    0    0  0.61089547506E+02 -0.69158000231E+02 -0.34473272155E+03  0.36754262264E+03  0.87932748977E+02 0.  0.
        -13    1    3    3    0    0 -0.14404525634E+02  0.82168367522E+02 -0.85443214896E+02  0.11941387671E+03  0.00000000000E+00 0.  1.
         13    1    3    3    0    0 -0.35566865769E+02  0.42167581027E+02 -0.22118020913E+03  0.22795567933E+03  0.00000000000E+00 0. -1.
        -13    1    4    4    0    0 -0.38575763706E+01 -0.61782754792E+02 -0.17787207539E+03  0.18833604246E+03  0.00000000000E+00 0.  1.
         13    1    4    4    0    0  0.64947123877E+02 -0.73752454385E+01 -0.16686064615E+03  0.17920658018E+03  0.00000000000E+00 0. -1.
         21    1    1    2  502  501 -0.11118156103E+02 -0.55177948319E+02 -0.48890462523E+02  0.74555326446E+02  0.00000000000E+00 0.  1.
<scales pt_clust_5="13000.00000" pt_clust_6="13000.00000" pt_clust_7="13000.00000" pt_clust_8="13000.00000" pt_clust_9="56.28694"></scales>
<clustering>
<clus scale="   56.287">  1  9  2 -1</clus>
<clus scale="   87.933">  7  8 -1 -1</clus>
<clus scale="   93.226">  5  6 -1 -1</clus>
<clus scale="  137.501">  2  7  1 -1</clus>
<clus scale="  137.501">  2  5  1 -1</clus>
</clustering>
</event>
<event>
 9    1  0.1484717E-005  0.1052853E+03  0.7546771E-02  0.1270029E+00
          2   -1    0    0  502    0  0.00000000000E+00  0.00000000000E+00  0.54895115996E+03  0.54895115996E+03  0.00000000000E+00 0. -1.
         -2   -1    0    0    0  501 -0.00000000000E+00 -0.00000000000E+00 -0.38946265235E+02  0.38946265235E+02  0.00000000000E+00 0.  1.
         23    2    1    2    0    0  0.18296714647E+02 -0.28443641421E+02  0.12137980160E+03  0.15538424267E+03  0.90925222745E+02 0.  0.
         23    2    1    2    0    0 -0.13901335158E+02  0.85237198349E+02  0.20153641990E+03  0.23694478242E+03  0.89818006363E+02 0.  0.
        -11    1    4    4    0    0 -0.49539542112E+02  0.42502228561E+02  0.13683703024E+03  0.15160797641E+03  0.00000000000E+00 0.  1.
         11    1    4    4    0    0  0.35638206954E+02  0.42734969788E+02  0.64699389663E+02  0.85336806012E+02  0.00000000000E+00 0. -1.
        -11    1    3    3    0    0 -0.23169524118E+02  0.22307225614E+00 -0.83021020398E+00  0.23185466527E+02  0.00000000000E+00 0.  1.
         11    1    3    3    0    0  0.41466238764E+02 -0.28666713677E+02  0.12221001180E+03  0.13219877615E+03  0.00000000000E+00 0. -1.
         21    1    1    2  502  501 -0.43953794889E+01 -0.56793556928E+02  0.18708867323E+03  0.19556840011E+03  0.00000000000E+00 0. -1.
<scales pt_clust_5="13000.00000" pt_clust_6="13000.00000" pt_clust_7="13000.00000" pt_clust_8="13000.00000" pt_clust_9="56.96339"></scales>
<clustering>
<clus scale="   56.963">  1  9  2 -1</clus>
<clus scale="   89.818">  5  6 -1 -1</clus>
<clus scale="   90.925">  7  8 -1 -1</clus>
<clus scale="  104.331">  1  5  2 -1</clus>
<clus scale="   56.963">  1  5  2 -1</clus>
</clustering>
</event>
<event>
 9    1  0.1484717E-005  0.1161694E+03  0.7546771E-02  0.1249965E+00
         -3   -1    0    0    0  501 -0.00000000000E+00  0.00000000000E+00  0.17758669513E+03  0.17758669513E+03  0.00000000000E+00 0.  1.
          3   -1    0    0  502    0  0.00000000000E+00 -0.00000000000E+00 -0.18558489191E+03  0.18558489191E+03  0.00000000000E+00 0. -1.
         23    2    1    2    0    0 -0.36635841169E+02 -0.46660508626E+02 -0.37179137376E+02  0.11616376279E+03  0.92694895252E+02 0.  0.
         23    2    1    2    0    0  0.51807664780E+02  0.59968253493E+02 -0.73998316642E+02  0.14187343677E+03  0.91499156492E+02 0.  0.
        -11    1    3    3    0    0  0.30854345712E+02 -0.21961522136E+02 -0.86970904426E+01  0.38857926939E+02  0.00000000000E+00 0.  1.
         11    1    3    3    0    0 -0.67490186881E+02 -0.24698986489E+02 -0.28482046934E+02  0.77305835849E+02  0.00000000000E+00 0. -1.
        -13    1    4    4    0    0  0.14958934685E+02  0.22041368090E+02  0.20481580800E+02  0.33601886647E+02  0.00000000000E+00 0.  1.
         13    1    4    4    0    0  0.36848730095E+02  0.37926885403E+02 -0.94479897442E+02  0.10827155013E+03  0.00000000000E+00 0. -1.
         21    1    1    2  502  501 -0.15171823611E+02 -0.13307744867E+02  0.10317925724E+03  0.10513438748E+03  0.00000000000E+00 0.  1.
<scales pt_clust_5="13000.00000" pt_clust_6="13000.00000" pt_clust_7="13000.00000" pt_clust_8="13000.00000" pt_clust_9="20.18119"></scales>
<clustering>
<clus scale="   20.181">  1  9  2 -1</clus>
<clus scale="   91.499">  7  8 -1 -1</clus>
<clus scale="   92.695">  5  6 -1 -1</clus>
<clus scale="  115.218">  2  7  1 -1</clus>
<clus scale="  115.218">  2  5  1 -1</clus>
</clustering>
</event>
<event>
 9    1  0.1484717E-005  0.1510625E+03  0.7546771E-02  0.1200723E+00
          1   -1    0    0  502    0  0.00000000000E+00  0.00000000000E+00  0.12856609993E+03  0.12856609993E+03  0.00000000000E+00 0. -1.
         -1   -1    0    0    0  501 -0.00000000000E+00 -0.00000000000E+00 -0.41952035633E+03  0.41952035633E+03  0.00000000000E+00 0.  1.
         23    2    1    2    0    0  0.24351155274E+02  0.11895903046E+03 -0.30476876364E+03  0.33896213806E+03  0.85247299410E+02 0.  0.
         23    2    1    2    0    0 -0.72192530418E+02 -0.89242258269E+02  0.28772929303E+02  0.15085221410E+03  0.93555154481E+02 0.  0.
        -13    1    4    4    0    0 -0.59027944012E+02 -0.71698040974E+02  0.61548615657E+02  0.11141426903E+03  0.00000000000E+00 0. -1.
         13    1    4    4    0    0 -0.13164586406E+02 -0.17544217295E+02 -0.32775686354E+02  0.39437945074E+02  0.00000000000E+00 0.  1.
        -13    1    3    3    0    0  0.53842899543E+02  0.99119724303E+02 -0.22943066438E+03  0.25566033587E+03  0.00000000000E+00 0.  1.
         13    1    3    3    0    0 -0.29491744269E+02  0.19839306160E+02 -0.75338099256E+02  0.83301802192E+02  0.00000000000E+00 0. -1.
         21    1    1    2  502  501  0.47841375144E+02 -0.29716772194E+02 -0.14958422070E+02  0.58272104098E+02  0.00000000000E+00 0.  1.
<scales pt_clust_5="13000.00000" pt_clust_6="13000.00000" pt_clust_7="13000.00000" pt_clust_8="13000.00000" pt_clust_9="56.31948"></scales>
<clustering>
<clus scale="   56.319">  1  9  2 -1</clus>
<clus scale="   85.247">  7  8 -1 -1</clus>
<clus scale="   93.555">  5  6 -1 -1</clus>
<clus scale="  146.063">  2  7  1 -1</clus>
<clus scale="   56.319">  1  5  2 -1</clus>
</clustering>
</event>
<event>
 9    1  0.1484717E-005  0.9249434E+02  0.7546771E-02  0.1298123E+00
          1   -1    0    0  502    0  0.00000000000E+00  0.00000000000E+00  0.28608762681E+03  0.28608762681E+03  0.00000000000E+00 0. -1.
         -1   -1    0    0    0  501 -0.00000000000E+00 -0.00000000000E+00 -0.68239440556E+02  0.68239440556E+02  0.00000000000E+00 0.  1.
         23    2    1    2    0    0 -0.45473830299E+02 -0.20688557818E+02  0.23348918206E+02  0.10505681099E+03  0.89419661640E+02 0.  0.
         23    2    1    2    0    0 -0.63752221164E+01  0.10133315865E+02  0.16407599554E+03  0.18823491514E+03  0.91477447597E+02 0.  0.
        -13    1    4    4    0    0 -0.35720543151E+02  0.36812074976E+02  0.76597617391E+02  0.92186121824E+02  0.00000000000E+00 0. -1.
         13    1    4    4    0    0  0.29345321034E+02 -0.26678759111E+02  0.87478378151E+02  0.96048793320E+02  0.00000000000E+00 0.  1.
        -13    1    3    3    0    0 -0.40651349803E+02  0.18864013486E+02  0.41675958129E+02  0.61198600732E+02  0.00000000000E+00 0.  1.
         13    1    3    3    0    0 -0.48224804968E+01 -0.39552571304E+02 -0.18327039923E+02  0.43858210260E+02  0.00000000000E+00 0. -1.
         21    1    1    2  502  501  0.51849052416E+02  0.10555241953E+02  0.30423272505E+02  0.61035341230E+02  0.00000000000E+00 0.  1.
<scales pt_clust_5="13000.00000" pt_clust_6="13000.00000" pt_clust_7="13000.00000" pt_clust_8="13000.00000" pt_clust_9="52.91254"></scales>
<clustering>
<clus scale="   52.913">  2  9  1 -1</clus>
<clus scale="   89.420">  7  8 -1 -1</clus>
<clus scale="   90.460">  2  7  1 -1</clus>
<clus scale="   91.477">  5  6 -1 -1</clus>
<clus scale="   92.494">  1  5  2 -1</clus>
</clustering>
</event>
<event>
 9    1  0.1484717E-005  0.2838692E+03  0.7546771E-02  0.1093667E+00
         -2   -1    0    0    0  501 -0.00000000000E+00  0.00000000000E+00  0.64980472632E+02  0.64980472632E+02  0.00000000000E+00 0.  1.
          2   -1    0    0  502    0  0.00000000000E+00 -0.00000000000E+00 -0.15248933338E+04  0.15248933338E+04  0.00000000000E+00 0. -1.
         23    2    1    2    0    0  0.12606753309E+03  0.23328762894E+03 -0.56865998342E+03  0.63415020962E+03  0.91957440708E+02 0.  0.
         23    2    1    2    0    0 -0.16825088602E+03 -0.21339234892E+03 -0.83244090792E+03  0.88066291984E+03  0.93619752119E+02 0.  0.
        -13    1    4    4    0    0 -0.11095181778E+03 -0.82323037486E+02 -0.50035126990E+03  0.51907492876E+03  0.00000000000E+00 0. -1.
         13    1    4    4    0    0 -0.57299068233E+02 -0.13106931144E+03 -0.33208963802E+03  0.36158799109E+03  0.00000000000E+00 0.  1.
        -13    1    3    3    0    0  0.10211912557E+03  0.11613539945E+03 -0.25203048049E+03  0.29569428454E+03  0.00000000000E+00 0. -1.
         13    1    3    3    0    0  0.23948407520E+02  0.11715222950E+03 -0.31662950293E+03  0.33845592509E+03  0.00000000000E+00 0.  1.
         21    1    1    2  502  501  0.42183352926E+02 -0.19895280020E+02 -0.58811969809E+02  0.75060676948E+02  0.00000000000E+00 0.  1.
<scales pt_clust_5="13000.00000" pt_clust_6="13000.00000" pt_clust_7="13000.00000" pt_clust_8="13000.00000" pt_clust_9="46.63966"></scales>
<clustering>
<clus scale="   46.640">  1  9  2 -1</clus>
<clus scale="   91.957">  7  8 -1 -1</clus>
<clus scale="   93.620">  5  6 -1 -1</clus>
<clus scale="  283.325">  1  7  2 -1</clus>
<clus scale="  283.869">  2  5  1 -1</clus>
</clustering>
</event>
<event>
 9    1  0.1484717E-005  0.1149643E+03  0.7546771E-02  0.1251747E+00
          1   -1    0    0  502    0  0.00000000000E+00  0.00000000000E+00  0.11202356210E+03  0.11202356210E+03  0.00000000000E+00 0. -1.
         -1   -1    0    0    0  501 -0.00000000000E+00 -0.00000000000E+00 -0.21358198121E+03  0.21358198121E+03  0.00000000000E+00 0.  1.
         23    2    1    2    0    0  0.21466094825E+02  0.33804653290E+02 -0.99261923107E+02  0.14113569041E+03  0.91993510186E+02 0.  0.
         23    2    1    2    0    0 -0.76761813592E+02 -0.34144491253E+02  0.16889602614E+02  0.12593919099E+03  0.92288671254E+02 0.  0.
        -11    1    4    4    0    0 -0.26437699720E+02  0.26126853626E+02  0.28138408226E+02  0.46619035429E+02  0.00000000000E+00 0.  1.
         11    1    4    4    0    0 -0.50324113872E+02 -0.60271344878E+02 -0.11248805612E+02  0.79320155560E+02  0.00000000000E+00 0. -1.
        -11    1    3    3    0    0 -0.29743629170E+01  0.33804789323E+02  0.47721661234E+01  0.34269289247E+02  0.00000000000E+00 0. -1.
         11    1    3    3    0    0  0.24440457742E+02 -0.13603323525E-03 -0.10403408923E+03  0.10686640116E+03  0.00000000000E+00 0.  1.
         21    1    1    2  502  501  0.55295718767E+02  0.33983796276E+00 -0.19186098619E+02  0.58530661913E+02  0.00000000000E+00 0. -1.
<scales pt_clust_5="13000.00000" pt_clust_6="13000.00000" pt_clust_7="13000.00000" pt_clust_8="13000.00000" pt_clust_9="55.29676"></scales>
<clustering>
<clus scale="   55.297">  2  9  1 -1</clus>
<clus scale="   91.994">  7  8 -1 -1</clus>
<clus scale="   92.289">  5  6 -1 -1</clus>
<clus scale="  114.727">  2  7  1 -1</clus>
<clus scale="  114.964">  1  5  2 -1</clus>
</clustering>
</event>
<event>
 9    1  0.1484717E-005  0.1103370E+03  0.7546771E-02  0.1261263E+00
         -1   -1    0    0    0  501 -0.00000000000E+00  0.00000000000E+00  0.13972905585E+03  0.13972905585E+03  0.00000000000E+00 0.  1.
          1   -1    0    0  502    0  0.00000000000E+00 -0.00000000000E+00 -0.14908904211E+03  0.14908904211E+03  0.00000000000E+00 0. -1.
         23    2    1    2    0    0  0.13771675733E+02 -0.73132046300E+02  0.29425424608E+00  0.11877279688E+03  0.92568544578E+02 0.  0.
         23    2    1    2    0    0 -0.38816885212E+01  0.43776332923E+02 -0.52024314354E+02  0.11755917993E+03  0.95823779261E+02 0.  0.
        -11    1    3    3    0    0 -0.30436507465E+02 -0.33267649796E+02 -0.27776182766E+02  0.52958793780E+02  0.00000000000E+00 0.  1.
         11    1    3    3    0    0  0.44208183198E+02 -0.39864396504E+02  0.28070437012E+02  0.65814003102E+02  0.00000000000E+00 0. -1.
        -13    1    4    4    0    0 -0.23735763154E+02 -0.57797822720E+01  0.17392465729E+02  0.29988167662E+02  0.00000000000E+00 0.  1.
         13    1    4    4    0    0  0.19854074632E+02  0.49556115195E+02 -0.69416780082E+02  0.87571012268E+02  0.00000000000E+00 0. -1.
         21    1    1    2  502  501 -0.98899872117E+01  0.29355713377E+02  0.42370073853E+02  0.52486121148E+02  0.00000000000E+00 0.  1.
<scales pt_clust_5="13000.00000" pt_clust_6="13000.00000" pt_clust_7="13000.00000" pt_clust_8="13000.00000" pt_clust_9="30.97692"></scales>
<clustering>
<clus scale="   30.977">  1  9  2 -1</clus>
<clus scale="   92.569">  5  6 -1 -1</clus>
<clus scale="   95.824">  7  8 -1 -1</clus>
<clus scale="  107.522">  1  5  2 -1</clus>
<clus scale="  110.337">  2  5  1 -1</clus>
</clustering>
</event>
<event>
 9    1  0.1484717E-005  0.9916130E+02  0.7546771E-02  0.1282545E+00
          2   -1    0    0  502    0  0.00000000000E+00  0.00000000000E+00  0.55417473981E+03  0.55417473981E+03  0.00000000000E+00 0. -1.
         -2   -1    0    0    0  501 -0.00000000000E+00 -0.00000000000E+00 -0.50853005282E+02  0.50853005282E+02  0.00000000000E+00 0.  1.
         23    2    1    2    0    0 -0.13500041481E+02 -0.72112009474E+01  0.80894296829E+02  0.12395474928E+03  0.92664125047E+02 0.  0.
         23    2    1    2    0    0 -0.27551608544E+01  0.42987259376E+02  0.42937450494E+03  0.44116786203E+03  0.91712167217E+02 0.  0.
        -11    1    3    3    0    0  0.28702737089E+01 -0.30180669315E+02  0.89475585908E+02  0.94472174449E+02  0.00000000000E+00 0. -1.
         11    1    3    3    0    0 -0.16370315190E+02  0.22969468368E+02 -0.85812890786E+01  0.29482574832E+02  0.00000000000E+00 0.  1.
        -13    1    4    4    0    0 -0.36762537208E+02  0.54099237219E+02  0.28844906608E+03  0.29577199890E+03  0.00000000000E+00 0.  1.
         13    1    4    4    0    0  0.34007376353E+02 -0.11111977843E+02  0.14092543886E+03  0.14539586313E+03  0.00000000000E+00 0. -1.
         21    1    1    2  502  501  0.16255202335E+02 -0.35776058428E+02 -0.69470672332E+01  0.39905133790E+02  0.00000000000E+00 0. -1.
<scales pt_clust_5="13000.00000" pt_clust_6="13000.00000" pt_clust_7="13000.00000" pt_clust_8="13000.00000" pt_clust_9="39.29578"></scales>
<clustering>
<clus scale="   39.296">  2  9  1 -1</clus>
<clus scale="   91.712">  7  8 -1 -1</clus>
<clus scale="   92.664">  5  6 -1 -1</clus>
<clus scale="   98.272">  1  7  2 -1</clus>
<clus scale="   98.272">  1  5  2 -1</clus>
</clustering>
</event>
<event>
 9    1  0.1484717E-005  0.9775631E+02  0.7546771E-02  0.1294376E+00
          2   -1    0    0  502    0  0.00000000000E+00  0.00000000000E+00  0.15260826366E+03  0.15260826366E+03  0.00000000000E+00 0. -1.
         -2   -1    0    0    0  501 -0.00000000000E+00 -0.00000000000E+00 -0.19111245747E+03  0.19111245747E+03  0.00000000000E+00 0.  1.
         23    2    1    2    0    0 -0.15468379734E+02 -0.62593550702E+02 -0.10274594279E+03  0.15379318391E+03  0.94543065826E+02 0.  0.
         23    2    1    2    0    0  0.23797905551E+02  0.32732744875E+01  0.92631427498E+02  0.12363839771E+03  0.78286763847E+02 0.  0.
        -11    1    4    4    0    0 -0.98770708217E+01 -0.28372956743E+02  0.15708273939E+02  0.33901785683E+02  0.00000000000E+00 0.  1.
         11    1    4    4    0    0  0.33674976372E+02  0.31646231230E+02  0.76923153559E+02  0.89736612028E+02  0.00000000000E+00 0. -1.
        -13    1    3    3    0    0  0.14824163409E+02 -0.47191315893E+02 -0.10857662059E+03  0.11931327946E+03  0.00000000000E+00 0.  1.
         13    1    3    3    0    0 -0.30292543143E+02 -0.15402234809E+02  0.58306778014E+01  0.34479904449E+02  0.00000000000E+00 0. -1.
         21    1    1    2  502  501 -0.83295258169E+01  0.59320276215E+02 -0.28389678519E+02  0.66289139510E+02  0.00000000000E+00 0. -1.
<scales pt_clust_5="13000.00000" pt_clust_6="13000.00000" pt_clust_7="13000.00000" pt_clust_8="13000.00000" pt_clust_9="59.90222"></scales>
<clustering>
<clus scale="   59.902">  2  9  1 -1</clus>
<clus scale="   78.287">  5  6 -1 -1</clus>
<clus scale="   82.138">  1  5  2 -1</clus>
<clus scale="   94.543">  7  8 -1 -1</clus>
<clus scale="   82.138">  1  5  2 -1</clus>
</clustering>
</event>
<event>
 9    1  0.1484717E-005  0.1188399E+03  0.7546771E-02  0.1256017E+00
         -1   -1    0    0    0  501 -0.00000000000E+00  0.00000000000E+00  0.74391856415E+02  0.74391856415E+02  0.00000000000E+00 0.  1.
          1   -1    0    0  502    0  0.00000000000E+00 -0.00000000000E+00 -0.34677274978E+03  0.34677274978E+03  0.00000000000E+00 0. -1.
         23    2    1    2    0    0  0.42585967803E+02  0.55550127281E+02 -0.24418735850E+02  0.94986531273E+02  0.59386742360E+02 0.  0.
         23    2    1    2    0    0 -0.11393367896E+02 -0.78257369879E+02 -0.25891757921E+03  0.28607048936E+03  0.92433691305E+02 0.  0.
        -13    1    4    4    0    0  0.34510975789E+02 -0.63403449323E+02 -0.17442872160E+03  0.18877601477E+03  0.00000000000E+00 0.  1.
         13    1    4    4    0    0 -0.45904343684E+02 -0.14853920557E+02 -0.84488857614E+02  0.97294474591E+02  0.00000000000E+00 0. -1.
        -13    1    3    3    0    0  0.18026866711E+01  0.39506514550E+02 -0.31542290075E+02  0.50585871885E+02  0.00000000000E+00 0. -1.
         13    1    3    3    0    0  0.40783281132E+02  0.16043612731E+02  0.71235542253E+01  0.44400659389E+02  0.00000000000E+00 0.  1.
         21    1    1    2  502  501 -0.31192599907E+02  0.22707242598E+02  0.10955421689E+02  0.40107585564E+02  0.00000000000E+00 0.  1.
<scales pt_clust_5="13000.00000" pt_clust_6="13000.00000" pt_clust_7="13000.00000" pt_clust_8="13000.00000" pt_clust_9="38.58234"></scales>
<clustering>
<clus scale="   38.582">  1  9  2 -1</clus>
<clus scale="   59.387">  7  8 -1 -1</clus>
<clus scale="   92.434">  5  6 -1 -1</clus>
<clus scale="   95.424">  1  7  2 -1</clus>
<clus scale="  118.840">  2  5  1 -1</clus>
</clustering>
</event>
<event>
 9    1  0.1484717E-005  0.1126959E+03  0.7546771E-02  0.1256859E+00
          4   -1    0    0  502    0  0.00000000000E+00  0.00000000000E+00  0.36475657139E+03  0.36475657139E+03  0.00000000000E+00 0. -1.
         -4   -1    0    0    0  501 -0.00000000000E+00 -0.00000000000E+00 -0.20486922968E+03  0.20486922968E+03  0.00000000000E+00 0.  1.
         23    2    1    2    0    0 -0.63820318039E+02 -0.53518611071E+01  0.59995358414E+02  0.12402726414E+03  0.87644987347E+02 0.  0.
         23    2    1    2    0    0  0.65177107250E+02 -0.22836695043E+02  0.25949984722E+03  0.28351489864E+03  0.90944802455E+02 0.  0.
        -11    1    4    4    0    0  0.10339913123E+02  0.17289472408E+02  0.59324511041E+01  0.21000800833E+02  0.00000000000E+00 0.  1.
         11    1    4    4    0    0  0.54837194127E+02 -0.40126167451E+02  0.25356739612E+03  0.26251409781E+03  0.00000000000E+00 0. -1.
        -11    1    3    3    0    0 -0.32212279349E+02 -0.24267931757E+02  0.74276694826E+02  0.84519766013E+02  0.00000000000E+00 0. -1.
         11    1    3    3    0    0 -0.31608038690E+02  0.18916070650E+02 -0.14281336411E+02  0.39507498128E+02  0.00000000000E+00 0.  1.
         21    1    1    2  502  501 -0.13567892112E+01  0.28188556150E+02 -0.15960786392E+03  0.16208363829E+03  0.00000000000E+00 0.  1.
<scales pt_clust_5="13000.00000" pt_clust_6="13000.00000" pt_clust_7="13000.00000" pt_clust_8="13000.00000" pt_clust_9="28.22119"></scales>
<clustering>
<clus scale="   28.221">  2  9  1 -1</clus>
<clus scale="   87.645">  7  8 -1 -1</clus>
<clus scale="   90.945">  5  6 -1 -1</clus>
<clus scale="  110.050">  2  7  1 -1</clus>
<clus scale="  112.696">  1  5  2 -1</clus>
</clustering>
</event>
<event>
 9    1  0.1484717E-005  0.9122377E+02  0.7546771E-02  0.1300521E+00
          1   -1    0    0  502    0  0.00000000000E+00  0.00000000000E+00  0.58454493958E+02  0.58454493958E+02  0.00000000000E+00 0. -1.
         -1   -1    0    0    0  501 -0.00000000000E+00 -0.00000000000E+00 -0.60449852262E+03  0.60449852262E+03  0.00000000000E+00 0.  1.
         23    2    1    2    0    0  0.60358932823E+02  0.15212494333E+02 -0.38882476279E+03  0.40416828216E+03  0.91064171832E+02 0.  0.
         23    2    1    2    0    0  0.91160627783E+01 -0.39196052855E+01 -0.45931356334E+01  0.90710227163E+02  0.90048778508E+02 0.  0.
        -11    1    3    3    0    0  0.25469386209E+02 -0.36422783293E+02 -0.11378482353E+03  0.12215684526E+03  0.00000000000E+00 0. -1.
         11    1    3    3    0    0  0.34889546614E+02  0.51635277627E+02 -0.27503993925E+03  0.28201143690E+03  0.00000000000E+00 0.  1.
        -13    1    4    4    0    0  0.15975072618E+02 -0.39423455575E+02  0.19974626844E+02  0.46993590118E+02  0.00000000000E+00 0. -1.
         13    1    4    4    0    0 -0.68590098397E+01  0.35503850289E+02 -0.24567762478E+02  0.43716637045E+02  0.00000000000E+00 0.  1.
         21    1    1    2  502  501 -0.69474995601E+02 -0.11292889048E+02 -0.15262613025E+03  0.16807450726E+03  0.00000000000E+00 0.  1.
<scales pt_clust_5="13000.00000" pt_clust_6="13000.00000" pt_clust_7="13000.00000" pt_clust_8="13000.00000" pt_clust_9="70.38682"></scales>
<clustering>
<clus scale="   70.387">  2  9  1 -1</clus>
<clus scale="   90.049">  7  8 -1 -1</clus>
<clus scale="   90.210">  1  7  2 -1</clus>
<clus scale="   91.064">  5  6 -1 -1</clus>
<clus scale="   90.210">  1  5  2 -1</clus>
</clustering>
</event>
<event>
 9    1  0.1484717E-005  0.1020072E+03  0.7546771E-02  0.1276512E+00
          2   -1    0    0  502    0  0.00000000000E+00  0.00000000000E+00  0.56175589730E+03  0.56175589730E+03  0.00000000000E+00 0. -1.
         -2   -1    0    0    0  501 -0.00000000000E+00 -0.00000000000E+00 -0.59964737100E+02  0.59964737100E+02  0.00000000000E+00 0.  1.
         23    2    1    2    0    0 -0.57378905129E+02 -0.35565500542E+02  0.84074137834E+02  0.14194343443E+03  0.92315948472E+02 0.  0.
         23    2    1    2    0    0  0.33537906793E+02  0.19377140806E+02  0.43498088076E+03  0.44618409057E+03  0.91496509627E+02 0.  0.
        -11    1    3    3    0    0  0.22034622106E+02 -0.11620466998E+02  0.15819164917E+01  0.24961215603E+02  0.00000000000E+00 0. -1.
         11    1    3    3    0    0 -0.79413527235E+02 -0.23945033543E+02  0.82492221342E+02  0.11698221883E+03  0.00000000000E+00 0.  1.
        -13    1    4    4    0    0  0.60023591181E+02  0.18851931899E+02  0.37977826521E+03  0.38495422788E+03  0.00000000000E+00 0. -1.
         13    1    4    4    0    0 -0.26485684389E+02  0.52520890711E+00  0.55202615550E+02  0.61229862694E+02  0.00000000000E+00 0.  1.
         21    1    1    2  502  501  0.23840998337E+02  0.16188359736E+02 -0.17263858393E+02  0.33593109401E+02  0.00000000000E+00 0. -1.
<scales pt_clust_5="13000.00000" pt_clust_6="13000.00000" pt_clust_7="13000.00000" pt_clust_8="13000.00000" pt_clust_9="28.81764"></scales>
<clustering>
<clus scale="   28.818">  2  9  1 -1</clus>
<clus scale="   91.497">  7  8 -1 -1</clus>
<clus scale="   92.316">  5  6 -1 -1</clus>
<clus scale="  101.266">  1  7  2 -1</clus>
<clus scale="  101.266">  1  5  2 -1</clus>
</clustering>
</event>
<event>
 9    1  0.1484717E-005  0.9556102E+02  0.7546771E-02  0.1292070E+00
          4   -1    0    0  502    0  0.00000000000E+00  0.00000000000E+00  0.25075776306E+03  0.25075776306E+03  0.00000000000E+00 0. -1.
         -4   -1    0    0    0  501 -0.00000000000E+00 -0.00000000000E+00 -0.11218135762E+03  0.11218135762E+03  0.00000000000E+00 0.  1.
         23    2    1    2    0    0  0.45069906009E+01  0.45945440407E+02 -0.22261137694E+02  0.10737174144E+03  0.94349542399E+02 0.  0.
         23    2    1    2    0    0 -0.16877354489E+02  0.10987399592E+02  0.17277801251E+03  0.19609512535E+03  0.90528937554E+02 0.  0.
        -11    1    4    4    0    0  0.21190216480E+02  0.35748041251E+02  0.11704603803E+03  0.12420435881E+03  0.00000000000E+00 0.  1.
         11    1    4    4    0    0 -0.38067570969E+02 -0.24760641658E+02  0.55731974478E+02  0.71890766542E+02  0.00000000000E+00 0. -1.
        -11    1    3    3    0    0  0.47727033078E+02  0.31630594164E+02 -0.23336537957E+02  0.61830075023E+02  0.00000000000E+00 0.  1.
         11    1    3    3    0    0 -0.43220042477E+02  0.14314846243E+02  0.10754002636E+01  0.45541666421E+02  0.00000000000E+00 0. -1.
         21    1    1    2  502  501  0.12370363888E+02 -0.56932839999E+02 -0.11940469372E+02  0.59472253883E+02  0.00000000000E+00 0. -1.
<scales pt_clust_5="13000.00000" pt_clust_6="13000.00000" pt_clust_7="13000.00000" pt_clust_8="13000.00000" pt_clust_9="58.26126"></scales>
<clustering>
<clus scale="   58.261">  2  9  1 -1</clus>
<clus scale="   90.529">  5  6 -1 -1</clus>
<clus scale="   91.791">  1  5  2 -1</clus>
<clus scale="   94.350">  7  8 -1 -1</clus>
<clus scale="   91.791">  1  5  2 -1</clus>
</clustering>
</event>
<event>
 9    1  0.1484717E-005  0.1019954E+03  0.7546771E-02  0.1276785E+00
         -1   -1    0    0    0  501 -0.00000000000E+00  0.00000000000E+00  0.29831808405E+02  0.29831808405E+02  0.00000000000E+00 0.  1.
          1   -1    0    0  502    0  0.00000000000E+00 -0.00000000000E+00 -0.65332288718E+03  0.65332288718E+03  0.00000000000E+00 0. -1.
         23    2    1    2    0    0  0.46644594345E+02  0.20072214696E+01 -0.16947090129E+03  0.19735985044E+03  0.89726122527E+02 0.  0.
         23    2    1    2    0    0 -0.27069583186E+02 -0.45704097669E+02 -0.39973432185E+03  0.41341009417E+03  0.91097480841E+02 0.  0.
        -11    1    4    4    0    0 -0.43185051370E+02 -0.66014066558E+02 -0.27994112835E+03  0.29084332721E+03  0.00000000000E+00 0.  1.
         11    1    4    4    0    0  0.16115468184E+02  0.20309968889E+02 -0.11979319351E+03  0.12256676696E+03  0.00000000000E+00 0. -1.
        -11    1    3    3    0    0  0.73714384025E+02 -0.68115806650E+00 -0.12946510698E+03  0.14898150326E+03  0.00000000000E+00 0. -1.
         11    1    3    3    0    0 -0.27069789680E+02  0.26883795361E+01 -0.40005794303E+02  0.48378347178E+02  0.00000000000E+00 0.  1.
         21    1    1    2  502  501 -0.19575011159E+02  0.43696876200E+02 -0.54285855634E+02  0.72384750973E+02  0.00000000000E+00 0.  1.
<scales pt_clust_5="13000.00000" pt_clust_6="13000.00000" pt_clust_7="13000.00000" pt_clust_8="13000.00000" pt_clust_9="47.88108"></scales>
<clustering>
<clus scale="   47.881">  1  9  2 -1</clus>
<clus scale="   89.726">  7  8 -1 -1</clus>
<clus scale="   91.097">  5  6 -1 -1</clus>
<clus scale="  100.772">  1  7  2 -1</clus>
<clus scale="  101.995">  2  5  1 -1</clus>
</clustering>
</event>
<event>
 9    1  0.1484717E-005  0.1005489E+03  0.7546771E-02  0.1280541E+00
         -1   -1    0    0    0  501 -0.00000000000E+00  0.00000000000E+00  0.11155667633E+03  0.11155667633E+03  0.00000000000E+00 0.  1.
          1   -1    0    0  502    0  0.00000000000E+00 -0.00000000000E+00 -0.12902166989E+03  0.12902166989E+03  0.00000000000E+00 0. -1.
         23    2    1    2    0    0 -0.88364777992E+01 -0.49893035868E+02 -0.29187954890E+01  0.10386892145E+03  0.90624693700E+02 0.  0.
         23    2    1    2    0    0 -0.92380768191E+01  0.27996040477E+02 -0.32338002905E+02  0.10320246652E+03  0.93465942019E+02 0.  0.
        -11    1    4    4    0    0 -0.24501893252E+02 -0.17911536378E+02 -0.43986417696E+02  0.53441284136E+02  0.00000000000E+00 0. -1.
         11    1    4    4    0    0  0.15263816433E+02  0.45907576855E+02  0.11648414790E+02  0.49761182381E+02  0.00000000000E+00 0.  1.
        -11    1    3    3    0    0  0.30777095103E+02  0.74017603946E+01  0.96401455526E+01  0.33089999187E+02  0.00000000000E+00 0.  1.
         11    1    3    3    0    0 -0.39613572902E+02 -0.57294796262E+02 -0.12558941042E+02  0.70778922264E+02  0.00000000000E+00 0. -1.
         21    1    1    2  502  501  0.18074554618E+02  0.21896995391E+02  0.17791804831E+02  0.33506958247E+02  0.00000000000E+00 0.  1.
<scales pt_clust_5="13000.00000" pt_clust_6="13000.00000" pt_clust_7="13000.00000" pt_clust_8="13000.00000" pt_clust_9="28.39310"></scales>
<clustering>
<clus scale="   28.393">  1  9  2 -1</clus>
<clus scale="   90.625">  7  8 -1 -1</clus>
<clus scale="   93.466">  5  6 -1 -1</clus>
<clus scale="   97.913">  1  7  2 -1</clus>
<clus scale="  100.549">  2  5  1 -1</clus>
</clustering>
</event>
<event>
 9    1  0.1484717E-005  0.9426621E+02  0.7546771E-02  0.1292931E+00
          1   -1    0    0  502    0  0.00000000000E+00  0.00000000000E+00  0.29108063574E+02  0.29108063574E+02  0.00000000000E+00 0. -1.
         -1   -1    0    0    0  501 -0.00000000000E+00 -0.00000000000E+00 -0.58933608112E+03  0.58933608112E+03  0.00000000000E+00 0.  1.
         23    2    1    2    0    0 -0.18744972359E+02  0.34630962824E+01 -0.32351748381E+03  0.33670337060E+03  0.91335811263E+02 0.  0.
         23    2    1    2    0    0  0.12014472150E+02 -0.22677173720E+02 -0.81485840659E+02  0.12518667563E+03  0.91504971331E+02 0.  0.
        -13    1    4    4    0    0  0.32158719037E+02 -0.89512196798E+01 -0.92572972299E+02  0.98407635599E+02  0.00000000000E+00 0.  1.
         13    1    4    4    0    0 -0.20144246887E+02 -0.13725954040E+02  0.11087131640E+02  0.26779040031E+02  0.00000000000E+00 0. -1.
        -13    1    3    3    0    0  0.27367345345E+02  0.29582393901E+02 -0.13757783314E+03  0.14335881483E+03  0.00000000000E+00 0.  1.
         13    1    3    3    0    0 -0.46112317704E+02 -0.26119297619E+02 -0.18593965068E+03  0.19334455577E+03  0.00000000000E+00 0. -1.
         21    1    1    2  502  501  0.67305002089E+01  0.19214077438E+02 -0.15522469307E+03  0.15655409846E+03  0.00000000000E+00 0.  1.
<scales pt_clust_5="13000.00000" pt_clust_6="13000.00000" pt_clust_7="13000.00000" pt_clust_8="13000.00000" pt_clust_9="20.35879"></scales>
<clustering>
<clus scale="   20.359">  2  9  1 -1</clus>
<clus scale="   91.336">  7  8 -1 -1</clus>
<clus scale="   91.505">  5  6 -1 -1</clus>
<clus scale="   94.102">  2  7  1 -1</clus>
<clus scale="   94.266">  1  5  2 -1</clus>
</clustering>
</event>
<event>
 9    1  0.1484717E-005  0.1206190E+03  0.7546771E-02  0.1243204E+00
          2   -1    0    0  502    0  0.00000000000E+00  0.00000000000E+00  0.12324845778E+03  0.12324845778E+03  0.00000000000E+00 0. -1.
         -2   -1    0    0    0  501 -0.00000000000E+00 -0.00000000000E+00 -0.18616158560E+03  0.18616158560E+03  0.00000000000E+00 0.  1.
         23    2    1    2    0    0 -0.46966835892E+02  0.46900426470E+02 -0.72986105073E+01  0.11523900794E+03  0.93921379674E+02 0.  0.
         23    2    1    2    0    0  0.67409618006E+02 -0.51140363106E+02  0.11041480059E+02  0.12432186658E+03  0.90413599033E+02 0.  0.
        -11    1    4    4    0    0 -0.80448402157E+01 -0.23170851822E+02  0.32803705227E+02  0.40959625302E+02  0.00000000000E+00 0. -1.
         11    1    4    4    0    0  0.75454458221E+02 -0.27969511285E+02 -0.21762225168E+02  0.83362241280E+02  0.00000000000E+00 0.  1.
        -13    1    3    3    0    0 -0.29442160258E+02  0.64481789395E+02 -0.34140040932E+02  0.78678360171E+02  0.00000000000E+00 0. -1.
         13    1    3    3    0    0 -0.17524675634E+02 -0.17581362925E+02  0.26841430425E+02  0.36560647774E+02  0.00000000000E+00 0.  1.
         21    1    1    2  502  501 -0.20442782114E+02  0.42399366361E+01 -0.66655997378E+02  0.69849168855E+02  0.00000000000E+00 0. -1.
<scales pt_clust_5="13000.00000" pt_clust_6="13000.00000" pt_clust_7="13000.00000" pt_clust_8="13000.00000" pt_clust_9="20.87784"></scales>
<clustering>
<clus scale="   20.878">  2  9  1 -1</clus>
<clus scale="   90.414">  5  6 -1 -1</clus>
<clus scale="   93.921">  7  8 -1 -1</clus>
<clus scale="  117.908">  1  5  2 -1</clus>
<clus scale="  117.908">  1  5  2 -1</clus>
</clustering>
</event>
<event>
 9    1  0.1484717E-005  0.9949254E+02  0.7546771E-02  0.1281777E+00
          2   -1    0    0  502    0  0.00000000000E+00  0.00000000000E+00  0.20677559709E+03  0.20677559709E+03  0.00000000000E+00 0. -1.
         -2   -1    0    0    0  501 -0.00000000000E+00 -0.00000000000E+00 -0.10229535777E+03  0.10229535777E+03  0.00000000000E+00 0.  1.
         23    2    1    2    0    0 -0.21365366593E+02 -0.53716885599E+02 -0.74694291517E+01  0.10887577203E+03  0.91957374229E+02 0.  0.
         23    2    1    2    0    0 -0.10593665706E+02 -0.67854864076E+01  0.85623295976E+02  0.12688082780E+03  0.92785381770E+02 0.  0.
        -11    1    3    3    0    0 -0.48366028072E+02 -0.63486493072E+02 -0.34877510283E+01  0.79887244797E+02  0.00000000000E+00 0.  1.
         11    1    3    3    0    0  0.27000661479E+02  0.97696074722E+01 -0.39816781234E+01  0.28988527233E+02  0.00000000000E+00 0. -1.
        -11    1    4    4    0    0  0.25559681261E+01 -0.49180497080E+02  0.45055267286E+02  0.66747519627E+02  0.00000000000E+00 0.  1.
         11    1    4    4    0    0 -0.13149633832E+02  0.42395010673E+02  0.40568028690E+02  0.60133308172E+02  0.00000000000E+00 0. -1.
         21    1    1    2  502  501  0.31959032299E+02  0.60502372007E+02  0.26326372500E+02  0.73314355027E+02  0.00000000000E+00 0. -1.
<scales pt_clust_5="13000.00000" pt_clust_6="13000.00000" pt_clust_7="13000.00000" pt_clust_8="13000.00000" pt_clust_9="68.42453"></scales>
<clustering>
<clus scale="   68.425">  1  9  2 -1</clus>
<clus scale="   91.957">  5  6 -1 -1</clus>
<clus scale="   92.785">  7  8 -1 -1</clus>
<clus scale="   98.721">  2  5  1 -1</clus>
<clus scale="   68.425">  1  5  2 -1</clus>
</clustering>
</event>
<event>
 9    1  0.1484717E-005  0.1023873E+03  0.7546771E-02  0.1277642E+00
          1   -1    0    0  502    0  0.00000000000E+00  0.00000000000E+00  0.48965446598E+03  0.48965446598E+03  0.00000000000E+00 0. -1.
         -1   -1    0    0    0  501 -0.00000000000E+00 -0.00000000000E+00 -0.18890815431E+03  0.18890815431E+03  0.00000000000E+00 0.  1.
         23    2    1    2    0    0  0.14320960840E+02  0.89340437652E+02  0.19732572470E+03  0.23519460800E+03  0.90511094803E+02 0.  0.
         23    2    1    2    0    0 -0.74700502427E+01 -0.11751536063E+02  0.25521107634E+03  0.27275932174E+03  0.95242080300E+02 0.  0.
        -11    1    3    3    0    0  0.31904624189E+02  0.22615934900E+02  0.17999395596E+02  0.43050711932E+02  0.00000000000E+00 0. -1.
         11    1    3    3    0    0 -0.17583663349E+02  0.66724502752E+02  0.17932632910E+03  0.19214389606E+03  0.00000000000E+00 0.  1.
        -11    1    4    4    0    0 -0.16043871648E+02 -0.42729001311E+02  0.22160673675E+03  0.22625808083E+03  0.00000000000E+00 0.  1.
         11    1    4    4    0    0  0.85738214048E+01  0.30977465247E+02  0.33604339595E+02  0.46501240910E+02  0.00000000000E+00 0. -1.
         21    1    1    2  502  501 -0.68509105974E+01 -0.77588901588E+02 -0.15179048938E+03  0.17060869055E+03  0.00000000000E+00 0.  1.
<scales pt_clust_5="13000.00000" pt_clust_6="13000.00000" pt_clust_7="13000.00000" pt_clust_8="13000.00000" pt_clust_9="77.89077"></scales>
<clustering>
<clus scale="   77.891">  2  9  1 -1</clus>
<clus scale="   90.511">  5  6 -1 -1</clus>
<clus scale="   95.242">  7  8 -1 -1</clus>
<clus scale="   98.002">  2  5  1 -1</clus>
<clus scale="  102.387">  1  5  2 -1</clus>
</clustering>
</event>
<event>
 9    1  0.1484717E-005  0.2334200E+03  0.7546771E-02  0.1124672E+00
         -2   -1    0    0    0  501 -0.00000000000E+00  0.00000000000E+00  0.72169060588E+02  0.72169060588E+02  0.00000000000E+00 0.  1.
          2   -1    0    0  502    0  0.00000000000E+00 -0.00000000000E+00 -0.86787570669E+03  0.86787570669E+03  0.00000000000E+00 0. -1.
         23    2    1    2    0    0  0.17135163454E+03  0.12634472890E+03 -0.33034558360E+03  0.40425917515E+03  0.94725407918E+02 0.  0.
         23    2    1    2    0    0 -0.19064732062E+03 -0.99875340962E+02 -0.40913696983E+03  0.47071562521E+03  0.88649056081E+02 0.  0.
        -11    1    3    3    0    0  0.93607949977E+02  0.93324469660E+02 -0.26946794275E+03  0.30014142851E+03  0.00000000000E+00 0.  1.
         11    1    3    3    0    0  0.77743684561E+02  0.33020259235E+02 -0.60877640849E+02  0.10411774664E+03  0.00000000000E+00 0. -1.
        -11    1    4    4    0    0 -0.16022816666E+03 -0.39322841660E+02 -0.28722701466E+03  0.33123814578E+03  0.00000000000E+00 0. -1.
         11    1    4    4    0    0 -0.30419153956E+02 -0.60552499302E+02 -0.12190995517E+03  0.13947747943E+03  0.00000000000E+00 0.  1.
         21    1    1    2  502  501  0.19295686078E+02 -0.26469387934E+02 -0.56224092672E+02  0.65069966924E+02  0.00000000000E+00 0. -1.
<scales pt_clust_5="13000.00000" pt_clust_6="13000.00000" pt_clust_7="13000.00000" pt_clust_8="13000.00000" pt_clust_9="32.75595"></scales>
<clustering>
<clus scale="   32.756">  2  9  1 -1</clus>
<clus scale="   88.649">  7  8 -1 -1</clus>
<clus scale="   94.725">  5  6 -1 -1</clus>
<clus scale="  231.021">  2  7  1 -1</clus>
<clus scale="   32.756">  2  5  1 -1</clus>
</clustering>
</event>
<event>
 9    1  0.1484717E-005  0.1028164E+03  0.7546771E-02  0.1278810E+00
          1   -1    0    0  502    0  0.00000000000E+00  0.00000000000E+00  0.27505677541E+03  0.27505677541E+03  0.00000000000E+00 0. -1.
         -1   -1    0    0    0  501 -0.00000000000E+00 -0.00000000000E+00 -0.82352338498E+02  0.82352338498E+02  0.00000000000E+00 0.  1.
         23    2    1    2    0    0  0.11283744153E+02  0.42200892908E+02 -0.37028181551E+01  0.10102431326E+03  0.91016277464E+02 0.  0.
         23    2    1    2    0    0 -0.23695283908E+02 -0.82521441458E+01  0.19484101386E+03  0.22020446105E+03  0.99485775973E+02 0.  0.
        -11    1    4    4    0    0  0.46580194750E+01 -0.36082028113E+02  0.16885862497E+03  0.17273345108E+03  0.00000000000E+00 0. -1.
         11    1    4    4    0    0 -0.28353303383E+02  0.27829883967E+02  0.25982388894E+02  0.47471009964E+02  0.00000000000E+00 0.  1.
        -11    1    3    3    0    0  0.32750973078E+02 -0.15736698683E+02  0.10102960180E+02  0.37713919545E+02  0.00000000000E+00 0. -1.
         11    1    3    3    0    0 -0.21467228925E+02  0.57937591591E+02 -0.13805778335E+02  0.63310393717E+02  0.00000000000E+00 0.  1.
         21    1    1    2  502  501  0.12411539755E+02 -0.33948748762E+02  0.15662412033E+01  0.36180339594E+02  0.00000000000E+00 0. -1.
<scales pt_clust_5="13000.00000" pt_clust_6="13000.00000" pt_clust_7="13000.00000" pt_clust_8="13000.00000" pt_clust_9="36.14642"></scales>
<clustering>
<clus scale="   36.146">  2  9  1 -1</clus>
<clus scale="   91.016">  7  8 -1 -1</clus>
<clus scale="   94.645">  2  7  1 -1</clus>
<clus scale="   99.486">  5  6 -1 -1</clus>
<clus scale="  102.816">  1  5  2 -1</clus>
</clustering>
</event>
<event>
 9    1  0.1484717E-005  0.1461610E+03  0.7546771E-02  0.1205335E+00
         -2   -1    0    0    0  501 -0.00000000000E+00  0.00000000000E+00  0.23298346176E+03  0.23298346176E+03  0.00000000000E+00 0.  1.
          2   -1    0    0  502    0  0.00000000000E+00 -0.00000000000E+00 -0.17161836565E+03  0.17161836565E+03  0.00000000000E+00 0. -1.
         23    2    1    2    0    0  0.39369281717E+02 -0.80589988513E+02  0.12273949015E+03  0.17735607449E+03  0.91353752652E+02 0.  0.
         23    2    1    2    0    0 -0.39044798871E+02  0.11458241666E+03 -0.95517765354E+02  0.17906525619E+03  0.91033488063E+02 0.  0.
        -11    1    3    3    0    0  0.67004516879E+02 -0.54324571953E+02  0.10323867676E+03  0.13453248225E+03  0.00000000000E+00 0.  1.
         11    1    3    3    0    0 -0.27635235162E+02 -0.26265416560E+02  0.19500813391E+02  0.42823592241E+02  0.00000000000E+00 0. -1.
        -13    1    4    4    0    0 -0.28280807803E+02  0.30192668690E+00  0.21315453819E+01  0.28362629205E+02  0.00000000000E+00 0.  1.
         13    1    4    4    0    0 -0.10763991069E+02  0.11428048998E+03 -0.97649310736E+02  0.15070262699E+03  0.00000000000E+00 0. -1.
         21    1    1    2  502  501 -0.32448284607E+00 -0.33992428150E+02  0.34143371312E+02  0.48180496731E+02  0.00000000000E+00 0.  1.
<scales pt_clust_5="13000.00000" pt_clust_6="13000.00000" pt_clust_7="13000.00000" pt_clust_8="13000.00000" pt_clust_9="33.99398"></scales>
<clustering>
<clus scale="   33.994">  1  9  2 -1</clus>
<clus scale="   91.033">  7  8 -1 -1</clus>
<clus scale="   91.354">  5  6 -1 -1</clus>
<clus scale="  145.961">  2  7  1 -1</clus>
<clus scale="  145.961">  2  5  1 -1</clus>
</clustering>
</event>
<event>
 9    1  0.1484717E-005  0.9720896E+02  0.7546771E-02  0.1288302E+00
         -3   -1    0    0    0  501 -0.00000000000E+00  0.00000000000E+00  0.16154922691E+03  0.16154922691E+03  0.00000000000E+00 0.  1.
          3   -1    0    0  502    0  0.00000000000E+00 -0.00000000000E+00 -0.98834119086E+02  0.98834119086E+02  0.00000000000E+00 0. -1.
         23    2    1    2    0    0  0.28428568167E+01 -0.34451193590E+02  0.58891530393E+01  0.99611058098E+02  0.93234726348E+02 0.  0.
         23    2    1    2    0    0 -0.17828219345E+02  0.17599026500E+02 -0.69340571622E+01  0.93141704956E+02  0.89441181313E+02 0.  0.
        -11    1    3    3    0    0 -0.41628663898E+02 -0.30286922278E+02 -0.95364722068E+01  0.52356352253E+02  0.00000000000E+00 0.  1.
         11    1    3    3    0    0  0.44471520715E+02 -0.41642713114E+01  0.15425625246E+02  0.47254705845E+02  0.00000000000E+00 0. -1.
        -11    1    4    4    0    0 -0.41197950302E+02 -0.18449123032E+02  0.11202682989E+02  0.46509583484E+02  0.00000000000E+00 0.  1.
         11    1    4    4    0    0  0.23369730956E+02  0.36048149532E+02 -0.18136740152E+02  0.46632121472E+02  0.00000000000E+00 0. -1.
         21    1    1    2  502  501  0.14985362529E+02  0.16852167090E+02  0.63760011949E+02  0.67630582945E+02  0.00000000000E+00 0. -1.
<scales pt_clust_5="13000.00000" pt_clust_6="13000.00000" pt_clust_7="13000.00000" pt_clust_8="13000.00000" pt_clust_9="22.55120"></scales>
<clustering>
<clus scale="   22.551">  1  9  2 -1</clus>
<clus scale="   89.441">  7  8 -1 -1</clus>
<clus scale="   93.235">  5  6 -1 -1</clus>
<clus scale="   93.577">  2  7  1 -1</clus>
<clus scale="   93.577">  2  5  1 -1</clus>
</clustering>
</event>
<event>
 9    1  0.1484717E-005  0.1300621E+03  0.7546771E-02  0.1228651E+00
          2   -1    0    0  502    0  0.00000000000E+00  0.00000000000E+00  0.55825598887E+03  0.55825598887E+03  0.00000000000E+00 0. -1.
         -2   -1    0    0    0  501 -0.00000000000E+00 -0.00000000000E+00 -0.76716546439E+02  0.76716546439E+02  0.00000000000E+00 0.  1.
         23    2    1    2    0    0 -0.27716978467E+02  0.43296062889E+02  0.58189975499E+02  0.11593786405E+03  0.86097242200E+02 0.  0.
         23    2    1    2    0    0  0.33100832293E+02 -0.10478880146E+03  0.43358035778E+03  0.45646459929E+03  0.91058474266E+02 0.  0.
        -11    1    3    3    0    0 -0.10415498110E+02  0.23214871116E+02 -0.20644863418E+02  0.32766190309E+02  0.00000000000E+00 0.  1.
         11    1    3    3    0    0 -0.17301480358E+02  0.20081191773E+02  0.78834838917E+02  0.83171673740E+02  0.00000000000E+00 0. -1.
        -11    1    4    4    0    0 -0.22607773902E+02 -0.32130674912E+02  0.59191076841E+02  0.71042770841E+02  0.00000000000E+00 0.  1.
         11    1    4    4    0    0  0.55708606195E+02 -0.72658126551E+02  0.37438928094E+03  0.38542182845E+03  0.00000000000E+00 0. -1.
         21    1    1    2  502  501 -0.53838538262E+01  0.61492738574E+02 -0.10230890850E+02  0.62570071975E+02  0.00000000000E+00 0.  1.
<scales pt_clust_5="13000.00000" pt_clust_6="13000.00000" pt_clust_7="13000.00000" pt_clust_8="13000.00000" pt_clust_9="61.72797"></scales>
<clustering>
<clus scale="   61.728">  2  9  1 -1</clus>
<clus scale="   86.097">  5  6 -1 -1</clus>
<clus scale="   91.058">  7  8 -1 -1</clus>
<clus scale="  126.638">  2  5  1 -1</clus>
<clus scale="  130.062">  1  5  2 -1</clus>
</clustering>
</event>
<event>
 9    1  0.1484717E-005  0.9590706E+02  0.7546771E-02  0.1290121E+00
          1   -1    0    0  502    0  0.00000000000E+00  0.00000000000E+00  0.97253231069E+02  0.97253231069E+02  0.00000000000E+00 0. -1.
         -1   -1    0    0    0  501 -0.00000000000E+00 -0.00000000000E+00 -0.21171727881E+03  0.21171727881E+03  0.00000000000E+00 0.  1.
         23    2    1    2    0    0 -0.14422871634E+02  0.68181240831E+02 -0.41223442568E+02  0.12228698029E+03  0.91640779705E+02 0.  0.
         23    2    1    2    0    0  0.16138996721E+02  0.10804570945E+02 -0.30298853339E+02  0.96763022481E+02  0.89821244912E+02 0.  0.
        -11    1    3    3    0    0  0.96601658550E+01  0.25198889580E+02 -0.62911344891E+02  0.68455388074E+02  0.00000000000E+00 0.  1.
         11    1    3    3    0    0 -0.24083037489E+02  0.42982351252E+02  0.21687902323E+02  0.53831592220E+02  0.00000000000E+00 0. -1.
        -13    1    4    4    0    0  0.34627757274E+02  0.38821114237E+02 -0.35241108514E+02  0.62833877914E+02  0.00000000000E+00 0.  1.
         13    1    4    4    0    0 -0.18488760553E+02 -0.28016543293E+02  0.49422551749E+01  0.33929144567E+02  0.00000000000E+00 0. -1.
         21    1    1    2  502  501 -0.17161250867E+01 -0.78985811776E+02 -0.42941751835E+02  0.89920507104E+02  0.00000000000E+00 0.  1.
<scales pt_clust_5="13000.00000" pt_clust_6="13000.00000" pt_clust_7="13000.00000" pt_clust_8="13000.00000" pt_clust_9="79.00445"></scales>
<clustering>
<clus scale="   79.004">  2  9  1 -1</clus>
<clus scale="   89.821">  7  8 -1 -1</clus>
<clus scale="   91.641">  5  6 -1 -1</clus>
<clus scale="   94.170">  1  7  2 -1</clus>
<clus scale="   94.170">  1  5  2 -1</clus>
</clustering>
</event>
<event>
 9    1  0.1484717E-005  0.1125695E+03  0.7546771E-02  0.1255904E+00
          1   -1    0    0  502    0  0.00000000000E+00  0.00000000000E+00  0.47247884914E+02  0.47247884914E+02  0.00000000000E+00 0. -1.
         -1   -1    0    0    0  501 -0.00000000000E+00 -0.00000000000E+00 -0.36434500572E+03  0.36434500572E+03  0.00000000000E+00 0.  1.
         23    2    1    2    0    0 -0.57742462714E+02  0.54990736660E+02 -0.14313089080E+03  0.18746443223E+03  0.91094941307E+02 0.  0.
         23    2    1    2    0    0  0.34576108961E+02 -0.44052558819E+02 -0.10229456548E+03  0.14801570536E+03  0.91150072165E+02 0.  0.
        -11    1    3    3    0    0 -0.71184656239E+02  0.31007010446E+02 -0.13960648149E+03  0.15974560919E+03  0.00000000000E+00 0.  1.
         11    1    3    3    0    0  0.13442193525E+02  0.23983726214E+02 -0.35244093075E+01  0.27718823042E+02  0.00000000000E+00 0. -1.
        -13    1    4    4    0    0 -0.24390851412E+02 -0.25821715361E+02 -0.98498888927E+01  0.36860479215E+02  0.00000000000E+00 0.  1.
         13    1    4    4    0    0  0.58966960373E+02 -0.18230843459E+02 -0.92444676590E+02  0.11115522614E+03  0.00000000000E+00 0. -1.
         21    1    1    2  502  501  0.23166353753E+02 -0.10938177841E+02 -0.71671664531E+02  0.76112753053E+02  0.00000000000E+00 0.  1.
<scales pt_clust_5="13000.00000" pt_clust_6="13000.00000" pt_clust_7="13000.00000" pt_clust_8="13000.00000" pt_clust_9="25.61881"></scales>
<clustering>
<clus scale="   25.619">  2  9  1 -1</clus>
<clus scale="   91.095">  5  6 -1 -1</clus>
<clus scale="   91.150">  7  8 -1 -1</clus>
<clus scale="  112.525">  2  5  1 -1</clus>
<clus scale="  112.569">  1  5  2 -1</clus>
</clustering>
</event>
<event>
 9    1  0.1484717E-005  0.1414021E+03  0.7546771E-02  0.1217106E+00
          1   -1    0    0  502    0  0.00000000000E+00  0.00000000000E+00  0.82374357976E+02  0.82374357976E+02  0.00000000000E+00 0. -1.
         -1   -1    0    0    0  501 -0.00000000000E+00 -0.00000000000E+00 -0.37296222453E+03  0.37296222453E+03  0.00000000000E+00 0.  1.
         23    2    1    2    0    0 -0.34846399962E+02 -0.67171152263E+02 -0.24388195064E+03  0.28205929607E+03  0.11980319431E+03 0.  0.
         23    2    1    2    0    0  0.53216486644E+01  0.76088338076E+02 -0.11784260070E+02  0.12668598693E+03  0.10046250726E+03 0.  0.
        -13    1    3    3    0    0 -0.69508472303E+02 -0.58387895660E+02 -0.22271886459E+03  0.24050835064E+03  0.00000000000E+00 0.  1.
         13    1    3    3    0    0  0.34662072341E+02 -0.87832566027E+01 -0.21163086049E+02  0.41550945436E+02  0.00000000000E+00 0. -1.
        -13    1    4    4    0    0  0.11532441401E+02  0.39350300090E+02  0.43652597566E+02  0.59891506878E+02  0.00000000000E+00 0. -1.
         13    1    4    4    0    0 -0.62107927362E+01  0.36738037986E+02 -0.55436857636E+02  0.66794480057E+02  0.00000000000E+00 0.  1.
         21    1    1    2  502  501  0.29524751298E+02 -0.89171858133E+01 -0.34921655846E+02  0.46591299499E+02  0.00000000000E+00 0.  1.
<scales pt_clust_5="13000.00000" pt_clust_6="13000.00000" pt_clust_7="13000.00000" pt_clust_8="13000.00000" pt_clust_9="30.84197"></scales>
<clustering>
<clus scale="   30.842">  2  9  1 -1</clus>
<clus scale="  100.463">  7  8 -1 -1</clus>
<clus scale="  119.803">  5  6 -1 -1</clus>
<clus scale="  125.437">  1  7  2 -1</clus>
<clus scale="  125.437">  1  5  2 -1</clus>
</clustering>
</event>
<event>
 9    1  0.1484717E-005  0.1714914E+03  0.7546771E-02  0.1176701E+00
          3   -1    0    0  502    0  0.00000000000E+00  0.00000000000E+00  0.93454072851E+02  0.93454072851E+02  0.00000000000E+00 0. -1.
         -3   -1    0    0    0  501 -0.00000000000E+00 -0.00000000000E+00 -0.43909971345E+03  0.43909971345E+03  0.00000000000E+00 0.  1.
         23    2    1    2    0    0 -0.69299127611E+02 -0.10813531443E+03 -0.22933109610E+03  0.27898550854E+03  0.93512282735E+02 0.  0.
         23    2    1    2    0    0  0.87166757668E+02  0.12304907848E+03 -0.49442729602E+02  0.18276211850E+03  0.90654779735E+02 0.  0.
        -11    1    3    3    0    0 -0.92657481924E+02 -0.83218096080E+02 -0.18522832387E+03  0.22320437369E+03  0.00000000000E+00 0.  1.
         11    1    3    3    0    0  0.23358354313E+02 -0.24917218350E+02 -0.44102772231E+02  0.55781134848E+02  0.00000000000E+00 0. -1.
        -11    1    4    4    0    0 -0.12407061490E+02  0.17193675605E+02 -0.29117715381E+02  0.36019425379E+02  0.00000000000E+00 0.  1.
         11    1    4    4    0    0  0.99573819158E+02  0.10585540288E+03 -0.20325014221E+02  0.14674269312E+03  0.00000000000E+00 0. -1.
         21    1    1    2  502  501 -0.17867630057E+02 -0.14913764055E+02 -0.66871814896E+02  0.70806159263E+02  0.00000000000E+00 0.  1.
<scales pt_clust_5="13000.00000" pt_clust_6="13000.00000" pt_clust_7="13000.00000" pt_clust_8="13000.00000" pt_clust_9="23.27386"></scales>
<clustering>
<clus scale="   23.274">  2  9  1 -1</clus>
<clus scale="   90.655">  7  8 -1 -1</clus>
<clus scale="   93.512">  5  6 -1 -1</clus>
<clus scale="  169.950">  1  7  2 -1</clus>
<clus scale="  169.950">  1  5  2 -1</clus>
</clustering>
</event>
<event>
 9    1  0.1484717E-005  0.3963679E+03  0.7546771E-02  0.1096722E+00
          1   -1    0    0  502    0  0.00000000000E+00  0.00000000000E+00  0.14417082655E+04  0.14417082655E+04  0.00000000000E+00 0. -1.
         -1   -1    0    0    0  501 -0.00000000000E+00 -0.00000000000E+00 -0.21572211370E+03  0.21572211370E+03  0.00000000000E+00 0.  1.
         23    2    1    2    0    0 -0.45672120728E+02  0.16501071917E+00  0.43143852522E+02  0.10531803605E+03  0.84525303121E+02 0.  0.
         23    2    1    2    0    0 -0.36585807835E+03 -0.91309450595E+02  0.10350683525E+04  0.11054563760E+04  0.92074728196E+02 0.  0.
        -11    1    4    4    0    0 -0.93227539642E+02 -0.62135579301E+02  0.35250034005E+03  0.36987659306E+03  0.00000000000E+00 0.  1.
         11    1    4    4    0    0 -0.27263053871E+03 -0.29173871294E+02  0.68256801244E+03  0.73557978290E+03  0.00000000000E+00 0. -1.
        -13    1    3    3    0    0 -0.63789265884E+02  0.10020659427E+02  0.51966852591E+02  0.82885691320E+02  0.00000000000E+00 0.  1.
         13    1    3    3    0    0  0.18117145157E+02 -0.98556487083E+01 -0.88230000682E+01  0.22432344735E+02  0.00000000000E+00 0. -1.
         21    1    1    2  502  501  0.41153019908E+03  0.91144439876E+02  0.14777394681E+03  0.44665596720E+03  0.00000000000E+00 0.  1.
<scales pt_clust_5="13000.00000" pt_clust_6="13000.00000" pt_clust_7="13000.00000" pt_clust_8="13000.00000" pt_clust_9="385.52526"></scales>
<clustering>
<clus scale="   84.525">  7  8 -1 -1</clus>
<clus scale="   92.075">  5  6 -1 -1</clus>
<clus scale="   96.075">  2  7  1 -1</clus>
<clus scale="  385.525">  2  9  1 -1</clus>
<clus scale="  396.368">  1  5  2 -1</clus>
</clustering>
</event>
<event>
 9    1  0.1484717E-005  0.1211792E+03  0.7546771E-02  0.1242611E+00
         -1   -1    0    0    0  501 -0.00000000000E+00  0.00000000000E+00  0.41933620428E+03  0.41933620428E+03  0.00000000000E+00 0.  1.
          1   -1    0    0  502    0  0.00000000000E+00 -0.00000000000E+00 -0.64277603353E+03  0.64277603353E+03  0.00000000000E+00 0. -1.
         23    2    1    2    0    0  0.21062990197E+02  0.49235346552E+02  0.11533692307E+03  0.15561583154E+03  0.89699009455E+02 0.  0.
         23    2    1    2    0    0  0.40926317115E+02 -0.66605769825E+02 -0.61285074678E+03  0.62496317509E+03  0.94242455321E+02 0.  0.
        -11    1    3    3    0    0 -0.11054742035E+02  0.32444231442E+02  0.11433253641E+03  0.11935981048E+03  0.00000000000E+00 0.  1.
         11    1    3    3    0    0  0.32117732232E+02  0.16791115110E+02  0.10043866512E+01  0.36256021057E+02  0.00000000000E+00 0. -1.
        -13    1    4    4    0    0  0.61237216534E+02 -0.10758730707E+02 -0.27662616177E+03  0.28352738907E+03  0.00000000000E+00 0.  1.
         13    1    4    4    0    0 -0.20310899418E+02 -0.55847039118E+02 -0.33622458501E+03  0.34143578602E+03  0.00000000000E+00 0. -1.
         21    1    1    2  502  501 -0.61989307312E+02  0.17370423273E+02  0.27407399446E+03  0.28153323119E+03  0.00000000000E+00 0.  1.
<scales pt_clust_5="13000.00000" pt_clust_6="13000.00000" pt_clust_7="13000.00000" pt_clust_8="13000.00000" pt_clust_9="64.37706"></scales>
<clustering>
<clus scale="   64.377">  1  9  2 -1</clus>
<clus scale="   89.699">  5  6 -1 -1</clus>
<clus scale="   94.242">  7  8 -1 -1</clus>
<clus scale="  117.680">  1  5  2 -1</clus>
<clus scale="  121.179">  2  5  1 -1</clus>
</clustering>
</event>
<event>
 9    1  0.1484717E-005  0.9253729E+02  0.7546771E-02  0.1300820E+00
          2   -1    0    0  502    0  0.00000000000E+00  0.00000000000E+00  0.17497334994E+03  0.17497334994E+03  0.00000000000E+00 0. -1.
         -2   -1    0    0    0  501 -0.00000000000E+00 -0.00000000000E+00 -0.11247814302E+03  0.11247814302E+03  0.00000000000E+00 0.  1.
         23    2    1    2    0    0  0.39629247411E+02 -0.47355367048E+02 -0.43037452110E+01  0.10492170543E+03  0.84717377259E+02 0.  0.
         23    2    1    2    0    0  0.93493436626E+01 -0.10036748352E+01  0.66979916440E+02  0.11370005512E+03  0.91394615472E+02 0.  0.
        -11    1    3    3    0    0  0.63190640162E+02 -0.50338505656E+02 -0.66131242433E+01  0.81060197187E+02  0.00000000000E+00 0. -1.
         11    1    3    3    0    0 -0.23561392751E+02  0.29831386072E+01  0.23093790323E+01  0.23861508247E+02  0.00000000000E+00 0.  1.
        -13    1    4    4    0    0  0.21343569420E+02 -0.42849944132E+02  0.40827268926E+02  0.62916862252E+02  0.00000000000E+00 0. -1.
         13    1    4    4    0    0 -0.11994225758E+02  0.41846269297E+02  0.26152647515E+02  0.50783192865E+02  0.00000000000E+00 0.  1.
         21    1    1    2  502  501 -0.48978591074E+02  0.48359041884E+02 -0.18096430701E+00  0.68829732410E+02  0.00000000000E+00 0.  1.
<scales pt_clust_5="13000.00000" pt_clust_6="13000.00000" pt_clust_7="13000.00000" pt_clust_8="13000.00000" pt_clust_9="68.82949"></scales>
<clustering>
<clus scale="   68.829">  2  9  1 -1</clus>
<clus scale="   84.717">  5  6 -1 -1</clus>
<clus scale="   85.949">  2  5  1 -1</clus>
<clus scale="   91.395">  7  8 -1 -1</clus>
<clus scale="   92.537">  1  5  2 -1</clus>
</clustering>
</event>
<event>
 9    1  0.1484717E-005  0.1199232E+03  0.7546771E-02  0.1247703E+00
          2   -1    0    0  502    0  0.00000000000E+00  0.00000000000E+00  0.34361308332E+03  0.34361308332E+03  0.00000000000E+00 0. -1.
         -2   -1    0    0    0  501 -0.00000000000E+00 -0.00000000000E+00 -0.10647560862E+03  0.10647560862E+03  0.00000000000E+00 0.  1.
         23    2    1    2    0    0 -0.27996593998E+02  0.71963784537E+00  0.16211392334E+01  0.84238834636E+02  0.79430636497E+02 0.  0.
         23    2    1    2    0    0  0.91259890817E+02 -0.21388437471E+02  0.26260927730E+03  0.29399255774E+03  0.93178101267E+02 0.  0.
        -11    1    3    3    0    0  0.22762681921E+02  0.74895584401E+01  0.18550383883E+02  0.30304288740E+02  0.00000000000E+00 0. -1.
         11    1    3    3    0    0 -0.50759275919E+02 -0.67699205947E+01 -0.16929244649E+02  0.53934545896E+02  0.00000000000E+00 0.  1.
        -11    1    4    4    0    0  0.10591495309E+03  0.29672711305E+00  0.20644495023E+03  0.23202927145E+03  0.00000000000E+00 0. -1.
         11    1    4    4    0    0 -0.14655062270E+02 -0.21685164584E+02  0.56164327066E+02  0.61963286290E+02  0.00000000000E+00 0.  1.
         21    1    1    2  502  501 -0.63263296818E+02  0.20668799626E+02 -0.27092941830E+02  0.71857299555E+02  0.00000000000E+00 0.  1.
<scales pt_clust_5="13000.00000" pt_clust_6="13000.00000" pt_clust_7="13000.00000" pt_clust_8="13000.00000" pt_clust_9="66.55407"></scales>
<clustering>
<clus scale="   66.554">  2  9  1 -1</clus>
<clus scale="   79.431">  5  6 -1 -1</clus>
<clus scale="   93.178">  7  8 -1 -1</clus>
<clus scale="  109.584">  2  5  1 -1</clus>
<clus scale="  119.923">  1  5  2 -1</clus>
</clustering>
</event>
<event>
 9    1  0.1484717E-005  0.1234482E+03  0.7546771E-02  0.1238730E+00
         -1   -1    0    0    0  501 -0.00000000000E+00  0.00000000000E+00  0.26065229603E+03  0.26065229603E+03  0.00000000000E+00 0.  1.
          1   -1    0    0  502    0  0.00000000000E+00 -0.00000000000E+00 -0.81270632601E+02  0.81270632601E+02  0.00000000000E+00 0. -1.
         23    2    1    2    0    0  0.54696420672E+02  0.41492817168E+02  0.76207188540E+02  0.13661557071E+03  0.90238164126E+02 0.  0.
         23    2    1    2    0    0 -0.65230359805E+02 -0.60175771655E+02  0.35365104081E+02  0.13418684448E+03  0.94230012794E+02 0.  0.
        -13    1    4    4    0    0 -0.51255921340E+02 -0.87996083068E+01 -0.21510689115E+02  0.56278879920E+02  0.00000000000E+00 0.  1.
         13    1    4    4    0    0 -0.13974438465E+02 -0.51376163348E+02  0.56875793196E+02  0.77907964564E+02  0.00000000000E+00 0. -1.
        -13    1    3    3    0    0  0.16828966947E+02  0.64881288653E+02  0.33506749463E+02  0.74936626595E+02  0.00000000000E+00 0. -1.
         13    1    3    3    0    0  0.37867453725E+02 -0.23388471485E+02  0.42700439076E+02  0.61678944117E+02  0.00000000000E+00 0.  1.
         21    1    1    2  502  501  0.10533939133E+02  0.18682954487E+02  0.67809370810E+02  0.71120513438E+02  0.00000000000E+00 0. -1.
<scales pt_clust_5="13000.00000" pt_clust_6="13000.00000" pt_clust_7="13000.00000" pt_clust_8="13000.00000" pt_clust_9="21.44800"></scales>
<clustering>
<clus scale="   21.448">  1  9  2 -1</clus>
<clus scale="   90.238">  7  8 -1 -1</clus>
<clus scale="   94.230">  5  6 -1 -1</clus>
<clus scale="  120.429">  1  7  2 -1</clus>
<clus scale="  123.448">  2  5  1 -1</clus>
</clustering>
</event>
<event>
 9    1  0.1484717E-005  0.9854872E+02  0.7546771E-02  0.1283910E+00
          1   -1    0    0  502    0  0.00000000000E+00  0.00000000000E+00  0.29534798142E+03  0.29534798142E+03  0.00000000000E+00 0. -1.
         -1   -1    0    0    0  501 -0.00000000000E+00 -0.00000000000E+00 -0.63600368911E+02  0.63600368911E+02  0.00000000000E+00 0.  1.
         23    2    1    2    0    0  0.41985936810E+02  0.16571471892E+02  0.20902628783E+02  0.10292687864E+03  0.90108766973E+02 0.  0.
         23    2    1    2    0    0 -0.33212939585E+02  0.21333280917E+02  0.18281493866E+03  0.20806921218E+03  0.91177228685E+02 0.  0.
        -11    1    3    3    0    0  0.86009220819E+01 -0.22687508872E+02 -0.24327457338E+02  0.34358755799E+02  0.00000000000E+00 0.  1.
         11    1    3    3    0    0  0.33385014728E+02  0.39258980764E+02  0.45230086121E+02  0.68568122838E+02  0.00000000000E+00 0. -1.
        -13    1    4    4    0    0 -0.27122217613E+02 -0.27572444876E+02  0.13086878183E+03  0.13646425342E+03  0.00000000000E+00 0. -1.
         13    1    4    4    0    0 -0.60907219721E+01  0.48905725792E+02  0.51946156824E+02  0.71604958754E+02  0.00000000000E+00 0.  1.
         21    1    1    2  502  501 -0.87729972245E+01 -0.37904752809E+02  0.28030045067E+02  0.47952259511E+02  0.00000000000E+00 0. -1.
<scales pt_clust_5="13000.00000" pt_clust_6="13000.00000" pt_clust_7="13000.00000" pt_clust_8="13000.00000" pt_clust_9="38.90676"></scales>
<clustering>
<clus scale="   38.907">  2  9  1 -1</clus>
<clus scale="   90.109">  5  6 -1 -1</clus>
<clus scale="   91.177">  7  8 -1 -1</clus>
<clus scale="   97.561">  2  5  1 -1</clus>
<clus scale="   98.549">  1  5  2 -1</clus>
</clustering>
</event>
<event>
 9    1  0.1484717E-005  0.1179261E+03  0.7546771E-02  0.1255763E+00
         -1   -1    0    0    0  501 -0.00000000000E+00  0.00000000000E+00  0.11718108946E+03  0.11718108946E+03  0.00000000000E+00 0.  1.
          1   -1    0    0  502    0  0.00000000000E+00 -0.00000000000E+00 -0.51680317868E+03  0.51680317868E+03  0.00000000000E+00 0. -1.
         23    2    1    2    0    0 -0.25153524029E+01 -0.29556869840E+01  0.46744157713E+02  0.10284816191E+03  0.91529585630E+02 0.  0.
         23    2    1    2    0    0 -0.29287684955E+02 -0.26299081309E+02 -0.46791424030E+03  0.48284955871E+03  0.11247466341E+03 0.  0.
        -11    1    4    4    0    0  0.39557342351E+02 -0.30831433278E+02 -0.20089715795E+03  0.20706286168E+03  0.00000000000E+00 0.  1.
         11    1    4    4    0    0 -0.68845027306E+02  0.45323519693E+01 -0.26701708235E+03  0.27578669704E+03  0.00000000000E+00 0. -1.
        -11    1    3    3    0    0 -0.35478187049E+01 -0.46758254641E+02  0.16945526736E+02  0.49860528186E+02  0.00000000000E+00 0. -1.
         11    1    3    3    0    0  0.10324663019E+01  0.43802567657E+02  0.29798630977E+02  0.52987633728E+02  0.00000000000E+00 0.  1.
         21    1    1    2  502  501  0.31803037358E+02  0.29254768293E+02  0.21547993366E+02  0.48286547518E+02  0.00000000000E+00 0. -1.
<scales pt_clust_5="13000.00000" pt_clust_6="13000.00000" pt_clust_7="13000.00000" pt_clust_8="13000.00000" pt_clust_9="43.21197"></scales>
<clustering>
<clus scale="   43.212">  1  9  2 -1</clus>
<clus scale="   91.530">  7  8 -1 -1</clus>
<clus scale="   98.151">  1  7  2 -1</clus>
<clus scale="  112.475">  5  6 -1 -1</clus>
<clus scale="  117.926">  2  5  1 -1</clus>
</clustering>
</event>
<event>
 9    1  0.1484717E-005  0.2272465E+03  0.7546771E-02  0.1128877E+00
         -2   -1    0    0    0  501 -0.00000000000E+00  0.00000000000E+00  0.43798972052E+03  0.43798972052E+03  0.00000000000E+00 0.  1.
          2   -1    0    0  502    0  0.00000000000E+00 -0.00000000000E+00 -0.19523311577E+03  0.19523311577E+03  0.00000000000E+00 0. -1.
         23    2    1    2    0    0 -0.15913974614E+03 -0.11517453654E+03  0.16666902822E+03  0.27276008900E+03  0.89603953661E+02 0.  0.
         23    2    1    2    0    0  0.15998369233E+03  0.13905970606E+03 -0.45872741163E+02  0.23618268993E+03  0.93517757551E+02 0.  0.
        -11    1    3    3    0    0 -0.16446625782E+03 -0.84925497428E+02  0.14582926229E+03  0.23564308565E+03  0.00000000000E+00 0.  1.
         11    1    3    3    0    0  0.53265116715E+01 -0.30249039107E+02  0.20839765935E+02  0.37117003351E+02  0.00000000000E+00 0. -1.
        -13    1    4    4    0    0 -0.27287838983E+01  0.23020463615E+02 -0.26782948368E+02  0.35421947008E+02  0.00000000000E+00 0.  1.
         13    1    4    4    0    0  0.16271247623E+03  0.11603924245E+03 -0.19089792795E+02  0.20076074292E+03  0.00000000000E+00 0. -1.
         21    1    1    2  502  501 -0.84394618537E+00 -0.23885169526E+02  0.12196031769E+03  0.12428005736E+03  0.00000000000E+00 0. -1.
<scales pt_clust_5="13000.00000" pt_clust_6="13000.00000" pt_clust_7="13000.00000" pt_clust_8="13000.00000" pt_clust_9="23.90007"></scales>
<clustering>
<clus scale="   23.900">  1  9  2 -1</clus>
<clus scale="   89.604">  5  6 -1 -1</clus>
<clus scale="   93.518">  7  8 -1 -1</clus>
<clus scale="  225.664">  1  5  2 -1</clus>
<clus scale="  227.247">  2  5  1 -1</clus>
</clustering>
</event>
<event>
 9    1  0.1484717E-005  0.1834456E+03  0.7546771E-02  0.1165289E+00
          2   -1    0    0  502    0  0.00000000000E+00  0.00000000000E+00  0.50076822364E+03  0.50076822364E+03  0.00000000000E+00 0. -1.
         -2   -1    0    0    0  501 -0.00000000000E+00 -0.00000000000E+00 -0.10791540037E+03  0.10791540037E+03  0.00000000000E+00 0.  1.
         23    2    1    2    0    0 -0.12573077606E+03 -0.94314638240E+02  0.18419810728E+03  0.26375304665E+03  0.10456217221E+03 0.  0.
         23    2    1    2    0    0  0.14202436294E+03  0.46207039860E+02  0.22860340021E+03  0.29036161185E+03  0.98713427884E+02 0.  0.
        -11    1    3    3    0    0 -0.10110088194E+03 -0.10552659951E+03  0.10470183711E+03  0.17977687901E+03  0.00000000000E+00 0.  1.
         11    1    3    3    0    0 -0.24629894124E+02  0.11211961272E+02  0.79496270172E+02  0.83976167639E+02  0.00000000000E+00 0. -1.
        -13    1    4    4    0    0  0.13444951219E+03  0.65308766905E+02  0.22401951144E+03  0.26930771966E+03  0.00000000000E+00 0. -1.
         13    1    4    4    0    0  0.75748507511E+01 -0.19101727045E+02  0.45838887739E+01  0.21053892189E+02  0.00000000000E+00 0.  1.
         21    1    1    2  502  501 -0.16293586875E+02  0.48107598380E+02 -0.19948684220E+02  0.54568965514E+02  0.00000000000E+00 0. -1.
<scales pt_clust_5="13000.00000" pt_clust_6="13000.00000" pt_clust_7="13000.00000" pt_clust_8="13000.00000" pt_clust_9="50.79195"></scales>
<clustering>
<clus scale="   50.792">  2  9  1 -1</clus>
<clus scale="   98.713">  7  8 -1 -1</clus>
<clus scale="  104.562">  5  6 -1 -1</clus>
<clus scale="  180.176">  1  7  2 -1</clus>
<clus scale="  180.176">  1  5  2 -1</clus>
</clustering>
</event>
<event>
 9    1  0.1484717E-005  0.1035067E+03  0.7546771E-02  0.1279122E+00
         -1   -1    0    0    0  501 -0.00000000000E+00  0.00000000000E+00  0.16290213935E+03  0.16290213935E+03  0.00000000000E+00 0.  1.
          1   -1    0    0  502    0  0.00000000000E+00 -0.00000000000E+00 -0.28154748511E+03  0.28154748511E+03  0.00000000000E+00 0. -1.
         23    2    1    2    0    0 -0.29272844713E+02 -0.55803498166E+02  0.11472005398E+03  0.16014649670E+03  0.92278273572E+02 0.  0.
         23    2    1    2    0    0  0.33369951182E+02  0.31787110530E+02 -0.24170299441E+03  0.25855262017E+03  0.79404948546E+02 0.  0.
        -13    1    3    3    0    0 -0.51834934565E+02 -0.52878966702E+01  0.33748554309E+02  0.62078878941E+02  0.00000000000E+00 0. -1.
         13    1    3    3    0    0  0.22562089852E+02 -0.50515601496E+02  0.80971499675E+02  0.98067617757E+02  0.00000000000E+00 0.  1.
        -13    1    4    4    0    0 -0.10837805859E+02  0.42901035016E+02 -0.14582016984E+03  0.15238595333E+03  0.00000000000E+00 0.  1.
         13    1    4    4    0    0  0.44207757041E+02 -0.11113924486E+02 -0.95882824568E+02  0.10616666684E+03  0.00000000000E+00 0. -1.
         21    1    1    2  502  501 -0.40971064686E+01  0.24016387636E+02  0.83375946575E+01  0.25750507591E+02  0.00000000000E+00 0.  1.
<scales pt_clust_5="13000.00000" pt_clust_6="13000.00000" pt_clust_7="13000.00000" pt_clust_8="13000.00000" pt_clust_9="24.36336"></scales>
<clustering>
<clus scale="   24.363">  1  9  2 -1</clus>
<clus scale="   79.405">  7  8 -1 -1</clus>
<clus scale="   92.214">  2  7  1 -1</clus>
<clus scale="   92.278">  5  6 -1 -1</clus>
<clus scale="   92.214">  2  5  1 -1</clus>
</clustering>
</event>
<event>
 9    1  0.1484717E-005  0.9346292E+02  0.7546771E-02  0.1303263E+00
          2   -1    0    0  502    0  0.00000000000E+00  0.00000000000E+00  0.25224171440E+03  0.25224171440E+03  0.00000000000E+00 0. -1.
         -2   -1    0    0    0  501 -0.00000000000E+00 -0.00000000000E+00 -0.43229776657E+02  0.43229776657E+02  0.00000000000E+00 0.  1.
         23    2    1    2    0    0 -0.23535061166E+02  0.40502643276E+01  0.52130218837E+02  0.95658572826E+02  0.76568264274E+02 0.  0.
         23    2    1    2    0    0  0.18157899035E+02  0.23311667937E+02  0.12798645630E+03  0.15965665582E+03  0.90755559565E+02 0.  0.
        -11    1    3    3    0    0 -0.40530799638E+02  0.26267461563E+02  0.46661204677E+02  0.67156483515E+02  0.00000000000E+00 0. -1.
         11    1    3    3    0    0  0.16995738472E+02 -0.22217197235E+02  0.54690141600E+01  0.28502089311E+02  0.00000000000E+00 0.  1.
        -11    1    4    4    0    0 -0.23742322683E+02  0.44132255908E+01  0.10597766927E+03  0.10869425389E+03  0.00000000000E+00 0. -1.
         11    1    4    4    0    0  0.41900221718E+02  0.18898442346E+02  0.22008787030E+02  0.50962401922E+02  0.00000000000E+00 0.  1.
         21    1    1    2  502  501  0.53771621310E+01 -0.27361932265E+02  0.28895262612E+02  0.40156262416E+02  0.00000000000E+00 0.  1.
<scales pt_clust_5="13000.00000" pt_clust_6="13000.00000" pt_clust_7="13000.00000" pt_clust_8="13000.00000" pt_clust_9="27.88529"></scales>
<clustering>
<clus scale="   27.885">  1  9  2 -1</clus>
<clus scale="   76.568">  5  6 -1 -1</clus>
<clus scale="   79.759">  2  5  1 -1</clus>
<clus scale="   90.756">  7  8 -1 -1</clus>
<clus scale="   27.885">  1  5  2 -1</clus>
</clustering>
</event>
<event>
 9    1  0.1484717E-005  0.9661061E+02  0.7546771E-02  0.1288218E+00
          1   -1    0    0  502    0  0.00000000000E+00  0.00000000000E+00  0.48711025541E+03  0.48711025541E+03  0.00000000000E+00 0. -1.
         -1   -1    0    0    0  501 -0.00000000000E+00 -0.00000000000E+00 -0.38409858384E+02  0.38409858384E+02  0.00000000000E+00 0.  1.
         23    2    1    2    0    0 -0.38124592734E+02 -0.28131604574E+02  0.23986154791E+03  0.26003461818E+03  0.88541339156E+02 0.  0.
         23    2    1    2    0    0  0.15287384269E+02  0.20334385728E+02  0.21994905728E+03  0.23891913649E+03  0.89763994023E+02 0.  0.
        -11    1    3    3    0    0 -0.65474433748E+02 -0.28197226191E+02  0.19340833695E+03  0.20612804235E+03  0.00000000000E+00 0. -1.
         11    1    3    3    0    0  0.27349841014E+02  0.65621617494E-01  0.46453210956E+02  0.53906575831E+02  0.00000000000E+00 0.  1.
        -11    1    4    4    0    0  0.28248919454E+02 -0.26654161509E+02  0.13995688908E+03  0.14524591759E+03  0.00000000000E+00 0.  1.
         11    1    4    4    0    0 -0.12961535184E+02  0.46988547237E+02  0.79992168197E+02  0.93673218898E+02  0.00000000000E+00 0. -1.
         21    1    1    2  502  501  0.22837208464E+02  0.77972188459E+01 -0.11110208155E+02  0.26566359130E+02  0.00000000000E+00 0. -1.
<scales pt_clust_5="13000.00000" pt_clust_6="13000.00000" pt_clust_7="13000.00000" pt_clust_8="13000.00000" pt_clust_9="24.13161"></scales>
<clustering>
<clus scale="   24.132">  2  9  1 -1</clus>
<clus scale="   88.541">  5  6 -1 -1</clus>
<clus scale="   89.764">  7  8 -1 -1</clus>
<clus scale="   95.476">  2  5  1 -1</clus>
<clus scale="   96.611">  1  5  2 -1</clus>
</clustering>
</event>
<event>
 9    1  0.1484717E-005  0.1030107E+03  0.7546771E-02  0.1275497E+00
          1   -1    0    0  502    0  0.00000000000E+00  0.00000000000E+00  0.12252319250E+03  0.12252319250E+03  0.00000000000E+00 0. -1.
         -1   -1    0    0    0  501 -0.00000000000E+00 -0.00000000000E+00 -0.13467833766E+03  0.13467833766E+03  0.00000000000E+00 0.  1.
         23    2    1    2    0    0  0.21146023283E+02  0.50712316534E+02 -0.44816994794E+02  0.11399392213E+03  0.89258937430E+02 0.  0.
         23    2    1    2    0    0 -0.30709429359E+02 -0.30295700665E+02  0.51171204309E+02  0.11403753518E+03  0.92331840392E+02 0.  0.
        -13    1    3    3    0    0  0.30696940913E+01  0.74228266017E+02 -0.38472304586E+02  0.83662277747E+02  0.00000000000E+00 0. -1.
         13    1    3    3    0    0  0.18076329191E+02 -0.23515949482E+02 -0.63446902078E+01  0.30331644382E+02  0.00000000000E+00 0.  1.
        -13    1    4    4    0    0  0.43079453497E+00 -0.59327248987E+02  0.29033574008E+02  0.66051922576E+02  0.00000000000E+00 0.  1.
         13    1    4    4    0    0 -0.31140223894E+02  0.29031548322E+02  0.22137630301E+02  0.47985612609E+02  0.00000000000E+00 0. -1.
         21    1    1    2  502  501  0.95634060765E+01 -0.20416615869E+02 -0.18509354673E+02  0.29170072844E+02  0.00000000000E+00 0. -1.
<scales pt_clust_5="13000.00000" pt_clust_6="13000.00000" pt_clust_7="13000.00000" pt_clust_8="13000.00000" pt_clust_9="22.54544"></scales>
<clustering>
<clus scale="   22.545">  2  9  1 -1</clus>
<clus scale="   89.259">  5  6 -1 -1</clus>
<clus scale="   92.332">  7  8 -1 -1</clus>
<clus scale="  100.266">  2  5  1 -1</clus>
<clus scale="  103.011">  1  5  2 -1</clus>
</clustering>
</event>
<event>
 9    1  0.1484717E-005  0.1121873E+03  0.7546771E-02  0.1266330E+00
          1   -1    0    0  502    0  0.00000000000E+00  0.00000000000E+00  0.25621092521E+03  0.25621092521E+03  0.00000000000E+00 0. -1.
         -1   -1    0    0    0  501 -0.00000000000E+00 -0.00000000000E+00 -0.12490720022E+03  0.12490720022E+03  0.00000000000E+00 0.  1.
         23    2    1    2    0    0  0.41218760409E+02 -0.38264887595E+02 -0.22550179245E+02  0.12501556500E+03  0.10934895096E+03 0.  0.
         23    2    1    2    0    0  0.12595689116E+02 -0.40166156092E+02  0.11956262123E+03  0.15499214712E+03  0.89192902140E+02 0.  0.
        -11    1    3    3    0    0  0.23393323641E+02  0.37607225757E+02 -0.16329048680E+01  0.44319492308E+02  0.00000000000E+00 0. -1.
         11    1    3    3    0    0  0.17825436767E+02 -0.75872113352E+02 -0.20917274377E+02  0.80696072692E+02  0.00000000000E+00 0.  1.
        -13    1    4    4    0    0  0.47360511351E+02 -0.19942295374E+02  0.94598649735E+02  0.10765508679E+03  0.00000000000E+00 0.  1.
         13    1    4    4    0    0 -0.34764822235E+02 -0.20223860718E+02  0.24963971500E+02  0.47337060327E+02  0.00000000000E+00 0. -1.
         21    1    1    2  502  501 -0.53814449525E+02  0.78431043688E+02  0.34291282996E+02  0.10111041332E+03  0.00000000000E+00 0. -1.
<scales pt_clust_5="13000.00000" pt_clust_6="13000.00000" pt_clust_7="13000.00000" pt_clust_8="13000.00000" pt_clust_9="95.11795"></scales>
<clustering>
<clus scale="   89.193">  7  8 -1 -1</clus>
<clus scale="   95.118">  2  9  1 -1</clus>
<clus scale="   92.651">  1  7  2 -1</clus>
<clus scale="  109.349">  5  6 -1 -1</clus>
<clus scale="   92.651">  1  5  2 -1</clus>
</clustering>
</event>
<event>
 9    1  0.1484717E-005  0.4171754E+03  0.7546771E-02  0.1037999E+00
          2   -1    0    0  502    0  0.00000000000E+00  0.00000000000E+00  0.14504986522E+04  0.14504986522E+04  0.00000000000E+00 0. -1.
         -2   -1    0    0    0  501 -0.00000000000E+00 -0.00000000000E+00 -0.20044400589E+03  0.20044400589E+03  0.00000000000E+00 0.  1.
         23    2    1    2    0    0 -0.28985293596E+03  0.25130393501E+03  0.22275847679E+03  0.45242912319E+03  0.88895333324E+02 0.  0.
         23    2    1    2    0    0  0.28593151844E+03 -0.38269365642E+03  0.81574317046E+03  0.94944866822E+03  0.88343565332E+02 0.  0.
        -11    1    3    3    0    0 -0.52825961175E+02  0.71919677109E+01  0.25048563250E+02  0.58904474316E+02  0.00000000000E+00 0.  1.
         11    1    3    3    0    0 -0.23702697479E+03  0.24411196730E+03  0.19770991354E+03  0.39352464887E+03  0.00000000000E+00 0. -1.
        -11    1    4    4    0    0  0.27752133269E+03 -0.35131598992E+03  0.71505302837E+03  0.84364794094E+03  0.00000000000E+00 0.  1.
         11    1    4    4    0    0  0.84101857516E+01 -0.31377666495E+02  0.10069014209E+03  0.10580072728E+03  0.00000000000E+00 0. -1.
         21    1    1    2  502  501  0.39214175268E+01  0.13138972141E+03  0.21155299904E+03  0.24906486667E+03  0.00000000000E+00 0.  1.
<scales pt_clust_5="13000.00000" pt_clust_6="13000.00000" pt_clust_7="13000.00000" pt_clust_8="13000.00000" pt_clust_9="131.44823"></scales>
<clustering>
<clus scale="   88.344">  7  8 -1 -1</clus>
<clus scale="   88.895">  5  6 -1 -1</clus>
<clus scale="  131.448">  1  9  2 -1</clus>
<clus scale="  417.058">  1  7  2 -1</clus>
<clus scale="  131.448">  1  5  2 -1</clus>
</clustering>
</event>
<event>
 9    1  0.1484717E-005  0.2042325E+03  0.7546771E-02  0.1146671E+00
          2   -1    0    0  502    0  0.00000000000E+00  0.00000000000E+00  0.21349639383E+03  0.21349639383E+03  0.00000000000E+00 0. -1.
         -2   -1    0    0    0  501 -0.00000000000E+00 -0.00000000000E+00 -0.28128185061E+03  0.28128185061E+03  0.00000000000E+00 0.  1.
         23    2    1    2    0    0 -0.64879493586E+02 -0.13769267645E+03 -0.68769414031E+02  0.19060216102E+03  0.91822272049E+02 0.  0.
         23    2    1    2    0    0  0.54896683500E+02  0.19659303801E+03  0.49445281751E+02  0.22725138607E+03  0.86809493298E+02 0.  0.
        -13    1    4    4    0    0  0.15156225917E+02  0.46469291957E+02 -0.25150661133E+02  0.54969646483E+02  0.00000000000E+00 0.  1.
         13    1    4    4    0    0  0.39740457583E+02  0.15012374606E+03  0.74595942884E+02  0.17228173958E+03  0.00000000000E+00 0. -1.
        -13    1    3    3    0    0 -0.60726493842E+02 -0.59617543642E+02 -0.73257263822E+02  0.11228795691E+03  0.00000000000E+00 0.  1.
         13    1    3    3    0    0 -0.41529997437E+01 -0.78075132810E+02  0.44878497914E+01  0.78314204114E+02  0.00000000000E+00 0. -1.
         21    1    1    2  502  501  0.99828100860E+01 -0.58900361561E+02 -0.48461324504E+02  0.76924697347E+02  0.00000000000E+00 0.  1.
<scales pt_clust_5="13000.00000" pt_clust_6="13000.00000" pt_clust_7="13000.00000" pt_clust_8="13000.00000" pt_clust_9="59.74035"></scales>
<clustering>
<clus scale="   59.740">  2  9  1 -1</clus>
<clus scale="   86.809">  5  6 -1 -1</clus>
<clus scale="   91.822">  7  8 -1 -1</clus>
<clus scale="  202.028">  1  5  2 -1</clus>
<clus scale="  202.028">  1  5  2 -1</clus>
</clustering>
</event>
<event>
 9    1  0.1484717E-005  0.2718509E+03  0.7546771E-02  0.1100519E+00
          2   -1    0    0  502    0  0.00000000000E+00  0.00000000000E+00  0.37927947788E+03  0.37927947788E+03  0.00000000000E+00 0. -1.
         -2   -1    0    0    0  501 -0.00000000000E+00 -0.00000000000E+00 -0.27874291374E+03  0.27874291374E+03  0.00000000000E+00 0.  1.
         23    2    1    2    0    0 -0.22330457635E+03  0.55009828668E+01 -0.30212506853E+02  0.24274412174E+03  0.90092832327E+02 0.  0.
         23    2    1    2    0    0  0.26707799409E+03 -0.87660317762E+02  0.12409062933E+03  0.32194765724E+03  0.96108394412E+02 0.  0.
        -11    1    4    4    0    0  0.18228114155E+03 -0.98658648980E+02  0.62224186314E+02  0.21640654552E+03  0.00000000000E+00 0. -1.
         11    1    4    4    0    0  0.84796852546E+02  0.10998331218E+02  0.61866443019E+02  0.10554111172E+03  0.00000000000E+00 0.  1.
        -13    1    3    3    0    0 -0.23615314930E+02  0.31430283117E+02 -0.83969403829E+01  0.40200179152E+02  0.00000000000E+00 0. -1.
         13    1    3    3    0    0 -0.19968926142E+03 -0.25929300250E+02 -0.21815566470E+02  0.20254394259E+03  0.00000000000E+00 0.  1.
         21    1    1    2  502  501 -0.43773417740E+02  0.82159334895E+02  0.66584416584E+01  0.93330612643E+02  0.00000000000E+00 0.  1.
<scales pt_clust_5="13000.00000" pt_clust_6="13000.00000" pt_clust_7="13000.00000" pt_clust_8="13000.00000" pt_clust_9="93.09279"></scales>
<clustering>
<clus scale="   90.093">  7  8 -1 -1</clus>
<clus scale="   93.093">  2  9  1 -1</clus>
<clus scale="   96.108">  5  6 -1 -1</clus>
<clus scale="  269.783">  2  7  1 -1</clus>
<clus scale="  271.851">  1  5  2 -1</clus>
</clustering>
</event>
<event>
 9    1  0.1484717E-005  0.9201267E+02  0.7546771E-02  0.1298308E+00
         -1   -1    0    0    0  501 -0.00000000000E+00  0.00000000000E+00  0.25509151489E+03  0.25509151489E+03  0.00000000000E+00 0.  1.
          1   -1    0    0  502    0  0.00000000000E+00 -0.00000000000E+00 -0.45852379956E+02  0.45852379956E+02  0.00000000000E+00 0. -1.
         23    2    1    2    0    0  0.85074665019E+01 -0.67979333541E+01  0.10711000006E+03  0.14133572053E+03  0.91567706646E+02 0.  0.
         23    2    1    2    0    0  0.20162497064E+02  0.97236401227E+01  0.78309954427E+02  0.12221994183E+03  0.91127327155E+02 0.  0.
        -13    1    4    4    0    0  0.30334476691E+02 -0.35777532720E+02  0.44200601743E+02  0.64450799205E+02  0.00000000000E+00 0. -1.
         13    1    4    4    0    0 -0.10171979627E+02  0.45501172843E+02  0.34109352683E+02  0.57769142629E+02  0.00000000000E+00 0.  1.
        -13    1    3    3    0    0 -0.36094809556E+02  0.14859396234E+02  0.28251290516E+02  0.48184773000E+02  0.00000000000E+00 0.  1.
         13    1    3    3    0    0  0.44602276058E+02 -0.21657329588E+02  0.78858709549E+02  0.93150947532E+02  0.00000000000E+00 0. -1.
         21    1    1    2  502  501 -0.28669963566E+02 -0.29257067686E+01  0.23819180445E+02  0.37388232481E+02  0.00000000000E+00 0.  1.
<scales pt_clust_5="13000.00000" pt_clust_6="13000.00000" pt_clust_7="13000.00000" pt_clust_8="13000.00000" pt_clust_9="28.81886"></scales>
<clustering>
<clus scale="   28.819">  2  9  1 -1</clus>
<clus scale="   91.127">  5  6 -1 -1</clus>
<clus scale="   91.568">  7  8 -1 -1</clus>
<clus scale="   91.574">  2  5  1 -1</clus>
<clus scale="   28.819">  2  5  1 -1</clus>
</clustering>
</event>
<event>
 9    1  0.1484717E-005  0.1144840E+03  0.7546771E-02  0.1252794E+00
         -2   -1    0    0    0  501 -0.00000000000E+00  0.00000000000E+00  0.22257594522E+03  0.22257594522E+03  0.00000000000E+00 0.  1.
          2   -1    0    0  502    0  0.00000000000E+00 -0.00000000000E+00 -0.38887476165E+03  0.38887476165E+03  0.00000000000E+00 0. -1.
         23    2    1    2    0    0 -0.38573146243E+02 -0.96158244017E+02 -0.70012406723E+02  0.15458307050E+03  0.90883953956E+02 0.  0.
         23    2    1    2    0    0  0.16824116458E+01  0.60397331805E+02 -0.26160990909E+03  0.28374447619E+03  0.91763364329E+02 0.  0.
        -11    1    3    3    0    0 -0.29156034682E+02 -0.54115144207E+02  0.11357810625E+02  0.62510183596E+02  0.00000000000E+00 0.  1.
         11    1    3    3    0    0 -0.94171115608E+01 -0.42043099809E+02 -0.81370217348E+02  0.92072886904E+02  0.00000000000E+00 0. -1.
        -13    1    4    4    0    0 -0.97973139134E+01 -0.22952918767E+02 -0.75020678789E+02  0.79062798368E+02  0.00000000000E+00 0. -1.
         13    1    4    4    0    0  0.11479725559E+02  0.83350250573E+02 -0.18658923030E+03  0.20468167782E+03  0.00000000000E+00 0.  1.
         21    1    1    2  502  501  0.36890734597E+02  0.35760912211E+02  0.16532349938E+03  0.17312316018E+03  0.00000000000E+00 0.  1.
<scales pt_clust_5="13000.00000" pt_clust_6="13000.00000" pt_clust_7="13000.00000" pt_clust_8="13000.00000" pt_clust_9="51.37868"></scales>
<clustering>
<clus scale="   51.379">  1  9  2 -1</clus>
<clus scale="   90.884">  5  6 -1 -1</clus>
<clus scale="   91.763">  7  8 -1 -1</clus>
<clus scale="  113.780">  1  5  2 -1</clus>
<clus scale="  114.484">  2  5  1 -1</clus>
</clustering>
</event>
<event>
 9    1  0.1484717E-005  0.1097069E+03  0.7546771E-02  0.1261494E+00
         -1   -1    0    0    0  501 -0.00000000000E+00  0.00000000000E+00  0.97151832330E+02  0.97151832330E+02  0.00000000000E+00 0.  1.
          1   -1    0    0  502    0  0.00000000000E+00 -0.00000000000E+00 -0.30055050249E+03  0.30055050249E+03  0.00000000000E+00 0. -1.
         23    2    1    2    0    0 -0.11960290635E+02 -0.83832097078E+02 -0.14645045205E+03  0.19185688720E+03  0.90501166876E+02 0.  0.
         23    2    1    2    0    0 -0.63278039365E+01  0.42507566006E+02 -0.10177908515E+03  0.14219029928E+03  0.89510696361E+02 0.  0.
        -11    1    4    4    0    0 -0.24077826060E+02  0.61244206337E+02 -0.94892300481E+02  0.11547789056E+03  0.00000000000E+00 0.  1.
         11    1    4    4    0    0  0.17750022123E+02 -0.18736640331E+02 -0.68867846722E+01  0.26712408715E+02  0.00000000000E+00 0. -1.
        -11    1    3    3    0    0 -0.19039436850E+02 -0.42522486948E+02 -0.80896163244E+01  0.47287460749E+02  0.00000000000E+00 0.  1.
         11    1    3    3    0    0  0.70791462157E+01 -0.41309610131E+02 -0.13836083573E+03  0.14456942645E+03  0.00000000000E+00 0. -1.
         21    1    1    2  502  501  0.18288094571E+02  0.41324531072E+02  0.44830867044E+02  0.63655148349E+02  0.00000000000E+00 0.  1.
<scales pt_clust_5="13000.00000" pt_clust_6="13000.00000" pt_clust_7="13000.00000" pt_clust_8="13000.00000" pt_clust_9="45.19039"></scales>
<clustering>
<clus scale="   45.190">  1  9  2 -1</clus>
<clus scale="   89.511">  5  6 -1 -1</clus>
<clus scale="   90.501">  7  8 -1 -1</clus>
<clus scale="  108.891">  2  5  1 -1</clus>
<clus scale="  108.891">  2  5  1 -1</clus>
</clustering>
</event>
<event>
 9    1  0.1484717E-005  0.9635995E+02  0.7546771E-02  0.1289130E+00
         -1   -1    0    0    0  501 -0.00000000000E+00  0.00000000000E+00  0.72368009100E+03  0.72368009100E+03  0.00000000000E+00 0.  1.
          1   -1    0    0  502    0  0.00000000000E+00 -0.00000000000E+00 -0.16974513603E+02  0.16974513603E+02  0.00000000000E+00 0. -1.
         23    2    1    2    0    0  0.35822395099E+02 -0.87541635177E+01  0.28486807261E+03  0.30195243525E+03  0.93089070213E+02 0.  0.
         23    2    1    2    0    0 -0.12909002312E+02  0.31339713829E+01  0.27676383513E+03  0.29172264779E+03  0.91254691297E+02 0.  0.
        -11    1    3    3    0    0  0.59563410906E+02 -0.28045581138E+02  0.15265462193E+03  0.16624616729E+03  0.00000000000E+00 0. -1.
         11    1    3    3    0    0 -0.23741015807E+02  0.19291417621E+02  0.13221345067E+03  0.13570626796E+03  0.00000000000E+00 0.  1.
        -13    1    4    4    0    0 -0.20223330198E+01 -0.41966562217E+02  0.17350151540E+03  0.17851626823E+03  0.00000000000E+00 0. -1.
         13    1    4    4    0    0 -0.10886669293E+02  0.45100533599E+02  0.10326231972E+03  0.11320637957E+03  0.00000000000E+00 0.  1.
         21    1    1    2  502  501 -0.22913392787E+02  0.56201921348E+01  0.14507366966E+03  0.14697952156E+03  0.00000000000E+00 0. -1.
<scales pt_clust_5="13000.00000" pt_clust_6="13000.00000" pt_clust_7="13000.00000" pt_clust_8="13000.00000" pt_clust_9="23.59259"></scales>
<clustering>
<clus scale="   23.593">  1  9  2 -1</clus>
<clus scale="   91.255">  7  8 -1 -1</clus>
<clus scale="   93.089">  5  6 -1 -1</clus>
<clus scale="   94.589">  2  7  1 -1</clus>
<clus scale="   94.589">  2  5  1 -1</clus>
</clustering>
</event>
<event>
 9    1  0.1484717E-005  0.1228575E+03  0.7546771E-02  0.1239141E+00
          3   -1    0    0  502    0  0.00000000000E+00  0.00000000000E+00  0.84363998399E+02  0.84363998399E+02  0.00000000000E+00 0. -1.
         -3   -1    0    0    0  501 -0.00000000000E+00 -0.00000000000E+00 -0.31519864403E+03  0.31519864403E+03  0.00000000000E+00 0.  1.
         23    2    1    2    0    0 -0.37957039951E+02  0.97155165821E+02 -0.10166734073E+03  0.17065629888E+03  0.88923905947E+02 0.  0.
         23    2    1    2    0    0  0.20031520332E+02 -0.68073073278E+02 -0.23613853677E+02  0.11796210789E+03  0.91226310352E+02 0.  0.
        -11    1    4    4    0    0 -0.12060783827E+02 -0.44998126079E+02 -0.51609126968E+02  0.69525504986E+02  0.00000000000E+00 0. -1.
         11    1    4    4    0    0  0.32092304159E+02 -0.23074947199E+02  0.27995273291E+02  0.48436602906E+02  0.00000000000E+00 0.  1.
        -13    1    3    3    0    0 -0.25028542196E+01  0.98944072073E+02 -0.59292427502E+02  0.11537671185E+03  0.00000000000E+00 0. -1.
         13    1    3    3    0    0 -0.35454185732E+02 -0.17889062520E+01 -0.42374913228E+02  0.55279587034E+02  0.00000000000E+00 0.  1.
         21    1    1    2  502  501  0.17925519620E+02 -0.29082092543E+02 -0.10555345122E+03  0.11094423565E+03  0.00000000000E+00 0.  1.
<scales pt_clust_5="13000.00000" pt_clust_6="13000.00000" pt_clust_7="13000.00000" pt_clust_8="13000.00000" pt_clust_9="34.16273"></scales>
<clustering>
<clus scale="   34.163">  2  9  1 -1</clus>
<clus scale="   88.924">  7  8 -1 -1</clus>
<clus scale="   91.226">  5  6 -1 -1</clus>
<clus scale="  121.158">  2  7  1 -1</clus>
<clus scale="  122.858">  1  5  2 -1</clus>
</clustering>
</event>
<event>
 9    1  0.1484717E-005  0.1640233E+03  0.7546771E-02  0.1185012E+00
          1   -1    0    0  502    0  0.00000000000E+00  0.00000000000E+00  0.35503993397E+03  0.35503993397E+03  0.00000000000E+00 0. -1.
         -1   -1    0    0    0  501 -0.00000000000E+00 -0.00000000000E+00 -0.14716975531E+03  0.14716975531E+03  0.00000000000E+00 0.  1.
         23    2    1    2    0    0  0.75102734516E+02  0.10123730848E+03  0.63820255223E+02  0.16469242417E+03  0.84623615165E+02 0.  0.
         23    2    1    2    0    0 -0.21160054586E+02 -0.15047726036E+03  0.18337564384E+03  0.25456608751E+03  0.89922813345E+02 0.  0.
        -11    1    4    4    0    0  0.89329818555E+01 -0.14328212847E+03  0.13451773345E+03  0.19673481420E+03  0.00000000000E+00 0.  1.
         11    1    4    4    0    0 -0.30093036441E+02 -0.71951318871E+01  0.48857910390E+02  0.57831273312E+02  0.00000000000E+00 0. -1.
        -11    1    3    3    0    0  0.67506909471E+02  0.24056616410E+02  0.45872076067E+02  0.85089076749E+02  0.00000000000E+00 0.  1.
         11    1    3    3    0    0  0.75958250456E+01  0.77180692066E+02  0.17948179156E+02  0.79603347422E+02  0.00000000000E+00 0. -1.
         21    1    1    2  502  501 -0.53942679930E+02  0.49239951882E+02 -0.39325720402E+02  0.82951177596E+02  0.00000000000E+00 0. -1.
<scales pt_clust_5="13000.00000" pt_clust_6="13000.00000" pt_clust_7="13000.00000" pt_clust_8="13000.00000" pt_clust_9="73.03688"></scales>
<clustering>
<clus scale="   73.037">  2  9  1 -1</clus>
<clus scale="   84.624">  7  8 -1 -1</clus>
<clus scale="   89.923">  5  6 -1 -1</clus>
<clus scale="  161.179">  2  7  1 -1</clus>
<clus scale="  164.023">  1  5  2 -1</clus>
</clustering>
</event>
<event>
 9    1  0.1484717E-005  0.1794222E+03  0.7546771E-02  0.1168463E+00
          2   -1    0    0  502    0  0.00000000000E+00  0.00000000000E+00  0.29093396024E+03  0.29093396024E+03  0.00000000000E+00 0. -1.
         -2   -1    0    0    0  501 -0.00000000000E+00 -0.00000000000E+00 -0.21438750398E+03  0.21438750398E+03  0.00000000000E+00 0.  1.
         23    2    1    2    0    0 -0.13741082223E+03 -0.68340910383E+02 -0.11370766054E+03  0.21158746706E+03  0.91036311714E+02 0.  0.
         23    2    1    2    0    0  0.12810419100E+03  0.86380830547E+02  0.20191247391E+03  0.27032525104E+03  0.91840963565E+02 0.  0.
        -11    1    3    3    0    0 -0.12015291504E+03 -0.45182638421E+02 -0.12629746374E+03  0.18008121267E+03  0.00000000000E+00 0.  1.
         11    1    3    3    0    0 -0.17257907191E+02 -0.23158271962E+02  0.12589803203E+02  0.31506254388E+02  0.00000000000E+00 0. -1.
        -13    1    4    4    0    0  0.66652249486E+02  0.22031171572E+02  0.15404966494E+03  0.16929026596E+03  0.00000000000E+00 0. -1.
         13    1    4    4    0    0  0.61451941513E+02  0.64349658975E+02  0.47862808978E+02  0.10103498508E+03  0.00000000000E+00 0.  1.
         21    1    1    2  502  501  0.93066312346E+01 -0.18039920164E+02 -0.11658357115E+02  0.23408746124E+02  0.00000000000E+00 0.  1.
<scales pt_clust_5="13000.00000" pt_clust_6="13000.00000" pt_clust_7="13000.00000" pt_clust_8="13000.00000" pt_clust_9="20.29907"></scales>
<clustering>
<clus scale="   20.299">  2  9  1 -1</clus>
<clus scale="   91.036">  5  6 -1 -1</clus>
<clus scale="   91.841">  7  8 -1 -1</clus>
<clus scale="  179.012">  2  5  1 -1</clus>
<clus scale="  179.422">  1  5  2 -1</clus>
</clustering>
</event>
<event>
 9    1  0.1484717E-005  0.1015783E+03  0.7546771E-02  0.1277677E+00
          1   -1    0    0  502    0  0.00000000000E+00  0.00000000000E+00  0.25059371852E+03  0.25059371852E+03  0.00000000000E+00 0. -1.
         -1   -1    0    0    0  501 -0.00000000000E+00 -0.00000000000E+00 -0.96045031875E+02  0.96045031875E+02  0.00000000000E+00 0.  1.
         23    2    1    2    0    0  0.61984486197E+01 -0.24157975591E+02  0.12852773541E+02  0.97183547092E+02  0.93045255052E+02 0.  0.
         23    2    1    2    0    0 -0.25654626774E+02  0.33382223015E+02  0.17880933143E+03  0.20654791455E+03  0.94428445448E+02 0.  0.
        -11    1    3    3    0    0  0.25429361629E+02  0.54370480313E+01 -0.31277416757E+02  0.40675431444E+02  0.00000000000E+00 0.  1.
         11    1    3    3    0    0 -0.19230913010E+02 -0.29595023623E+02  0.44130190297E+02  0.56508115648E+02  0.00000000000E+00 0. -1.
        -13    1    4    4    0    0 -0.61211956912E+02  0.20822752567E+02  0.12645987379E+03  0.14203024457E+03  0.00000000000E+00 0. -1.
         13    1    4    4    0    0  0.35557330138E+02  0.12559470448E+02  0.52349457642E+02  0.64517669982E+02  0.00000000000E+00 0.  1.
         21    1    1    2  502  501  0.19456178155E+02 -0.92242474237E+01 -0.37113418322E+02  0.42907288757E+02  0.00000000000E+00 0. -1.
<scales pt_clust_5="13000.00000" pt_clust_6="13000.00000" pt_clust_7="13000.00000" pt_clust_8="13000.00000" pt_clust_9="21.53206"></scales>
<clustering>
<clus scale="   21.532">  2  9  1 -1</clus>
<clus scale="   93.045">  5  6 -1 -1</clus>
<clus scale="   94.428">  7  8 -1 -1</clus>
<clus scale="  100.294">  2  5  1 -1</clus>
<clus scale="  101.578">  1  5  2 -1</clus>
</clustering>
</event>
<event>
 9    1  0.1484717E-005  0.1022730E+03  0.7546771E-02  0.1279716E+00
         -3   -1    0    0    0  501 -0.00000000000E+00  0.00000000000E+00  0.60528361846E+02  0.60528361846E+02  0.00000000000E+00 0.  1.
          3   -1    0    0  502    0  0.00000000000E+00 -0.00000000000E+00 -0.66065665851E+03  0.66065665851E+03  0.00000000000E+00 0. -1.
         23    2    1    2    0    0  0.24752543387E+01 -0.67899672165E+02 -0.31390297118E+03  0.33511678367E+03  0.95664471037E+02 0.  0.
         23    2    1    2    0    0 -0.28502662047E+02  0.75631568239E+01 -0.30427124592E+03  0.31792444548E+03  0.87323300757E+02 0.  0.
        -13    1    4    4    0    0 -0.53854977084E+02  0.69558198201E+01 -0.26933408482E+03  0.27475369193E+03  0.00000000000E+00 0. -1.
         13    1    4    4    0    0  0.25352315037E+02  0.60733700382E+00 -0.34937161107E+02  0.43170753551E+02  0.00000000000E+00 0.  1.
        -13    1    3    3    0    0  0.42338952094E+02 -0.17362047015E+02 -0.76494130426E+02  0.89136858429E+02  0.00000000000E+00 0.  1.
         13    1    3    3    0    0 -0.39863697755E+02 -0.50537625150E+02 -0.23740884075E+03  0.24597992524E+03  0.00000000000E+00 0. -1.
         21    1    1    2  502  501  0.26027407709E+02  0.60336515342E+02  0.18045920435E+02  0.68143791206E+02  0.00000000000E+00 0.  1.
<scales pt_clust_5="13000.00000" pt_clust_6="13000.00000" pt_clust_7="13000.00000" pt_clust_8="13000.00000" pt_clust_9="65.71089"></scales>
<clustering>
<clus scale="   65.711">  1  9  2 -1</clus>
<clus scale="   87.323">  5  6 -1 -1</clus>
<clus scale="   94.517">  2  5  1 -1</clus>
<clus scale="   95.664">  7  8 -1 -1</clus>
<clus scale="   94.517">  2  5  1 -1</clus>
</clustering>
</event>
<event>
 9    1  0.1484717E-005  0.1579022E+03  0.7546771E-02  0.1191831E+00
         -2   -1    0    0    0  501 -0.00000000000E+00  0.00000000000E+00  0.92373284631E+02  0.92373284631E+02  0.00000000000E+00 0.  1.
          2   -1    0    0  502    0  0.00000000000E+00 -0.00000000000E+00 -0.62345879232E+03  0.62345879232E+03  0.00000000000E+00 0. -1.
         23    2    1    2    0    0 -0.10494753221E+03  0.76807153664E+02 -0.57829954569E+02  0.16612094599E+03  0.85665288663E+02 0.  0.
         23    2    1    2    0    0  0.81578908243E+02 -0.10160226723E+03 -0.48762094336E+03  0.51273472390E+03  0.90247291962E+02 0.  0.
        -11    1    4    4    0    0  0.31139544877E+02  0.11037370881E+02 -0.14031506833E+03  0.14415204893E+03  0.00000000000E+00 0.  1.
         11    1    4    4    0    0  0.50439363366E+02 -0.11263963811E+03 -0.34730587503E+03  0.36858267496E+03  0.00000000000E+00 0. -1.
        -13    1    3    3    0    0 -0.15069219671E+02 -0.15108603020E+02 -0.26089237960E+02  0.33704593219E+02  0.00000000000E+00 0. -1.
         13    1    3    3    0    0 -0.89878312536E+02  0.91915756684E+02 -0.31740716609E+02  0.13241635277E+03  0.00000000000E+00 0.  1.
         21    1    1    2  502  501  0.23368623964E+02  0.24795113569E+02  0.14365390238E+02  0.36976407067E+02  0.00000000000E+00 0.  1.
<scales pt_clust_5="13000.00000" pt_clust_6="13000.00000" pt_clust_7="13000.00000" pt_clust_8="13000.00000" pt_clust_9="34.07184"></scales>
<clustering>
<clus scale="   34.072">  1  9  2 -1</clus>
<clus scale="   85.665">  7  8 -1 -1</clus>
<clus scale="   90.247">  5  6 -1 -1</clus>
<clus scale="  155.329">  1  7  2 -1</clus>
<clus scale="  157.902">  2  5  1 -1</clus>
</clustering>
</event>
<event>
 9    1  0.1702056E-005  0.1414419E+03  0.7546771E-02  0.1212949E+00
         -2   -1    0    0    0  501 -0.00000000000E+00  0.00000000000E+00  0.14345061286E+03  0.14345061286E+03  0.00000000000E+00 0.  1.
          2   -1    0    0  502    0  0.00000000000E+00 -0.00000000000E+00 -0.50517478449E+03  0.50517478449E+03  0.00000000000E+00 0. -1.
         23    2    1    2    0    0  0.56177953851E+01 -0.12875090791E+03  0.65413132430E+02  0.16923944827E+03  0.88061098356E+02 0.  0.
         23    2    1    2    0    0  0.19586863760E+02  0.10084862209E+03 -0.41784176455E+03  0.44065328261E+03  0.95023604745E+02 0.  0.
        -11    1    4    4    0    0  0.49838416481E+02  0.74546391709E+02 -0.20040658743E+03  0.21955371224E+03  0.00000000000E+00 0.  1.
         11    1    4    4    0    0 -0.30251552721E+02  0.26302230381E+02 -0.21743517713E+03  0.22109957037E+03  0.00000000000E+00 0. -1.
        -11    1    3    3    0    0 -0.34860125214E+02 -0.73635544984E+02  0.11746934535E+02  0.82312892586E+02  0.00000000000E+00 0. -1.
         11    1    3    3    0    0  0.40477920599E+02 -0.55115362931E+02  0.53666197895E+02  0.86926555687E+02  0.00000000000E+00 0.  1.
         21    1    1    2  502  501 -0.25204659145E+02  0.27902285824E+02 -0.92955395112E+01  0.38732666467E+02  0.00000000000E+00 0. -1.
<scales pt_clust_5="13000.00000" pt_clust_6="13000.00000" pt_clust_7="13000.00000" pt_clust_8="13000.00000" pt_clust_9="37.60070"></scales>
<clustering>
<clus scale="   37.601">  1  9  2 -1</clus>
<clus scale="   88.061">  7  8 -1 -1</clus>
<clus scale="   95.024">  5  6 -1 -1</clus>
<clus scale="  136.862">  1  7  2 -1</clus>
<clus scale="  141.442">  2  5  1 -1</clus>
</clustering>
</event>
<event>
 9    1  0.1484717E-005  0.3617186E+03  0.7546771E-02  0.1057935E+00
          1   -1    0    0  502    0  0.00000000000E+00  0.00000000000E+00  0.28313572534E+04  0.28313572534E+04  0.00000000000E+00 0. -1.
         -1   -1    0    0    0  501 -0.00000000000E+00 -0.00000000000E+00 -0.55173323810E+02  0.55173323810E+02  0.00000000000E+00 0.  1.
         23    2    1    2    0    0 -0.31239844614E+03  0.91228270642E+02  0.10460993772E+04  0.10992969170E+04  0.90633427462E+02 0.  0.
         23    2    1    2    0    0  0.36726276974E+03 -0.62019092517E+02  0.15483394743E+04  0.15951541364E+04  0.91832897892E+02 0.  0.
        -11    1    3    3    0    0 -0.24549257167E+03  0.34099960064E+02  0.82176646116E+03  0.85832949775E+03  0.00000000000E+00 0.  1.
         11    1    3    3    0    0 -0.66905874478E+02  0.57128310578E+02  0.22433291607E+03  0.24096741925E+03  0.00000000000E+00 0. -1.
        -13    1    4    4    0    0  0.12561662138E+03  0.20562444682E+02  0.56951063142E+03  0.58356208667E+03  0.00000000000E+00 0.  1.
         13    1    4    4    0    0  0.24164614836E+03 -0.82581537198E+02  0.97882884291E+03  0.10115920497E+04  0.00000000000E+00 0. -1.
         21    1    1    2  502  501 -0.54864323595E+02 -0.29209178125E+02  0.18174507805E+03  0.19207952386E+03  0.00000000000E+00 0.  1.
<scales pt_clust_5="13000.00000" pt_clust_6="13000.00000" pt_clust_7="13000.00000" pt_clust_8="13000.00000" pt_clust_9="62.15521"></scales>
<clustering>
<clus scale="   62.155">  2  9  1 -1</clus>
<clus scale="   90.633">  5  6 -1 -1</clus>
<clus scale="   91.833">  7  8 -1 -1</clus>
<clus scale="  361.416">  2  5  1 -1</clus>
<clus scale="  361.719">  1  5  2 -1</clus>
</clustering>
</event>
<event>
 9    1  0.1484717E-005  0.1508995E+03  0.7546771E-02  0.1200444E+00
         -3   -1    0    0    0  501 -0.00000000000E+00  0.00000000000E+00  0.20130767156E+03  0.20130767156E+03  0.00000000000E+00 0.  1.
          3   -1    0    0  502    0  0.00000000000E+00 -0.00000000000E+00 -0.13325588911E+03  0.13325588911E+03  0.00000000000E+00 0. -1.
         23    2    1    2    0    0  0.10314287015E+03  0.21367108412E+02  0.60767519975E+02  0.15509648337E+03  0.96266415150E+02 0.  0.
         23    2    1    2    0    0 -0.11769432637E+03 -0.39205028945E+02 -0.41883560692E+01  0.15374632181E+03  0.90727065363E+02 0.  0.
        -13    1    4    4    0    0 -0.60044957297E+02 -0.10570190201E+02  0.42420844213E+02  0.74274180180E+02  0.00000000000E+00 0.  1.
         13    1    4    4    0    0 -0.57649369069E+02 -0.28634838744E+02 -0.46609200282E+02  0.79472141628E+02  0.00000000000E+00 0. -1.
        -13    1    3    3    0    0  0.31932724484E+02  0.47579928386E+02  0.54294420298E+02  0.78939423317E+02  0.00000000000E+00 0.  1.
         13    1    3    3    0    0  0.71210145665E+02 -0.26212819975E+02  0.64730996771E+01  0.76157060054E+02  0.00000000000E+00 0. -1.
         21    1    1    2  502  501  0.14551456217E+02  0.17837920534E+02  0.11472618543E+02  0.25720755495E+02  0.00000000000E+00 0.  1.
<scales pt_clust_5="13000.00000" pt_clust_6="13000.00000" pt_clust_7="13000.00000" pt_clust_8="13000.00000" pt_clust_9="23.02035"></scales>
<clustering>
<clus scale="   23.020">  1  9  2 -1</clus>
<clus scale="   90.727">  5  6 -1 -1</clus>
<clus scale="   96.266">  7  8 -1 -1</clus>
<clus scale="  147.427">  2  5  1 -1</clus>
<clus scale="  147.427">  2  5  1 -1</clus>
</clustering>
</event>
<event>
 9    1  0.1484717E-005  0.1222898E+03  0.7546771E-02  0.1239916E+00
          1   -1    0    0  502    0  0.00000000000E+00  0.00000000000E+00  0.14228033681E+03  0.14228033681E+03  0.00000000000E+00 0. -1.
         -1   -1    0    0    0  501 -0.00000000000E+00 -0.00000000000E+00 -0.19730690091E+03  0.19730690091E+03  0.00000000000E+00 0.  1.
         23    2    1    2    0    0 -0.60853075657E+02  0.67109920254E+02  0.30713798229E+01  0.12788332349E+03  0.90210159296E+02 0.  0.
         23    2    1    2    0    0  0.74354247903E+02 -0.29777354117E+02  0.22957048928E+02  0.12144919683E+03  0.88360830207E+02 0.  0.
        -11    1    4    4    0    0  0.14406070661E+02 -0.52996588883E+02  0.12369171161E+02  0.56295379032E+02  0.00000000000E+00 0.  1.
         11    1    4    4    0    0  0.59948177241E+02  0.23219234765E+02  0.10587877766E+02  0.65153817795E+02  0.00000000000E+00 0. -1.
        -13    1    3    3    0    0 -0.38186568937E+02 -0.16083518670E+02 -0.22226218835E+01  0.41494983649E+02  0.00000000000E+00 0.  1.
         13    1    3    3    0    0 -0.22666506720E+02  0.83193438924E+02  0.52940017064E+01  0.86388339844E+02  0.00000000000E+00 0. -1.
         21    1    1    2  502  501 -0.13501172246E+02 -0.37332566136E+02 -0.81054992855E+02  0.90254717401E+02  0.00000000000E+00 0.  1.
<scales pt_clust_5="13000.00000" pt_clust_6="13000.00000" pt_clust_7="13000.00000" pt_clust_8="13000.00000" pt_clust_9="39.69889"></scales>
<clustering>
<clus scale="   39.699">  2  9  1 -1</clus>
<clus scale="   88.361">  5  6 -1 -1</clus>
<clus scale="   90.210">  7  8 -1 -1</clus>
<clus scale="  120.932">  1  5  2 -1</clus>
<clus scale="  120.932">  1  5  2 -1</clus>
</clustering>
</event>
<event>
 9    1  0.1484717E-005  0.1033879E+03  0.7546771E-02  0.1274221E+00
         -1   -1    0    0    0  501 -0.00000000000E+00  0.00000000000E+00  0.49406304396E+02  0.49406304396E+02  0.00000000000E+00 0.  1.
          1   -1    0    0  502    0  0.00000000000E+00 -0.00000000000E+00 -0.35068679467E+03  0.35068679467E+03  0.00000000000E+00 0. -1.
         23    2    1    2    0    0 -0.49266151035E+02 -0.33494879736E+02 -0.75009566720E+02  0.13138113462E+03  0.89919446322E+02 0.  0.
         23    2    1    2    0    0  0.41786770601E+02  0.11673031826E+02 -0.22344571663E+03  0.24547156919E+03  0.91901627464E+02 0.  0.
        -11    1    4    4    0    0  0.39464212424E+02  0.44948382266E+02 -0.18571771662E+03  0.19511240708E+03  0.00000000000E+00 0. -1.
         11    1    4    4    0    0  0.23225581771E+01 -0.33275350440E+02 -0.37728000008E+02  0.50359162106E+02  0.00000000000E+00 0.  1.
        -13    1    3    3    0    0 -0.48409168739E+02  0.64657273302E+00 -0.83199930268E+02  0.96260553037E+02  0.00000000000E+00 0. -1.
         13    1    3    3    0    0 -0.85698229575E+00 -0.34141452469E+02  0.81903635482E+01  0.35120581578E+02  0.00000000000E+00 0.  1.
         21    1    1    2  502  501  0.74793804341E+01  0.21821847910E+02 -0.28252069273E+01  0.23240395265E+02  0.00000000000E+00 0.  1.
<scales pt_clust_5="13000.00000" pt_clust_6="13000.00000" pt_clust_7="13000.00000" pt_clust_8="13000.00000" pt_clust_9="23.06803"></scales>
<clustering>
<clus scale="   23.068">  1  9  2 -1</clus>
<clus scale="   89.919">  7  8 -1 -1</clus>
<clus scale="   91.902">  5  6 -1 -1</clus>
<clus scale="  101.630">  1  7  2 -1</clus>
<clus scale="  103.388">  2  5  1 -1</clus>
</clustering>
</event>
<event>
 9    1  0.1484717E-005  0.9935119E+02  0.7546771E-02  0.1283680E+00
          1   -1    0    0  502    0  0.00000000000E+00  0.00000000000E+00  0.23150184978E+03  0.23150184978E+03  0.00000000000E+00 0. -1.
         -1   -1    0    0    0  501 -0.00000000000E+00 -0.00000000000E+00 -0.58687460850E+02  0.58687460850E+02  0.00000000000E+00 0.  1.
         23    2    1    2    0    0  0.82749074421E+00  0.21304342698E+02  0.48669808302E+02  0.10696684554E+03  0.92836393967E+02 0.  0.
         23    2    1    2    0    0  0.20800999926E+02 -0.40680825123E+02  0.11594366826E+03  0.15304806131E+03  0.88843478843E+02 0.  0.
        -11    1    3    3    0    0  0.43362940103E+02 -0.50304531103E+01  0.32386734828E+02  0.54355778218E+02  0.00000000000E+00 0. -1.
         11    1    3    3    0    0 -0.42535449359E+02  0.26334795808E+02  0.16283073474E+02  0.52611067317E+02  0.00000000000E+00 0.  1.
        -11    1    4    4    0    0  0.78428815428E+01 -0.23156560362E+02 -0.91239205771E+01  0.26095651082E+02  0.00000000000E+00 0.  1.
         11    1    4    4    0    0  0.12958118383E+02 -0.17524264761E+02  0.12506758883E+03  0.12695241023E+03  0.00000000000E+00 0. -1.
         21    1    1    2  502  501 -0.21628490670E+02  0.19376482425E+02  0.82009123728E+01  0.30174403781E+02  0.00000000000E+00 0.  1.
<scales pt_clust_5="13000.00000" pt_clust_6="13000.00000" pt_clust_7="13000.00000" pt_clust_8="13000.00000" pt_clust_9="29.03859"></scales>
<clustering>
<clus scale="   29.039">  2  9  1 -1</clus>
<clus scale="   88.843">  7  8 -1 -1</clus>
<clus scale="   92.836">  5  6 -1 -1</clus>
<clus scale="   95.631">  1  7  2 -1</clus>
<clus scale="   95.631">  1  5  2 -1</clus>
</clustering>
</event>
<event>
 9    1  0.1484717E-005  0.1164384E+03  0.7546771E-02  0.1254270E+00
         -1   -1    0    0    0  501 -0.00000000000E+00  0.00000000000E+00  0.18048753780E+03  0.18048753780E+03  0.00000000000E+00 0.  1.
          1   -1    0    0  502    0  0.00000000000E+00 -0.00000000000E+00 -0.20877053597E+03  0.20877053597E+03  0.00000000000E+00 0. -1.
         23    2    1    2    0    0  0.38377536082E+01  0.40095450479E+02  0.10854592081E+03  0.15489212313E+03  0.10289304827E+03 0.  0.
         23    2    1    2    0    0  0.10829551170E+02 -0.55300689142E+02 -0.16684184184E+03  0.19766302636E+03  0.89772080317E+02 0.  0.
        -11    1    4    4    0    0  0.33577805116E+02 -0.61738392464E+02 -0.74810586417E+02  0.10264366488E+03  0.00000000000E+00 0.  1.
         11    1    4    4    0    0 -0.22748253945E+02  0.64377033220E+01 -0.92031255419E+02  0.95019361478E+02  0.00000000000E+00 0. -1.
        -11    1    3    3    0    0  0.32816334977E+02 -0.15331613210E+02  0.76440532003E+02  0.84587972773E+02  0.00000000000E+00 0. -1.
         11    1    3    3    0    0 -0.28978581368E+02  0.55427063689E+02  0.32105388807E+02  0.70304150359E+02  0.00000000000E+00 0.  1.
         21    1    1    2  502  501 -0.14667304779E+02  0.15205238663E+02  0.30012922854E+02  0.36702924278E+02  0.00000000000E+00 0.  1.
<scales pt_clust_5="13000.00000" pt_clust_6="13000.00000" pt_clust_7="13000.00000" pt_clust_8="13000.00000" pt_clust_9="21.12650"></scales>
<clustering>
<clus scale="   21.127">  1  9  2 -1</clus>
<clus scale="   89.772">  5  6 -1 -1</clus>
<clus scale="  102.893">  7  8 -1 -1</clus>
<clus scale="  105.024">  2  5  1 -1</clus>
<clus scale="  105.024">  2  5  1 -1</clus>
</clustering>
</event>
<event>
 9    1  0.1484717E-005  0.1194740E+03  0.7546771E-02  0.1244880E+00
         -2   -1    0    0    0  501 -0.00000000000E+00  0.00000000000E+00  0.45262715735E+02  0.45262715735E+02  0.00000000000E+00 0.  1.
          2   -1    0    0  502    0  0.00000000000E+00 -0.00000000000E+00 -0.79088242728E+03  0.79088242728E+03  0.00000000000E+00 0. -1.
         23    2    1    2    0    0 -0.41631849715E+02 -0.74860831053E+02 -0.38826385392E+03  0.40857794146E+03  0.94073157992E+02 0.  0.
         23    2    1    2    0    0  0.16648699066E+02  0.62877425010E+02 -0.37718881816E+03  0.39349219370E+03  0.91290482541E+02 0.  0.
        -11    1    3    3    0    0  0.96497152369E+01 -0.65322878540E+02 -0.28895637502E+03  0.29640509802E+03  0.00000000000E+00 0. -1.
         11    1    3    3    0    0 -0.51281564952E+02 -0.95379525124E+01 -0.99307478897E+02  0.11217284345E+03  0.00000000000E+00 0.  1.
        -11    1    4    4    0    0  0.46988572531E+02  0.65964632505E+02 -0.25483886735E+03  0.26739877899E+03  0.00000000000E+00 0.  1.
         11    1    4    4    0    0 -0.30339873464E+02 -0.30872074945E+01 -0.12234995080E+03  0.12609341471E+03  0.00000000000E+00 0. -1.
         21    1    1    2  502  501  0.24983150649E+02  0.11983406043E+02  0.19832960530E+02  0.34075007852E+02  0.00000000000E+00 0. -1.
<scales pt_clust_5="13000.00000" pt_clust_6="13000.00000" pt_clust_7="13000.00000" pt_clust_8="13000.00000" pt_clust_9="27.70848"></scales>
<clustering>
<clus scale="   27.708">  1  9  2 -1</clus>
<clus scale="   91.290">  7  8 -1 -1</clus>
<clus scale="   94.073">  5  6 -1 -1</clus>
<clus scale="  117.295">  2  7  1 -1</clus>
<clus scale="  117.295">  2  5  1 -1</clus>
</clustering>
</event>
<event>
 9    1  0.1484717E-005  0.2188153E+03  0.7546771E-02  0.1134773E+00
          1   -1    0    0  502    0  0.00000000000E+00  0.00000000000E+00  0.26823513657E+03  0.26823513657E+03  0.00000000000E+00 0. -1.
         -1   -1    0    0    0  501 -0.00000000000E+00 -0.00000000000E+00 -0.45832842063E+03  0.45832842063E+03  0.00000000000E+00 0.  1.
         23    2    1    2    0    0 -0.17504843561E+03 -0.40398971901E+02 -0.30684175923E+03  0.36698765105E+03  0.90851742268E+02 0.  0.
         23    2    1    2    0    0  0.19490228482E+03  0.53368869731E+02  0.18417586171E+03  0.28809971408E+03  0.90805067792E+02 0.  0.
        -11    1    4    4    0    0  0.13160404132E+03 -0.88668486087E+01  0.12245720673E+03  0.17998336639E+03  0.00000000000E+00 0.  1.
         11    1    4    4    0    0  0.63298243495E+02  0.62235718340E+02  0.61718654974E+02  0.10811634769E+03  0.00000000000E+00 0. -1.
        -13    1    3    3    0    0 -0.10276432419E+03  0.16112592218E+01 -0.97908712614E+02  0.14194794288E+03  0.00000000000E+00 0. -1.
         13    1    3    3    0    0 -0.72284111418E+02 -0.42010231123E+02 -0.20893304662E+03  0.22503970817E+03  0.00000000000E+00 0.  1.
         21    1    1    2  502  501 -0.19853849210E+02 -0.12969897830E+02 -0.67427386534E+02  0.71476192071E+02  0.00000000000E+00 0.  1.
<scales pt_clust_5="13000.00000" pt_clust_6="13000.00000" pt_clust_7="13000.00000" pt_clust_8="13000.00000" pt_clust_9="23.71484"></scales>
<clustering>
<clus scale="   23.715">  2  9  1 -1</clus>
<clus scale="   90.805">  5  6 -1 -1</clus>
<clus scale="   90.852">  7  8 -1 -1</clus>
<clus scale="  218.796">  1  5  2 -1</clus>
<clus scale="  218.796">  1  5  2 -1</clus>
</clustering>
</event>
<event>
 9    1  0.1484717E-005  0.1063068E+03  0.7546771E-02  0.1268788E+00
         -2   -1    0    0    0  501 -0.00000000000E+00  0.00000000000E+00  0.16766834727E+03  0.16766834727E+03  0.00000000000E+00 0.  1.
          2   -1    0    0  502    0  0.00000000000E+00 -0.00000000000E+00 -0.46878858389E+03  0.46878858389E+03  0.00000000000E+00 0. -1.
         23    2    1    2    0    0  0.14788227906E+02  0.49913620120E+02  0.70015463807E+02  0.12433552500E+03  0.88583838522E+02 0.  0.
         23    2    1    2    0    0  0.59474567376E+01 -0.54203564820E+02 -0.43343129850E+03  0.44632540490E+03  0.91489222632E+02 0.  0.
        -11    1    4    4    0    0  0.28941222068E+02 -0.62196759326E+02 -0.39442403744E+03  0.40034529161E+03  0.00000000000E+00 0. -1.
         11    1    4    4    0    0 -0.22993765330E+02  0.79931945055E+01 -0.39007261058E+02  0.45980113285E+02  0.00000000000E+00 0.  1.
        -13    1    3    3    0    0 -0.22070476491E+02  0.45288819678E+02  0.71137723379E+02  0.87170859855E+02  0.00000000000E+00 0.  1.
         13    1    3    3    0    0  0.36858704396E+02  0.46248004421E+01 -0.11222595721E+01  0.37164665147E+02  0.00000000000E+00 0. -1.
         21    1    1    2  502  501 -0.20735684643E+02  0.42899446999E+01  0.62295598070E+02  0.65796001262E+02  0.00000000000E+00 0.  1.
<scales pt_clust_5="13000.00000" pt_clust_6="13000.00000" pt_clust_7="13000.00000" pt_clust_8="13000.00000" pt_clust_9="21.17480"></scales>
<clustering>
<clus scale="   21.175">  1  9  2 -1</clus>
<clus scale="   88.584">  7  8 -1 -1</clus>
<clus scale="   91.489">  5  6 -1 -1</clus>
<clus scale="  103.817">  1  7  2 -1</clus>
<clus scale="  106.307">  2  5  1 -1</clus>
</clustering>
</event>
<event>
 9    1  0.1484717E-005  0.9320586E+02  0.7546771E-02  0.1295513E+00
          1   -1    0    0  502    0  0.00000000000E+00  0.00000000000E+00  0.24123261696E+02  0.24123261696E+02  0.00000000000E+00 0. -1.
         -1   -1    0    0    0  501 -0.00000000000E+00 -0.00000000000E+00 -0.60469456215E+03  0.60469456215E+03  0.00000000000E+00 0.  1.
         23    2    1    2    0    0  0.13454509589E+02  0.13820935119E+02 -0.25055149873E+03  0.26766943139E+03  0.92189093221E+02 0.  0.
         23    2    1    2    0    0  0.67700073157E+01  0.29980547752E+02 -0.20186487488E+03  0.22421305640E+03  0.92614257587E+02 0.  0.
        -13    1    4    4    0    0  0.47505936979E+02  0.13594020686E+01 -0.90265113870E+02  0.10201202284E+03  0.00000000000E+00 0.  1.
         13    1    4    4    0    0 -0.40735929664E+02  0.28621145684E+02 -0.11159976101E+03  0.12220103356E+03  0.00000000000E+00 0. -1.
        -13    1    3    3    0    0  0.33181483979E+02  0.42576622050E+02 -0.19272817805E+03  0.20014477320E+03  0.00000000000E+00 0.  1.
         13    1    3    3    0    0 -0.19726974390E+02 -0.28755686931E+02 -0.57823320687E+02  0.67524658198E+02  0.00000000000E+00 0. -1.
         21    1    1    2  502  501 -0.20224516905E+02 -0.43801482871E+02 -0.12815492684E+03  0.13693533605E+03  0.00000000000E+00 0. -1.
<scales pt_clust_5="13000.00000" pt_clust_6="13000.00000" pt_clust_7="13000.00000" pt_clust_8="13000.00000" pt_clust_9="48.24522"></scales>
<clustering>
<clus scale="   48.245">  2  9  1 -1</clus>
<clus scale="   92.189">  7  8 -1 -1</clus>
<clus scale="   92.614">  5  6 -1 -1</clus>
<clus scale="   92.783">  2  7  1 -1</clus>
<clus scale="   93.206">  1  5  2 -1</clus>
</clustering>
</event>
<event>
 9    1  0.1484717E-005  0.1008291E+03  0.7546771E-02  0.1278982E+00
          2   -1    0    0  502    0  0.00000000000E+00  0.00000000000E+00  0.78613051664E+03  0.78613051664E+03  0.00000000000E+00 0. -1.
         -2   -1    0    0    0  501 -0.00000000000E+00 -0.00000000000E+00 -0.20785844618E+02  0.20785844618E+02  0.00000000000E+00 0.  1.
         23    2    1    2    0    0  0.44460259566E+01  0.60619168804E+02  0.32577430696E+03  0.34331548661E+03  0.89678166221E+02 0.  0.
         23    2    1    2    0    0  0.31966395219E+02 -0.28640304015E+02  0.30728884634E+03  0.32272180451E+03  0.88773929625E+02 0.  0.
        -11    1    3    3    0    0  0.37201896691E+02  0.35611873993E+02  0.87717461568E+02  0.10171794213E+03  0.00000000000E+00 0.  1.
         11    1    3    3    0    0 -0.32755870734E+02  0.25007294811E+02  0.23805684539E+03  0.24159754448E+03  0.00000000000E+00 0. -1.
        -13    1    4    4    0    0 -0.19745615325E+02  0.18795207616E+02  0.65249543387E+02  0.70715288772E+02  0.00000000000E+00 0. -1.
         13    1    4    4    0    0  0.51712010544E+02 -0.47435511631E+02  0.24203930295E+03  0.25200651574E+03  0.00000000000E+00 0.  1.
         21    1    1    2  502  501 -0.36412421176E+02 -0.31978864789E+02  0.13228151872E+03  0.14087907014E+03  0.00000000000E+00 0.  1.
<scales pt_clust_5="13000.00000" pt_clust_6="13000.00000" pt_clust_7="13000.00000" pt_clust_8="13000.00000" pt_clust_9="48.46145"></scales>
<clustering>
<clus scale="   48.461">  2  9  1 -1</clus>
<clus scale="   88.774">  7  8 -1 -1</clus>
<clus scale="   89.678">  5  6 -1 -1</clus>
<clus scale="  100.026">  1  7  2 -1</clus>
<clus scale="  100.026">  1  5  2 -1</clus>
</clustering>
</event>
<event>
 9    1  0.1484717E-005  0.1871465E+03  0.7546771E-02  0.1161147E+00
          2   -1    0    0  502    0  0.00000000000E+00  0.00000000000E+00  0.39717598882E+03  0.39717598882E+03  0.00000000000E+00 0. -1.
         -2   -1    0    0    0  501 -0.00000000000E+00 -0.00000000000E+00 -0.18455338673E+03  0.18455338673E+03  0.00000000000E+00 0.  1.
         23    2    1    2    0    0  0.14512303598E+03  0.26103992592E+02 -0.15555195406E+01  0.17497794310E+03  0.94195259588E+02 0.  0.
         23    2    1    2    0    0 -0.16548150933E+03 -0.14174352011E+02  0.27870475527E+03  0.33804575429E+03  0.94939713525E+02 0.  0.
        -11    1    3    3    0    0  0.76418671721E+02 -0.26014182329E+02 -0.26909867051E+02  0.85092255902E+02  0.00000000000E+00 0.  1.
         11    1    3    3    0    0  0.68704364263E+02  0.52118174920E+02  0.25354347510E+02  0.89885687200E+02  0.00000000000E+00 0. -1.
        -13    1    4    4    0    0 -0.12776555165E+03 -0.41050530088E+02  0.15003432480E+03  0.20129451266E+03  0.00000000000E+00 0.  1.
         13    1    4    4    0    0 -0.37715957671E+02  0.26876178077E+02  0.12867043047E+03  0.13675124163E+03  0.00000000000E+00 0. -1.
         21    1    1    2  502  501  0.20358473343E+02 -0.11929640581E+02 -0.64526633641E+02  0.68705678152E+02  0.00000000000E+00 0.  1.
<scales pt_clust_5="13000.00000" pt_clust_6="13000.00000" pt_clust_7="13000.00000" pt_clust_8="13000.00000" pt_clust_9="23.59627"></scales>
<clustering>
<clus scale="   23.596">  2  9  1 -1</clus>
<clus scale="   94.195">  5  6 -1 -1</clus>
<clus scale="   94.940">  7  8 -1 -1</clus>
<clus scale="  186.770">  2  5  1 -1</clus>
<clus scale="  187.146">  1  5  2 -1</clus>
</clustering>
</event>
<event>
 9    1  0.1484717E-005  0.1073368E+03  0.7546771E-02  0.1265763E+00
          3   -1    0    0  502    0  0.00000000000E+00  0.00000000000E+00  0.12533430328E+03  0.12533430328E+03  0.00000000000E+00 0. -1.
         -3   -1    0    0    0  501 -0.00000000000E+00 -0.00000000000E+00 -0.36948746748E+03  0.36948746748E+03  0.00000000000E+00 0.  1.
         23    2    1    2    0    0 -0.46107858093E+02 -0.64735262588E+02  0.15773168253E+02  0.12249959119E+03  0.91873653489E+02 0.  0.
         23    2    1    2    0    0  0.44880342208E+02  0.13080916021E+01  0.29433323375E+01  0.10190588294E+03  0.91434072164E+02 0.  0.
        -11    1    3    3    0    0  0.52206045676E+01 -0.66569360562E+02 -0.52990926440E+01  0.66983691004E+02  0.00000000000E+00 0. -1.
         11    1    3    3    0    0 -0.51328462661E+02  0.18340979738E+01  0.21072260897E+02  0.55515900189E+02  0.00000000000E+00 0.  1.
        -11    1    4    4    0    0  0.53988085244E+02  0.20190085291E+02 -0.28353935481E+02  0.64236271293E+02  0.00000000000E+00 0.  1.
         11    1    4    4    0    0 -0.91077430359E+01 -0.18881993689E+02  0.31297267819E+02  0.37669611649E+02  0.00000000000E+00 0. -1.
         21    1    1    2  502  501  0.12275158852E+01  0.63427170986E+02 -0.26286966479E+03  0.27041629662E+03  0.00000000000E+00 0.  1.
<scales pt_clust_5="13000.00000" pt_clust_6="13000.00000" pt_clust_7="13000.00000" pt_clust_8="13000.00000" pt_clust_9="63.43905"></scales>
<clustering>
<clus scale="   63.439">  2  9  1 -1</clus>
<clus scale="   91.434">  7  8 -1 -1</clus>
<clus scale="   91.874">  5  6 -1 -1</clus>
<clus scale="  106.961">  1  7  2 -1</clus>
<clus scale="  106.961">  1  5  2 -1</clus>
</clustering>
</event>
<event>
 9    1  0.1484717E-005  0.2268745E+03  0.7546771E-02  0.1129000E+00
          2   -1    0    0  502    0  0.00000000000E+00  0.00000000000E+00  0.27967062010E+03  0.27967062010E+03  0.00000000000E+00 0. -1.
         -2   -1    0    0    0  501 -0.00000000000E+00 -0.00000000000E+00 -0.33622826312E+03  0.33622826312E+03  0.00000000000E+00 0.  1.
         23    2    1    2    0    0 -0.22494629294E+03  0.10164443648E+03 -0.15412347761E+03  0.30547410969E+03  0.92886808365E+02 0.  0.
         23    2    1    2    0    0  0.10703258474E+03 -0.77790345689E+02  0.10167979342E+03  0.19005208190E+03  0.90959888786E+02 0.  0.
        -11    1    3    3    0    0 -0.10482020653E+02  0.30797574570E+02 -0.90448435671E+00  0.32545067957E+02  0.00000000000E+00 0.  1.
         11    1    3    3    0    0 -0.21446427229E+03  0.70846861910E+02 -0.15321899326E+03  0.27292904174E+03  0.00000000000E+00 0. -1.
        -11    1    4    4    0    0  0.96121443627E+02 -0.34298135550E+02  0.10326066731E+03  0.14518422587E+03  0.00000000000E+00 0.  1.
         11    1    4    4    0    0  0.10911141109E+02 -0.43492210139E+02 -0.15808738880E+01  0.44867856037E+02  0.00000000000E+00 0. -1.
         21    1    1    2  502  501  0.11791370820E+03 -0.23854090791E+02 -0.41139588293E+01  0.12037269162E+03  0.00000000000E+00 0.  1.
<scales pt_clust_5="13000.00000" pt_clust_6="13000.00000" pt_clust_7="13000.00000" pt_clust_8="13000.00000" pt_clust_9="120.30237"></scales>
<clustering>
<clus scale="   90.960">  7  8 -1 -1</clus>
<clus scale="   92.887">  5  6 -1 -1</clus>
<clus scale="  120.302">  1  9  2 -1</clus>
<clus scale="  226.092">  1  7  2 -1</clus>
<clus scale="  120.302">  1  5  2 -1</clus>
</clustering>
</event>
<event>
 9    1  0.1484717E-005  0.1193752E+03  0.7546771E-02  0.1256684E+00
         -1   -1    0    0    0  501 -0.00000000000E+00  0.00000000000E+00  0.22777501929E+03  0.22777501929E+03  0.00000000000E+00 0.  1.
          1   -1    0    0  502    0  0.00000000000E+00 -0.00000000000E+00 -0.16048773405E+03  0.16048773405E+03  0.00000000000E+00 0. -1.
         23    2    1    2    0    0 -0.21652706225E+02 -0.24796357450E+02 -0.56403044424E+01  0.12136618227E+03  0.11668006742E+03 0.  0.
         23    2    1    2    0    0  0.26088264468E+02 -0.16742434890E+02 -0.70175137621E+02  0.11782096606E+03  0.89422164113E+02 0.  0.
        -11    1    3    3    0    0 -0.65568178295E+02 -0.36218629554E+02 -0.10862906476E+02  0.75690011684E+02  0.00000000000E+00 0.  1.
         11    1    3    3    0    0  0.43915472070E+02  0.11422272104E+02  0.52226020341E+01  0.45676170583E+02  0.00000000000E+00 0. -1.
        -11    1    4    4    0    0 -0.15646748291E+02 -0.36277298112E+02 -0.77998497155E+01  0.40270345739E+02  0.00000000000E+00 0.  1.
         11    1    4    4    0    0  0.41735012759E+02  0.19534863222E+02 -0.62375287906E+02  0.77550620323E+02  0.00000000000E+00 0. -1.
         21    1    1    2  502  501 -0.44355582432E+01  0.41538792340E+02  0.14310272731E+03  0.14907560501E+03  0.00000000000E+00 0.  1.
<scales pt_clust_5="13000.00000" pt_clust_6="13000.00000" pt_clust_7="13000.00000" pt_clust_8="13000.00000" pt_clust_9="41.77494"></scales>
<clustering>
<clus scale="   41.775">  1  9  2 -1</clus>
<clus scale="   89.422">  7  8 -1 -1</clus>
<clus scale="   92.911">  2  7  1 -1</clus>
<clus scale="  116.680">  5  6 -1 -1</clus>
<clus scale="   92.911">  2  5  1 -1</clus>
</clustering>
</event>
<event>
 9    1  0.1484717E-005  0.1145072E+03  0.7546771E-02  0.1252466E+00
          1   -1    0    0  502    0  0.00000000000E+00  0.00000000000E+00  0.44713859886E+03  0.44713859886E+03  0.00000000000E+00 0. -1.
         -1   -1    0    0    0  501 -0.00000000000E+00 -0.00000000000E+00 -0.36492185303E+02  0.36492185303E+02  0.00000000000E+00 0.  1.
         23    2    1    2    0    0 -0.50330973731E+02  0.23589810672E+02  0.15447348830E+03  0.18812733671E+03  0.91870289797E+02 0.  0.
         23    2    1    2    0    0  0.72289409079E+02 -0.34350387934E+02  0.22536269429E+03  0.25616856169E+03  0.91805665406E+02 0.  0.
        -11    1    3    3    0    0  0.23947137532E+02  0.52994668374E+01  0.14172011258E+02  0.28326589061E+02  0.00000000000E+00 0. -1.
         11    1    3    3    0    0 -0.74278111263E+02  0.18290343834E+02  0.14030147704E+03  0.15980074765E+03  0.00000000000E+00 0.  1.
        -13    1    4    4    0    0 -0.16608793449E+02 -0.22104833252E+02  0.27940731159E+02  0.39308524911E+02  0.00000000000E+00 0.  1.
         13    1    4    4    0    0  0.88898202528E+02 -0.12245554682E+02  0.19742196313E+03  0.21686003677E+03  0.00000000000E+00 0. -1.
         21    1    1    2  502  501 -0.21958435348E+02  0.10760577262E+02  0.30810230966E+02  0.39334885765E+02  0.00000000000E+00 0.  1.
<scales pt_clust_5="13000.00000" pt_clust_6="13000.00000" pt_clust_7="13000.00000" pt_clust_8="13000.00000" pt_clust_9="24.45328"></scales>
<clustering>
<clus scale="   24.453">  2  9  1 -1</clus>
<clus scale="   91.806">  7  8 -1 -1</clus>
<clus scale="   91.870">  5  6 -1 -1</clus>
<clus scale="  114.455">  1  7  2 -1</clus>
<clus scale="  114.455">  1  5  2 -1</clus>
</clustering>
</event>
<event>
 9    1  0.1484717E-005  0.2231112E+03  0.7546771E-02  0.1131626E+00
         -1   -1    0    0    0  501 -0.00000000000E+00  0.00000000000E+00  0.57742855553E+02  0.57742855553E+02  0.00000000000E+00 0.  1.
          1   -1    0    0  502    0  0.00000000000E+00 -0.00000000000E+00 -0.10293272753E+04  0.10293272753E+04  0.00000000000E+00 0. -1.
         23    2    1    2    0    0 -0.13926777510E+03  0.12423504302E+03 -0.35612323116E+03  0.41225247940E+03  0.91096058660E+02 0.  0.
         23    2    1    2    0    0  0.15390335637E+03 -0.15413346868E+03 -0.58024884368E+03  0.62636122433E+03  0.90533383272E+02 0.  0.
        -11    1    3    3    0    0 -0.42313555052E+02 -0.85351223740E+01 -0.79507080459E+02  0.90469116820E+02  0.00000000000E+00 0. -1.
         11    1    3    3    0    0 -0.96954220044E+02  0.13277016540E+03 -0.27661615070E+03  0.32178336258E+03  0.00000000000E+00 0.  1.
        -13    1    4    4    0    0  0.84870932688E+02 -0.28646105936E+02 -0.27415448221E+03  0.28841698063E+03  0.00000000000E+00 0.  1.
         13    1    4    4    0    0  0.69032423678E+02 -0.12548736274E+03 -0.30609436148E+03  0.33794424371E+03  0.00000000000E+00 0. -1.
         21    1    1    2  502  501 -0.14635581270E+02  0.29898425654E+02 -0.35212344900E+02  0.48456427118E+02  0.00000000000E+00 0.  1.
<scales pt_clust_5="13000.00000" pt_clust_6="13000.00000" pt_clust_7="13000.00000" pt_clust_8="13000.00000" pt_clust_9="33.28838"></scales>
<clustering>
<clus scale="   33.288">  1  9  2 -1</clus>
<clus scale="   90.533">  7  8 -1 -1</clus>
<clus scale="   91.096">  5  6 -1 -1</clus>
<clus scale="  222.882">  2  7  1 -1</clus>
<clus scale="  222.882">  2  5  1 -1</clus>
</clustering>
</event>
<event>
 9    1  0.1484717E-005  0.1396911E+03  0.7546771E-02  0.1213909E+00
         -2   -1    0    0    0  501 -0.00000000000E+00  0.00000000000E+00  0.64740850150E+02  0.64740850150E+02  0.00000000000E+00 0.  1.
          2   -1    0    0  502    0  0.00000000000E+00 -0.00000000000E+00 -0.45016523239E+03  0.45016523239E+03  0.00000000000E+00 0. -1.
         23    2    1    2    0    0  0.93085835215E+02 -0.34346706977E+01 -0.83346075524E+02  0.15515528398E+03  0.91922925104E+02 0.  0.
         23    2    1    2    0    0 -0.10722254197E+03  0.26179031244E+02 -0.30008898448E+03  0.33289731057E+03  0.92656384525E+02 0.  0.
        -11    1    3    3    0    0  0.43860804301E+02  0.22243133227E+02 -0.86546711254E+02  0.99543258730E+02  0.00000000000E+00 0. -1.
         11    1    3    3    0    0  0.49225030913E+02 -0.25677803924E+02  0.32006357294E+01  0.55612025245E+02  0.00000000000E+00 0.  1.
        -13    1    4    4    0    0 -0.22827935742E+02 -0.19293773861E+01 -0.33996787328E+01  0.23160202133E+02  0.00000000000E+00 0.  1.
         13    1    4    4    0    0 -0.84394606223E+02  0.28108408630E+02 -0.29668930575E+03  0.30973710844E+03  0.00000000000E+00 0. -1.
         21    1    1    2  502  501  0.14136706750E+02 -0.22744360547E+02 -0.19893222277E+01  0.26853487992E+02  0.00000000000E+00 0.  1.
<scales pt_clust_5="13000.00000" pt_clust_6="13000.00000" pt_clust_7="13000.00000" pt_clust_8="13000.00000" pt_clust_9="26.77970"></scales>
<clustering>
<clus scale="   26.780">  1  9  2 -1</clus>
<clus scale="   91.923">  5  6 -1 -1</clus>
<clus scale="   92.656">  7  8 -1 -1</clus>
<clus scale="  139.206">  1  5  2 -1</clus>
<clus scale="  139.691">  2  5  1 -1</clus>
</clustering>
</event>
<event>
 9    1  0.1484717E-005  0.1133429E+03  0.7546771E-02  0.1255844E+00
         -2   -1    0    0    0  501 -0.00000000000E+00  0.00000000000E+00  0.30358535558E+02  0.30358535558E+02  0.00000000000E+00 0.  1.
          2   -1    0    0  502    0  0.00000000000E+00 -0.00000000000E+00 -0.56861579413E+03  0.56861579413E+03  0.00000000000E+00 0. -1.
         23    2    1    2    0    0  0.30519942436E+02 -0.29429056357E+02 -0.17119800215E+03  0.19884367004E+03  0.91828715181E+02 0.  0.
         23    2    1    2    0    0 -0.57420250677E+02  0.52903029263E+02 -0.29480864827E+03  0.31954031055E+03  0.95383726514E+02 0.  0.
        -11    1    4    4    0    0 -0.45389717029E+02  0.72935240819E+02 -0.27741133285E+03  0.29040802909E+03  0.00000000000E+00 0. -1.
         11    1    4    4    0    0 -0.12030533648E+02 -0.20032211556E+02 -0.17397315413E+02  0.29132281463E+02  0.00000000000E+00 0.  1.
        -13    1    3    3    0    0 -0.29134345548E+02  0.59287350081E+01 -0.71156299690E+02  0.77117954945E+02  0.00000000000E+00 0. -1.
         13    1    3    3    0    0  0.59654287984E+02 -0.35357791365E+02 -0.10004170246E+03  0.12172571510E+03  0.00000000000E+00 0.  1.
         21    1    1    2  502  501  0.26900308241E+02 -0.23473972907E+02 -0.72250608159E+02  0.80590349093E+02  0.00000000000E+00 0.  1.
<scales pt_clust_5="13000.00000" pt_clust_6="13000.00000" pt_clust_7="13000.00000" pt_clust_8="13000.00000" pt_clust_9="35.70230"></scales>
<clustering>
<clus scale="   35.702">  1  9  2 -1</clus>
<clus scale="   91.829">  7  8 -1 -1</clus>
<clus scale="   95.384">  5  6 -1 -1</clus>
<clus scale="  110.368">  1  7  2 -1</clus>
<clus scale="  113.343">  2  5  1 -1</clus>
</clustering>
</event>
<event>
 9    1  0.1484717E-005  0.3838356E+03  0.7546771E-02  0.1049554E+00
          1   -1    0    0  502    0  0.00000000000E+00  0.00000000000E+00  0.11018926595E+04  0.11018926595E+04  0.00000000000E+00 0. -1.
         -1   -1    0    0    0  501 -0.00000000000E+00 -0.00000000000E+00 -0.15513966918E+03  0.15513966918E+03  0.00000000000E+00 0.  1.
         23    2    1    2    0    0 -0.28160140176E+03 -0.23909958200E+03  0.41017949299E+03  0.55962286620E+03  0.91992262267E+02 0.  0.
         23    2    1    2    0    0  0.31628175146E+03  0.20395901391E+03  0.51202749746E+03  0.64227243053E+03  0.93318225489E+02 0.  0.
        -13    1    4    4    0    0  0.10858607802E+03  0.45094366434E+02  0.22584457057E+03  0.25461776898E+03  0.00000000000E+00 0. -1.
         13    1    4    4    0    0  0.20769567343E+03  0.15886464747E+03  0.28618292689E+03  0.38765466155E+03  0.00000000000E+00 0.  1.
        -13    1    3    3    0    0 -0.42527259605E+02 -0.49173143318E+02  0.12940699610E+03  0.14481966881E+03  0.00000000000E+00 0.  1.
         13    1    3    3    0    0 -0.23907414215E+03 -0.18992643868E+03  0.28077249689E+03  0.41480319739E+03  0.00000000000E+00 0. -1.
         21    1    1    2  502  501 -0.34680349699E+02  0.35140568095E+02  0.24545999844E+02  0.55137031926E+02  0.00000000000E+00 0. -1.
<scales pt_clust_5="13000.00000" pt_clust_6="13000.00000" pt_clust_7="13000.00000" pt_clust_8="13000.00000" pt_clust_9="49.37192"></scales>
<clustering>
<clus scale="   49.372">  2  9  1 -1</clus>
<clus scale="   91.992">  7  8 -1 -1</clus>
<clus scale="   93.318">  5  6 -1 -1</clus>
<clus scale="  383.515">  2  7  1 -1</clus>
<clus scale="  383.836">  1  5  2 -1</clus>
</clustering>
</event>
<event>
 9    1  0.1484717E-005  0.1035049E+03  0.7546771E-02  0.1277753E+00
         -3   -1    0    0    0  501 -0.00000000000E+00  0.00000000000E+00  0.17085952586E+03  0.17085952586E+03  0.00000000000E+00 0.  1.
          3   -1    0    0  502    0  0.00000000000E+00 -0.00000000000E+00 -0.17367153558E+03  0.17367153558E+03  0.00000000000E+00 0. -1.
         23    2    1    2    0    0  0.54620325238E+02 -0.11441211281E+01  0.11866378037E+03  0.14951266045E+03  0.72720381735E+02 0.  0.
         23    2    1    2    0    0 -0.52587851032E+02  0.33732500269E+02 -0.12404034947E+03  0.16226614350E+03  0.83910245975E+02 0.  0.
        -11    1    4    4    0    0 -0.25991530452E+02  0.94023159508E+01  0.51724468889E+01  0.28119697853E+02  0.00000000000E+00 0.  1.
         11    1    4    4    0    0 -0.26596320580E+02  0.24330184318E+02 -0.12921279636E+03  0.13414644565E+03  0.00000000000E+00 0. -1.
        -11    1    3    3    0    0  0.58361693332E+02 -0.25264512566E+02  0.67018348446E+02  0.92389619937E+02  0.00000000000E+00 0.  1.
         11    1    3    3    0    0 -0.37413680933E+01  0.24120391438E+02  0.51645431924E+02  0.57123040509E+02  0.00000000000E+00 0. -1.
         21    1    1    2  502  501 -0.20324742058E+01 -0.32588379141E+02  0.25645593830E+01  0.32752257499E+02  0.00000000000E+00 0.  1.
<scales pt_clust_5="13000.00000" pt_clust_6="13000.00000" pt_clust_7="13000.00000" pt_clust_8="13000.00000" pt_clust_9="32.65170"></scales>
<clustering>
<clus scale="   32.652">  1  9  2 -1</clus>
<clus scale="   72.720">  7  8 -1 -1</clus>
<clus scale="   83.910">  5  6 -1 -1</clus>
<clus scale="   94.660">  1  7  2 -1</clus>
<clus scale="  103.505">  2  5  1 -1</clus>
</clustering>
</event>
<event>
 9    1  0.1484717E-005  0.1530984E+03  0.7546771E-02  0.1196977E+00
         -1   -1    0    0    0  501 -0.00000000000E+00  0.00000000000E+00  0.13730597716E+03  0.13730597716E+03  0.00000000000E+00 0.  1.
          1   -1    0    0  502    0  0.00000000000E+00 -0.00000000000E+00 -0.20839830759E+03  0.20839830759E+03  0.00000000000E+00 0. -1.
         23    2    1    2    0    0 -0.12928868540E+03  0.31888689483E+02 -0.13457900245E+02  0.16239584459E+03  0.91971966216E+02 0.  0.
         23    2    1    2    0    0  0.11093014538E+03 -0.73543963701E+01 -0.48109617758E+02  0.15121966359E+03  0.90516667171E+02 0.  0.
        -11    1    4    4    0    0  0.87243964122E+02  0.68542602397E+00  0.10132829146E+02  0.87833099177E+02  0.00000000000E+00 0.  1.
         11    1    4    4    0    0  0.23686181254E+02 -0.80398223940E+01 -0.58242446904E+02  0.63386564411E+02  0.00000000000E+00 0. -1.
        -11    1    3    3    0    0 -0.63939605611E+02 -0.21035058267E+02 -0.34605879136E+02  0.75685624215E+02  0.00000000000E+00 0. -1.
         11    1    3    3    0    0 -0.65349079793E+02  0.52923747751E+02  0.21147978892E+02  0.86710220372E+02  0.00000000000E+00 0.  1.
         21    1    1    2  502  501  0.18358540029E+02 -0.24534293113E+02 -0.95248124289E+01  0.32088776579E+02  0.00000000000E+00 0.  1.
<scales pt_clust_5="13000.00000" pt_clust_6="13000.00000" pt_clust_7="13000.00000" pt_clust_8="13000.00000" pt_clust_9="30.64258"></scales>
<clustering>
<clus scale="   30.643">  2  9  1 -1</clus>
<clus scale="   90.517">  5  6 -1 -1</clus>
<clus scale="   91.972">  7  8 -1 -1</clus>
<clus scale="  152.229">  2  5  1 -1</clus>
<clus scale="   30.643">  2  5  1 -1</clus>
</clustering>
</event>
<event>
 9    1  0.1484717E-005  0.1213014E+03  0.7546771E-02  0.1241743E+00
         -1   -1    0    0    0  501 -0.00000000000E+00  0.00000000000E+00  0.28199918702E+03  0.28199918702E+03  0.00000000000E+00 0.  1.
          1   -1    0    0  502    0  0.00000000000E+00 -0.00000000000E+00 -0.10903928787E+03  0.10903928787E+03  0.00000000000E+00 0. -1.
         23    2    1    2    0    0 -0.31241615756E+02 -0.24705084044E+02  0.14496651563E+03  0.17681241091E+03  0.93064269544E+02 0.  0.
         23    2    1    2    0    0  0.27520978039E+02  0.88335874665E+02 -0.24347605818E+02  0.13175000791E+03  0.90579399918E+02 0.  0.
        -11    1    3    3    0    0 -0.57213604100E+01  0.26425504862E+02  0.76800811538E+01  0.28107381925E+02  0.00000000000E+00 0.  1.
         11    1    3    3    0    0 -0.25520255346E+02 -0.51130588906E+02  0.13728643448E+03  0.14870502899E+03  0.00000000000E+00 0. -1.
        -13    1    4    4    0    0 -0.40579903291E+00  0.38779380783E+02  0.33039812270E+02  0.50947367367E+02  0.00000000000E+00 0.  1.
         13    1    4    4    0    0  0.27926777072E+02  0.49556493882E+02 -0.57387418088E+02  0.80802640540E+02  0.00000000000E+00 0. -1.
         21    1    1    2  502  501  0.37206377177E+01 -0.63630790621E+02  0.52340989336E+02  0.82476056069E+02  0.00000000000E+00 0. -1.
<scales pt_clust_5="13000.00000" pt_clust_6="13000.00000" pt_clust_7="13000.00000" pt_clust_8="13000.00000" pt_clust_9="63.73947"></scales>
<clustering>
<clus scale="   63.739">  1  9  2 -1</clus>
<clus scale="   90.579">  7  8 -1 -1</clus>
<clus scale="   93.064">  5  6 -1 -1</clus>
<clus scale="  119.406">  2  7  1 -1</clus>
<clus scale="  119.406">  2  5  1 -1</clus>
</clustering>
</event>
<event>
 9    1  0.1484717E-005  0.1652522E+03  0.7546771E-02  0.1184772E+00
         -1   -1    0    0    0  501 -0.00000000000E+00  0.00000000000E+00  0.83921639891E+02  0.83921639891E+02  0.00000000000E+00 0.  1.
          1   -1    0    0  502    0  0.00000000000E+00 -0.00000000000E+00 -0.37413134145E+03  0.37413134145E+03  0.00000000000E+00 0. -1.
         23    2    1    2    0    0  0.11657120823E+03 -0.19534415626E+02 -0.99887988499E+02  0.18271847899E+03  0.97149330084E+02 0.  0.
         23    2    1    2    0    0 -0.14455396613E+03  0.25235123773E+02 -0.17098566546E+03  0.24084659795E+03  0.85078348339E+02 0.  0.
        -11    1    4    4    0    0 -0.95736382076E+02  0.44192998298E+00 -0.15773142220E+03  0.18451247032E+03  0.00000000000E+00 0. -1.
         11    1    4    4    0    0 -0.48817584054E+02  0.24793193790E+02 -0.13254243257E+02  0.56334127627E+02  0.00000000000E+00 0.  1.
        -11    1    3    3    0    0  0.70500124701E+02 -0.58554229064E+02 -0.70183425947E+02  0.11543213851E+03  0.00000000000E+00 0.  1.
         11    1    3    3    0    0  0.46071083524E+02  0.39019813438E+02 -0.29704562552E+02  0.67286340473E+02  0.00000000000E+00 0. -1.
         21    1    1    2  502  501  0.27982757904E+02 -0.57007081465E+01 -0.19336047599E+02  0.34487904402E+02  0.00000000000E+00 0. -1.
<scales pt_clust_5="13000.00000" pt_clust_6="13000.00000" pt_clust_7="13000.00000" pt_clust_8="13000.00000" pt_clust_9="28.55754"></scales>
<clustering>
<clus scale="   28.558">  1  9  2 -1</clus>
<clus scale="   85.078">  5  6 -1 -1</clus>
<clus scale="   97.149">  7  8 -1 -1</clus>
<clus scale="  158.457">  2  5  1 -1</clus>
<clus scale="  158.457">  2  5  1 -1</clus>
</clustering>
</event>
<event>
 9    1  0.1787314E-005  0.9292386E+02  0.7546771E-02  0.1297264E+00
          3   -1    0    0  502    0  0.00000000000E+00  0.00000000000E+00  0.13404830255E+03  0.13404830255E+03  0.00000000000E+00 0. -1.
         -3   -1    0    0    0  501 -0.00000000000E+00 -0.00000000000E+00 -0.30651336874E+03  0.30651336874E+03  0.00000000000E+00 0.  1.
         23    2    1    2    0    0 -0.75953149533E+01 -0.48793442667E+02 -0.20755998397E+03  0.23115808140E+03  0.88963041719E+02 0.  0.
         23    2    1    2    0    0  0.29663591708E+00  0.14738370742E+02  0.99716989786E+02  0.13599357130E+03  0.91287818570E+02 0.  0.
        -11    1    3    3    0    0  0.47275593064E+01  0.24618140435E+02 -0.33432575545E+02  0.41786837199E+02  0.00000000000E+00 0. -1.
         11    1    3    3    0    0 -0.12322874260E+02 -0.73411583102E+02 -0.17412740843E+03  0.18937124420E+03  0.00000000000E+00 0.  1.
        -13    1    4    4    0    0 -0.32841119022E+01 -0.23421820968E+02 -0.52684092538E+01  0.24230625756E+02  0.00000000000E+00 0.  1.
         13    1    4    4    0    0  0.35807478192E+01  0.38160191710E+02  0.10498539904E+03  0.11176294555E+03  0.00000000000E+00 0. -1.
         21    1    1    2  502  501  0.72986790362E+01  0.34055071925E+02 -0.64622072003E+02  0.73410018591E+02  0.00000000000E+00 0.  1.
<scales pt_clust_5="13000.00000" pt_clust_6="13000.00000" pt_clust_7="13000.00000" pt_clust_8="13000.00000" pt_clust_9="34.82842"></scales>
<clustering>
<clus scale="   34.828">  2  9  1 -1</clus>
<clus scale="   88.963">  5  6 -1 -1</clus>
<clus scale="   90.641">  2  5  1 -1</clus>
<clus scale="   91.288">  7  8 -1 -1</clus>
<clus scale="   92.924">  1  5  2 -1</clus>
</clustering>
</event>
<event>
 9    1  0.1484717E-005  0.1038380E+03  0.7546771E-02  0.1274348E+00
          1   -1    0    0  502    0  0.00000000000E+00  0.00000000000E+00  0.31521515514E+03  0.31521515514E+03  0.00000000000E+00 0. -1.
         -1   -1    0    0    0  501 -0.00000000000E+00 -0.00000000000E+00 -0.56773125375E+02  0.56773125375E+02  0.00000000000E+00 0.  1.
         23    2    1    2    0    0 -0.49701864043E+02  0.42463017304E+02  0.70977255781E+02  0.13071427601E+03  0.88176345967E+02 0.  0.
         23    2    1    2    0    0  0.30432412352E+02 -0.25614622619E+02  0.19055396181E+03  0.21549177703E+03  0.92431882992E+02 0.  0.
        -11    1    3    3    0    0  0.16062920027E+02  0.26966224280E+02 -0.17605666799E+01  0.31437147561E+02  0.00000000000E+00 0.  1.
         11    1    3    3    0    0 -0.65764784070E+02  0.15496793023E+02  0.72737822461E+02  0.99277128454E+02  0.00000000000E+00 0. -1.
        -13    1    4    4    0    0 -0.41837006419E+01 -0.54537989190E+02  0.90616629245E+02  0.10584549642E+03  0.00000000000E+00 0. -1.
         13    1    4    4    0    0  0.34616112994E+02  0.28923366570E+02  0.99937332564E+02  0.10964628061E+03  0.00000000000E+00 0.  1.
         21    1    1    2  502  501  0.19269451690E+02 -0.16848394684E+02 -0.30891878239E+01  0.25782227470E+02  0.00000000000E+00 0.  1.
<scales pt_clust_5="13000.00000" pt_clust_6="13000.00000" pt_clust_7="13000.00000" pt_clust_8="13000.00000" pt_clust_9="25.59649"></scales>
<clustering>
<clus scale="   25.596">  2  9  1 -1</clus>
<clus scale="   88.176">  5  6 -1 -1</clus>
<clus scale="   92.432">  7  8 -1 -1</clus>
<clus scale="  100.069">  2  5  1 -1</clus>
<clus scale="  103.838">  1  5  2 -1</clus>
</clustering>
</event>
<event>
 9    1  0.1484717E-005  0.1357287E+03  0.7546771E-02  0.1219240E+00
         -2   -1    0    0    0  501 -0.00000000000E+00  0.00000000000E+00  0.77323608026E+02  0.77323608026E+02  0.00000000000E+00 0.  1.
          2   -1    0    0  502    0  0.00000000000E+00 -0.00000000000E+00 -0.59556397028E+03  0.59556397028E+03  0.00000000000E+00 0. -1.
         23    2    1    2    0    0  0.11682696355E+03 -0.38417081388E+02 -0.40419099068E+02  0.15859810982E+03  0.91625571302E+02 0.  0.
         23    2    1    2    0    0 -0.93937956422E+02  0.22457488875E+02 -0.46487898416E+03  0.48353044011E+03  0.91435978326E+02 0.  0.
        -11    1    3    3    0    0  0.65047709571E+02 -0.48297853466E+02  0.14688136017E+02  0.82338499558E+02  0.00000000000E+00 0.  1.
         11    1    3    3    0    0  0.51779253975E+02  0.98807720786E+01 -0.55107235085E+02  0.76259610265E+02  0.00000000000E+00 0. -1.
        -11    1    4    4    0    0 -0.85927914379E+02  0.52654914673E+02 -0.37805745175E+03  0.39125897220E+03  0.00000000000E+00 0.  1.
         11    1    4    4    0    0 -0.80100420429E+01 -0.30197425797E+02 -0.86821532418E+02  0.92271467907E+02  0.00000000000E+00 0. -1.
         21    1    1    2  502  501 -0.22889007123E+02  0.15959592512E+02 -0.12942279023E+02  0.30759028375E+02  0.00000000000E+00 0.  1.
<scales pt_clust_5="13000.00000" pt_clust_6="13000.00000" pt_clust_7="13000.00000" pt_clust_8="13000.00000" pt_clust_9="27.90368"></scales>
<clustering>
<clus scale="   27.904">  1  9  2 -1</clus>
<clus scale="   91.436">  7  8 -1 -1</clus>
<clus scale="   91.626">  5  6 -1 -1</clus>
<clus scale="  135.601">  2  7  1 -1</clus>
<clus scale="  135.601">  2  5  1 -1</clus>
</clustering>
</event>
<event>
 9    1  0.1484717E-005  0.1441397E+03  0.7546771E-02  0.1208895E+00
         -2   -1    0    0    0  501 -0.00000000000E+00  0.00000000000E+00  0.45610180447E+02  0.45610180447E+02  0.00000000000E+00 0.  1.
          2   -1    0    0  502    0  0.00000000000E+00 -0.00000000000E+00 -0.82445102684E+03  0.82445102684E+03  0.00000000000E+00 0. -1.
         23    2    1    2    0    0 -0.36310041916E+02 -0.66048917149E+02 -0.18045228282E+03  0.21802485896E+03  0.96389491910E+02 0.  0.
         23    2    1    2    0    0  0.74456844464E+02  0.10011304533E+03 -0.57559364090E+03  0.59604392140E+03  0.91618083688E+02 0.  0.
        -11    1    4    4    0    0  0.93317570746E+01  0.43790115159E+02 -0.69467291760E+02  0.82645995064E+02  0.00000000000E+00 0.  1.
         11    1    4    4    0    0  0.65125087389E+02  0.56322930175E+02 -0.50612634914E+03  0.51339792633E+03  0.00000000000E+00 0. -1.
        -13    1    3    3    0    0  0.82474840588E+01 -0.68300651149E+02 -0.14686816828E+03  0.16218279438E+03  0.00000000000E+00 0.  1.
         13    1    3    3    0    0 -0.44557525975E+02  0.22517340000E+01 -0.33584114540E+02  0.55842064579E+02  0.00000000000E+00 0. -1.
         21    1    1    2  502  501 -0.38146802548E+02 -0.34064128184E+02 -0.22794922680E+02  0.55992426930E+02  0.00000000000E+00 0. -1.
<scales pt_clust_5="13000.00000" pt_clust_6="13000.00000" pt_clust_7="13000.00000" pt_clust_8="13000.00000" pt_clust_9="51.14238"></scales>
<clustering>
<clus scale="   51.142">  1  9  2 -1</clus>
<clus scale="   91.618">  5  6 -1 -1</clus>
<clus scale="   96.389">  7  8 -1 -1</clus>
<clus scale="  140.994">  2  5  1 -1</clus>
<clus scale="  140.994">  2  5  1 -1</clus>
</clustering>
</event>
<event>
 9    1  0.1484717E-005  0.1147626E+03  0.7546771E-02  0.1252318E+00
         -1   -1    0    0    0  501 -0.00000000000E+00  0.00000000000E+00  0.19284335344E+03  0.19284335344E+03  0.00000000000E+00 0.  1.
          1   -1    0    0  502    0  0.00000000000E+00 -0.00000000000E+00 -0.32769770708E+03  0.32769770708E+03  0.00000000000E+00 0. -1.
         23    2    1    2    0    0 -0.41780559209E+02  0.48424944602E+02 -0.17827636960E+02  0.11121337700E+03  0.89218833197E+02 0.  0.
         23    2    1    2    0    0  0.31907543758E+02 -0.66152465627E+02 -0.24952188984E+03  0.27528771805E+03  0.90154945195E+02 0.  0.
        -11    1    4    4    0    0  0.52731884648E+02 -0.23188427853E+02 -0.19240738378E+03  0.20084560283E+03  0.00000000000E+00 0. -1.
         11    1    4    4    0    0 -0.20824340890E+02 -0.42964037774E+02 -0.57114506057E+02  0.74442115214E+02  0.00000000000E+00 0.  1.
        -13    1    3    3    0    0  0.13273353884E+02  0.33425675102E+02 -0.36435119097E+02  0.51195464477E+02  0.00000000000E+00 0. -1.
         13    1    3    3    0    0 -0.55053913093E+02  0.14999269500E+02  0.18607482137E+02  0.60017912525E+02  0.00000000000E+00 0.  1.
         21    1    1    2  502  501  0.98730154514E+01  0.17727521025E+02  0.13249517315E+03  0.13403996547E+03  0.00000000000E+00 0. -1.
<scales pt_clust_5="13000.00000" pt_clust_6="13000.00000" pt_clust_7="13000.00000" pt_clust_8="13000.00000" pt_clust_9="20.29141"></scales>
<clustering>
<clus scale="   20.291">  1  9  2 -1</clus>
<clus scale="   89.219">  7  8 -1 -1</clus>
<clus scale="   90.155">  5  6 -1 -1</clus>
<clus scale="  114.029">  1  7  2 -1</clus>
<clus scale="  114.763">  2  5  1 -1</clus>
</clustering>
</event>
<event>
 9    1  0.1484717E-005  0.1061674E+03  0.7546771E-02  0.1268401E+00
         -2   -1    0    0    0  501 -0.00000000000E+00  0.00000000000E+00  0.57543632237E+02  0.57543632237E+02  0.00000000000E+00 0.  1.
          2   -1    0    0  502    0  0.00000000000E+00 -0.00000000000E+00 -0.37656326861E+03  0.37656326861E+03  0.00000000000E+00 0. -1.
         23    2    1    2    0    0  0.36295412759E+02 -0.61390339400E+02 -0.17128535311E+03  0.20767135842E+03  0.93287674199E+02 0.  0.
         23    2    1    2    0    0  0.74438444135E+01  0.38604937796E+02 -0.14614151511E+03  0.17709150475E+03  0.91969052268E+02 0.  0.
        -11    1    4    4    0    0  0.32163733396E+02  0.50449009719E+02 -0.13469806064E+03  0.14738784166E+03  0.00000000000E+00 0.  1.
         11    1    4    4    0    0 -0.24719888983E+02 -0.11844071924E+02 -0.11443454465E+02  0.29703663093E+02  0.00000000000E+00 0. -1.
        -13    1    3    3    0    0  0.15056220798E+02  0.24463103430E+02 -0.36254314254E+02  0.46254821545E+02  0.00000000000E+00 0.  1.
         13    1    3    3    0    0  0.21239191961E+02 -0.85853442830E+02 -0.13503103886E+03  0.16141653687E+03  0.00000000000E+00 0. -1.
         21    1    1    2  502  501 -0.43739257173E+02  0.22785401604E+02 -0.15927681568E+01  0.49344037681E+02  0.00000000000E+00 0.  1.
<scales pt_clust_5="13000.00000" pt_clust_6="13000.00000" pt_clust_7="13000.00000" pt_clust_8="13000.00000" pt_clust_9="49.31832"></scales>
<clustering>
<clus scale="   49.318">  1  9  2 -1</clus>
<clus scale="   91.969">  5  6 -1 -1</clus>
<clus scale="   93.288">  7  8 -1 -1</clus>
<clus scale="  105.011">  2  5  1 -1</clus>
<clus scale="  105.011">  2  5  1 -1</clus>
</clustering>
</event>
<event>
 9    1  0.1484717E-005  0.1061701E+03  0.7546771E-02  0.1268591E+00
          1   -1    0    0  502    0  0.00000000000E+00  0.00000000000E+00  0.14156373017E+03  0.14156373017E+03  0.00000000000E+00 0. -1.
         -1   -1    0    0    0  501 -0.00000000000E+00 -0.00000000000E+00 -0.47190595748E+03  0.47190595748E+03  0.00000000000E+00 0.  1.
         23    2    1    2    0    0 -0.30666814376E+02 -0.11411946300E+03 -0.17233331851E+03  0.22837635033E+03  0.92158989716E+02 0.  0.
         23    2    1    2    0    0  0.78898924649E+01  0.40395824803E+02  0.83069595440E+02  0.13196726554E+03  0.93918733076E+02 0.  0.
        -11    1    4    4    0    0  0.32118850951E+02  0.61517020698E+02  0.47904640006E+02  0.84325671987E+02  0.00000000000E+00 0. -1.
         11    1    4    4    0    0 -0.24228958487E+02 -0.21121195895E+02  0.35164955434E+02  0.47641593551E+02  0.00000000000E+00 0.  1.
        -13    1    3    3    0    0 -0.47809947407E+02 -0.92125480831E+02 -0.17151899976E+03  0.20047858382E+03  0.00000000000E+00 0.  1.
         13    1    3    3    0    0  0.17143133030E+02 -0.21993982168E+02 -0.81431874373E+00  0.27897766518E+02  0.00000000000E+00 0. -1.
         21    1    1    2  502  501  0.22776921912E+02  0.73723638196E+02 -0.24107850425E+03  0.25312607177E+03  0.00000000000E+00 0. -1.
<scales pt_clust_5="13000.00000" pt_clust_6="13000.00000" pt_clust_7="13000.00000" pt_clust_8="13000.00000" pt_clust_9="77.16193"></scales>
<clustering>
<clus scale="   77.162">  2  9  1 -1</clus>
<clus scale="   92.159">  7  8 -1 -1</clus>
<clus scale="   93.919">  5  6 -1 -1</clus>
<clus scale="  104.617">  2  7  1 -1</clus>
<clus scale="  106.170">  1  5  2 -1</clus>
</clustering>
</event>
<event>
 9    1  0.1484717E-005  0.1635658E+03  0.7546771E-02  0.1192105E+00
         -1   -1    0    0    0  501 -0.00000000000E+00  0.00000000000E+00  0.43500341822E+03  0.43500341822E+03  0.00000000000E+00 0.  1.
          1   -1    0    0  502    0  0.00000000000E+00 -0.00000000000E+00 -0.16969256973E+03  0.16969256973E+03  0.00000000000E+00 0. -1.
         23    2    1    2    0    0 -0.73656831653E+02 -0.94497291143E+02  0.81515159925E+02  0.19239258935E+03  0.12655086036E+03 0.  0.
         23    2    1    2    0    0  0.89722895782E+02  0.46657083311E+02 -0.69751787603E+02  0.15378236159E+03  0.92502007609E+02 0.  0.
        -11    1    3    3    0    0 -0.10502627420E+03 -0.73412106096E+02  0.86009472622E+02  0.15432914493E+03  0.00000000000E+00 0.  1.
         11    1    3    3    0    0  0.31369442550E+02 -0.21085185047E+02 -0.44943126974E+01  0.38063444419E+02  0.00000000000E+00 0. -1.
        -13    1    4    4    0    0  0.55730195471E+02  0.73746797103E+02 -0.37945656806E+02  0.99921557437E+02  0.00000000000E+00 0.  1.
         13    1    4    4    0    0  0.33992700311E+02 -0.27089713792E+02 -0.31806130798E+02  0.53860804154E+02  0.00000000000E+00 0. -1.
         21    1    1    2  502  501 -0.16066064129E+02  0.47840207832E+02  0.25354747617E+03  0.25852103701E+03  0.00000000000E+00 0.  1.
<scales pt_clust_5="13000.00000" pt_clust_6="13000.00000" pt_clust_7="13000.00000" pt_clust_8="13000.00000" pt_clust_9="50.46587"></scales>
<clustering>
<clus scale="   50.466">  1  9  2 -1</clus>
<clus scale="   92.502">  7  8 -1 -1</clus>
<clus scale="  126.551">  5  6 -1 -1</clus>
<clus scale="  138.907">  2  7  1 -1</clus>
<clus scale="  138.907">  2  5  1 -1</clus>
</clustering>
</event>
<event>
 9    1  0.1484717E-005  0.9240876E+02  0.7546771E-02  0.1298105E+00
         -1   -1    0    0    0  501 -0.00000000000E+00  0.00000000000E+00  0.18794254377E+03  0.18794254377E+03  0.00000000000E+00 0.  1.
          1   -1    0    0  502    0  0.00000000000E+00 -0.00000000000E+00 -0.64353198947E+03  0.64353198947E+03  0.00000000000E+00 0. -1.
         23    2    1    2    0    0 -0.31560426019E+01 -0.26993532557E+02 -0.14743767511E+03  0.17591789434E+03  0.92036004394E+02 0.  0.
         23    2    1    2    0    0  0.66335576734E+01 -0.43085671318E+00 -0.47645734622E+03  0.48499592529E+03  0.90361800866E+02 0.  0.
        -11    1    4    4    0    0  0.18313433742E+02 -0.42593347613E+02 -0.21983295484E+03  0.22466887446E+03  0.00000000000E+00 0.  1.
         11    1    4    4    0    0 -0.11679876069E+02  0.42162490900E+02 -0.25662439138E+03  0.26032705084E+03  0.00000000000E+00 0. -1.
        -11    1    3    3    0    0  0.30863513967E+02 -0.57979841615E+01 -0.10310357508E+02  0.33052633582E+02  0.00000000000E+00 0.  1.
         11    1    3    3    0    0 -0.34019556569E+02 -0.21195548396E+02 -0.13712731760E+03  0.14286526076E+03  0.00000000000E+00 0. -1.
         21    1    1    2  502  501 -0.34775150715E+01  0.27424389270E+02  0.16830557563E+03  0.17056071360E+03  0.00000000000E+00 0.  1.
<scales pt_clust_5="13000.00000" pt_clust_6="13000.00000" pt_clust_7="13000.00000" pt_clust_8="13000.00000" pt_clust_9="27.64399"></scales>
<clustering>
<clus scale="   27.644">  1  9  2 -1</clus>
<clus scale="   90.362">  5  6 -1 -1</clus>
<clus scale="   90.741">  2  5  1 -1</clus>
<clus scale="   92.036">  7  8 -1 -1</clus>
<clus scale="   90.741">  2  5  1 -1</clus>
</clustering>
</event>
<event>
 9    1  0.1484717E-005  0.1014096E+03  0.7546771E-02  0.1278806E+00
         -1   -1    0    0    0  501 -0.00000000000E+00  0.00000000000E+00  0.29726610861E+02  0.29726610861E+02  0.00000000000E+00 0.  1.
          1   -1    0    0  502    0  0.00000000000E+00 -0.00000000000E+00 -0.54927735525E+03  0.54927735525E+03  0.00000000000E+00 0. -1.
         23    2    1    2    0    0  0.14820741471E+02  0.30792714491E+02 -0.21010664516E+03  0.23119081788E+03  0.90202806426E+02 0.  0.
         23    2    1    2    0    0 -0.43072902931E+02 -0.22432328376E+02 -0.29836285461E+03  0.31633498651E+03  0.93214517951E+02 0.  0.
        -13    1    3    3    0    0  0.44306484254E+02  0.45500537576E+02 -0.13817191668E+03  0.15206854384E+03  0.00000000000E+00 0.  1.
         13    1    3    3    0    0 -0.29485742783E+02 -0.14707823085E+02 -0.71934728477E+02  0.79122274035E+02  0.00000000000E+00 0. -1.
        -13    1    4    4    0    0  0.84294644408E+01  0.20965060131E+02 -0.20779210488E+02  0.30697967450E+02  0.00000000000E+00 0.  1.
         13    1    4    4    0    0 -0.51502367372E+02 -0.43397388507E+02 -0.27758364412E+03  0.28563701906E+03  0.00000000000E+00 0. -1.
         21    1    1    2  502  501  0.28252161460E+02 -0.83603861149E+01 -0.11081244620E+02  0.31478161724E+02  0.00000000000E+00 0.  1.
<scales pt_clust_5="13000.00000" pt_clust_6="13000.00000" pt_clust_7="13000.00000" pt_clust_8="13000.00000" pt_clust_9="29.46321"></scales>
<clustering>
<clus scale="   29.463">  1  9  2 -1</clus>
<clus scale="   90.203">  5  6 -1 -1</clus>
<clus scale="   93.215">  7  8 -1 -1</clus>
<clus scale="   98.648">  1  5  2 -1</clus>
<clus scale="  101.410">  2  5  1 -1</clus>
</clustering>
</event>
<event>
 9    1  0.1484717E-005  0.1692091E+03  0.7546771E-02  0.1178811E+00
         -1   -1    0    0    0  501 -0.00000000000E+00  0.00000000000E+00  0.13272534004E+03  0.13272534004E+03  0.00000000000E+00 0.  1.
          1   -1    0    0  502    0  0.00000000000E+00 -0.00000000000E+00 -0.62168208588E+03  0.62168208588E+03  0.00000000000E+00 0. -1.
         23    2    1    2    0    0 -0.80783171849E+02 -0.92859853835E+02 -0.77164697463E+00  0.15297371454E+03  0.90837704685E+02 0.  0.
         23    2    1    2    0    0  0.14423524619E+03  0.14121409980E+03 -0.18764811755E+03  0.29048873878E+03  0.91796857853E+02 0.  0.
        -11    1    3    3    0    0 -0.31713960224E+02 -0.93159079312E+02  0.18720167403E+02  0.10017401858E+03  0.00000000000E+00 0.  1.
         11    1    3    3    0    0 -0.49069211624E+02  0.29922547717E+00 -0.19491814377E+02  0.52799695956E+02  0.00000000000E+00 0. -1.
        -11    1    4    4    0    0  0.69575197801E+02  0.32298182593E+02 -0.24344045717E+02  0.80476787397E+02  0.00000000000E+00 0.  1.
         11    1    4    4    0    0  0.74660048392E+02  0.10891591721E+03 -0.16330407183E+03  0.21001195138E+03  0.00000000000E+00 0. -1.
         21    1    1    2  502  501 -0.63452074344E+02 -0.48354245965E+02 -0.30053698132E+03  0.31094497260E+03  0.00000000000E+00 0. -1.
<scales pt_clust_5="13000.00000" pt_clust_6="13000.00000" pt_clust_7="13000.00000" pt_clust_8="13000.00000" pt_clust_9="79.77656"></scales>
<clustering>
<clus scale="   79.777">  2  9  1 -1</clus>
<clus scale="   90.838">  5  6 -1 -1</clus>
<clus scale="   91.797">  7  8 -1 -1</clus>
<clus scale="  168.691">  1  5  2 -1</clus>
<clus scale="   79.777">  2  5  1 -1</clus>
</clustering>
</event>
<event>
 9    1  0.1484717E-005  0.1732825E+03  0.7546771E-02  0.1175218E+00
          2   -1    0    0  502    0  0.00000000000E+00  0.00000000000E+00  0.13018451059E+03  0.13018451059E+03  0.00000000000E+00 0. -1.
         -2   -1    0    0    0  501 -0.00000000000E+00 -0.00000000000E+00 -0.42282983861E+03  0.42282983861E+03  0.00000000000E+00 0.  1.
         23    2    1    2    0    0  0.96588110074E+02 -0.10313217591E+03 -0.28664637103E+03  0.33236015877E+03  0.91277732227E+02 0.  0.
         23    2    1    2    0    0 -0.11559904727E+03  0.93853878257E+02  0.34299838648E+02  0.17514050600E+03  0.85592217613E+02 0.  0.
        -11    1    4    4    0    0  0.10227974765E+02  0.27282357831E+02  0.94842277377E+01  0.30641297172E+02  0.00000000000E+00 0.  1.
         11    1    4    4    0    0 -0.12582702204E+03  0.66571520426E+02  0.24815610911E+02  0.14449920883E+03  0.00000000000E+00 0. -1.
        -11    1    3    3    0    0 -0.60430212022E+01 -0.52675664389E+02 -0.10669637346E+03  0.11914428158E+03  0.00000000000E+00 0. -1.
         11    1    3    3    0    0  0.10263113128E+03 -0.50456511523E+02 -0.17994999757E+03  0.21321587719E+03  0.00000000000E+00 0.  1.
         21    1    1    2  502  501  0.19010937199E+02  0.92782976551E+01 -0.40298795635E+02  0.45513684428E+02  0.00000000000E+00 0. -1.
<scales pt_clust_5="13000.00000" pt_clust_6="13000.00000" pt_clust_7="13000.00000" pt_clust_8="13000.00000" pt_clust_9="21.15426"></scales>
<clustering>
<clus scale="   21.154">  2  9  1 -1</clus>
<clus scale="   85.592">  5  6 -1 -1</clus>
<clus scale="   91.278">  7  8 -1 -1</clus>
<clus scale="  170.356">  1  5  2 -1</clus>
<clus scale="  170.356">  1  5  2 -1</clus>
</clustering>
</event>
<event>
 9    1  0.1484717E-005  0.1373491E+03  0.7546771E-02  0.1225818E+00
         -2   -1    0    0    0  501 -0.00000000000E+00  0.00000000000E+00  0.39365866777E+03  0.39365866777E+03  0.00000000000E+00 0.  1.
          2   -1    0    0  502    0  0.00000000000E+00 -0.00000000000E+00 -0.35150887116E+03  0.35150887116E+03  0.00000000000E+00 0. -1.
         23    2    1    2    0    0 -0.31919624608E+02 -0.77203740102E+02  0.78532674908E+02  0.14648081561E+03  0.91159028032E+02 0.  0.
         23    2    1    2    0    0  0.59786349974E+02 -0.33617938254E+02 -0.29482251629E+03  0.31611098964E+03  0.91111295941E+02 0.  0.
        -13    1    4    4    0    0  0.77233067279E+02 -0.72012781003E+01 -0.16264182123E+03  0.18019202840E+03  0.00000000000E+00 0. -1.
         13    1    4    4    0    0 -0.17446717306E+02 -0.26416660154E+02 -0.13218069506E+03  0.13591896124E+03  0.00000000000E+00 0.  1.
        -13    1    3    3    0    0 -0.23632178146E+02  0.14908920242E+01 -0.11745509164E+02  0.26432169576E+02  0.00000000000E+00 0.  1.
         13    1    3    3    0    0 -0.82874464611E+01 -0.78694632126E+02  0.90278184072E+02  0.12004864603E+03  0.00000000000E+00 0. -1.
         21    1    1    2  502  501 -0.27866725366E+02  0.11082167836E+03  0.25843963800E+03  0.28257573368E+03  0.00000000000E+00 0.  1.
<scales pt_clust_5="13000.00000" pt_clust_6="13000.00000" pt_clust_7="13000.00000" pt_clust_8="13000.00000" pt_clust_9="102.73661"></scales>
<clustering>
<clus scale="   91.111">  5  6 -1 -1</clus>
<clus scale="   91.159">  7  8 -1 -1</clus>
<clus scale="  114.043">  2  5  1 -1</clus>
<clus scale="  102.737">  1  9  2 -1</clus>
<clus scale="  114.043">  2  5  1 -1</clus>
</clustering>
</event>
<event>
 9    1  0.1484717E-005  0.2425064E+03  0.7546771E-02  0.1118353E+00
          1   -1    0    0  502    0  0.00000000000E+00  0.00000000000E+00  0.21440233794E+03  0.21440233794E+03  0.00000000000E+00 0. -1.
         -1   -1    0    0    0  501 -0.00000000000E+00 -0.00000000000E+00 -0.97647374105E+03  0.97647374105E+03  0.00000000000E+00 0.  1.
         23    2    1    2    0    0 -0.14662556192E+03 -0.17863532837E+03 -0.76000074085E+03  0.79932149530E+03  0.88904953723E+02 0.  0.
         23    2    1    2    0    0  0.15621304593E+03  0.15998342906E+03  0.11832891474E+03  0.26934218113E+03  0.92446012225E+02 0.  0.
        -11    1    4    4    0    0  0.12751490106E+02  0.73086486505E+02  0.38560698653E+02  0.83613171751E+02  0.00000000000E+00 0.  1.
         11    1    4    4    0    0  0.14346155583E+03  0.86896942560E+02  0.79768216087E+02  0.18572900938E+03  0.00000000000E+00 0. -1.
        -11    1    3    3    0    0 -0.25461350190E+02  0.10862488002E+01 -0.14548721258E+03  0.14770236733E+03  0.00000000000E+00 0. -1.
         11    1    3    3    0    0 -0.12116421173E+03 -0.17972157717E+03 -0.61451352827E+03  0.65161912797E+03  0.00000000000E+00 0.  1.
         21    1    1    2  502  501 -0.95874840116E+01  0.18651899303E+02 -0.12039957700E+03  0.12221240256E+03  0.00000000000E+00 0. -1.
<scales pt_clust_5="13000.00000" pt_clust_6="13000.00000" pt_clust_7="13000.00000" pt_clust_8="13000.00000" pt_clust_9="20.97172"></scales>
<clustering>
<clus scale="   20.972">  2  9  1 -1</clus>
<clus scale="   88.905">  7  8 -1 -1</clus>
<clus scale="   92.446">  5  6 -1 -1</clus>
<clus scale="  241.179">  2  7  1 -1</clus>
<clus scale="  242.506">  1  5  2 -1</clus>
</clustering>
</event>
<event>
 9    1  0.1484717E-005  0.9470530E+02  0.7546771E-02  0.1291852E+00
          1   -1    0    0  502    0  0.00000000000E+00  0.00000000000E+00  0.75586916673E+02  0.75586916673E+02  0.00000000000E+00 0. -1.
         -1   -1    0    0    0  501 -0.00000000000E+00 -0.00000000000E+00 -0.24659150931E+03  0.24659150931E+03  0.00000000000E+00 0.  1.
         23    2    1    2    0    0 -0.40485334082E+01 -0.16063650139E+02 -0.39608054189E+02  0.10095048591E+03  0.91366137990E+02 0.  0.
         23    2    1    2    0    0 -0.18017766745E+02  0.29251279433E+02 -0.11108613210E+02  0.98223793281E+02  0.91346784355E+02 0.  0.
        -13    1    4    4    0    0 -0.17890753856E+02  0.61510769780E+02  0.13770452929E+00  0.64059915977E+02  0.00000000000E+00 0. -1.
         13    1    4    4    0    0 -0.12701288828E+00 -0.32259490347E+02 -0.11246317739E+02  0.34163877304E+02  0.00000000000E+00 0.  1.
        -13    1    3    3    0    0  0.23458546654E+02  0.26599659712E+02  0.16968346888E+01  0.35506683257E+02  0.00000000000E+00 0. -1.
         13    1    3    3    0    0 -0.27507080063E+02 -0.42663309852E+02 -0.41304888877E+02  0.65443802657E+02  0.00000000000E+00 0.  1.
         21    1    1    2  502  501  0.22066300153E+02 -0.13187629293E+02 -0.12028792524E+03  0.12300414679E+03  0.00000000000E+00 0.  1.
<scales pt_clust_5="13000.00000" pt_clust_6="13000.00000" pt_clust_7="13000.00000" pt_clust_8="13000.00000" pt_clust_9="25.70671"></scales>
<clustering>
<clus scale="   25.707">  2  9  1 -1</clus>
<clus scale="   91.347">  5  6 -1 -1</clus>
<clus scale="   91.366">  7  8 -1 -1</clus>
<clus scale="   94.687">  1  5  2 -1</clus>
<clus scale="   94.687">  1  5  2 -1</clus>
</clustering>
</event>
<event>
 9    1  0.1484717E-005  0.9477308E+02  0.7546771E-02  0.1295174E+00
         -2   -1    0    0    0  501 -0.00000000000E+00  0.00000000000E+00  0.93914345712E+02  0.93914345712E+02  0.00000000000E+00 0.  1.
          2   -1    0    0  502    0  0.00000000000E+00 -0.00000000000E+00 -0.18366234723E+03  0.18366234723E+03  0.00000000000E+00 0. -1.
         23    2    1    2    0    0  0.20888247984E+02  0.20138040159E+02  0.94036946818E-01  0.88697316684E+02  0.83817334595E+02 0.  0.
         23    2    1    2    0    0 -0.32246445900E+02  0.15520093631E+02 -0.10979020637E+03  0.14647135146E+03  0.90106940929E+02 0.  0.
        -13    1    4    4    0    0 -0.59691135271E+02 -0.66194210881E+01 -0.55750302630E+02  0.81944765597E+02  0.00000000000E+00 0. -1.
         13    1    4    4    0    0  0.27444689371E+02  0.22139514719E+02 -0.54039903737E+02  0.64526585859E+02  0.00000000000E+00 0.  1.
        -13    1    3    3    0    0  0.24758054215E+02  0.44547188191E+02  0.22152343092E+02  0.55571031381E+02  0.00000000000E+00 0.  1.
         13    1    3    3    0    0 -0.38698062309E+01 -0.24409148033E+02 -0.22058306145E+02  0.33126285303E+02  0.00000000000E+00 0. -1.
         21    1    1    2  502  501  0.11358197917E+02 -0.35658133789E+02  0.19948167900E+02  0.42408024805E+02  0.00000000000E+00 0. -1.
<scales pt_clust_5="13000.00000" pt_clust_6="13000.00000" pt_clust_7="13000.00000" pt_clust_8="13000.00000" pt_clust_9="37.42340"></scales>
<clustering>
<clus scale="   37.423">  1  9  2 -1</clus>
<clus scale="   83.817">  7  8 -1 -1</clus>
<clus scale="   88.815">  1  7  2 -1</clus>
<clus scale="   90.107">  5  6 -1 -1</clus>
<clus scale="   94.773">  2  5  1 -1</clus>
</clustering>
</event>
<event>
 9    1  0.1484717E-005  0.1143145E+03  0.7546771E-02  0.1253806E+00
          1   -1    0    0  502    0  0.00000000000E+00  0.00000000000E+00  0.68025030893E+02  0.68025030893E+02  0.00000000000E+00 0. -1.
         -1   -1    0    0    0  501 -0.00000000000E+00 -0.00000000000E+00 -0.28339331249E+03  0.28339331249E+03  0.00000000000E+00 0.  1.
         23    2    1    2    0    0  0.57982374881E+01  0.52740796385E+02 -0.10227570343E+03  0.14572548052E+03  0.89220989679E+02 0.  0.
         23    2    1    2    0    0  0.15383347093E+02 -0.77602995846E+02 -0.43764657954E+02  0.12905638977E+03  0.92094158999E+02 0.  0.
        -13    1    4    4    0    0  0.32209262582E+02 -0.68560449672E+01  0.14394686422E+02  0.35939517885E+02  0.00000000000E+00 0.  1.
         13    1    4    4    0    0 -0.16825915489E+02 -0.70746950879E+02 -0.58159344376E+02  0.93116871882E+02  0.00000000000E+00 0. -1.
        -13    1    3    3    0    0 -0.15922317933E+02  0.41166257175E+02 -0.38914254614E+01  0.44309413563E+02  0.00000000000E+00 0. -1.
         13    1    3    3    0    0  0.21720555421E+02  0.11574539210E+02 -0.98384277966E+02  0.10141606696E+03  0.00000000000E+00 0.  1.
         21    1    1    2  502  501 -0.21181584581E+02  0.24862199462E+02 -0.69327920215E+02  0.76636473097E+02  0.00000000000E+00 0. -1.
<scales pt_clust_5="13000.00000" pt_clust_6="13000.00000" pt_clust_7="13000.00000" pt_clust_8="13000.00000" pt_clust_9="32.66173"></scales>
<clustering>
<clus scale="   32.662">  2  9  1 -1</clus>
<clus scale="   89.221">  7  8 -1 -1</clus>
<clus scale="   92.094">  5  6 -1 -1</clus>
<clus scale="  112.013">  2  7  1 -1</clus>
<clus scale="  114.314">  1  5  2 -1</clus>
</clustering>
</event>
<event>
 9    1  0.1484717E-005  0.1488987E+03  0.7546771E-02  0.1201963E+00
         -2   -1    0    0    0  501 -0.00000000000E+00  0.00000000000E+00  0.46986006764E+03  0.46986006764E+03  0.00000000000E+00 0.  1.
          2   -1    0    0  502    0  0.00000000000E+00 -0.00000000000E+00 -0.72295789637E+02  0.72295789637E+02  0.00000000000E+00 0. -1.
         23    2    1    2    0    0 -0.76576740144E+02  0.11123587070E+03  0.21602257960E+03  0.27037193541E+03  0.90541772123E+02 0.  0.
         23    2    1    2    0    0  0.50311973165E+02 -0.98297207222E+02  0.74231920376E+02  0.16055157290E+03  0.89848728234E+02 0.  0.
        -11    1    3    3    0    0 -0.26982315438E+02  0.24755889999E+02  0.49635075489E+01  0.36953157419E+02  0.00000000000E+00 0. -1.
         11    1    3    3    0    0 -0.49594424706E+02  0.86479980704E+02  0.21105907205E+03  0.23341877799E+03  0.00000000000E+00 0.  1.
        -13    1    4    4    0    0  0.38248808635E+02 -0.64466990253E+01  0.52712562012E+02  0.65445744585E+02  0.00000000000E+00 0.  1.
         13    1    4    4    0    0  0.12063164530E+02 -0.91850508196E+02  0.21519358364E+02  0.95105828312E+02  0.00000000000E+00 0. -1.
         21    1    1    2  502  501  0.26264766979E+02 -0.12938663482E+02  0.10730977802E+03  0.11123234897E+03  0.00000000000E+00 0.  1.
<scales pt_clust_5="13000.00000" pt_clust_6="13000.00000" pt_clust_7="13000.00000" pt_clust_8="13000.00000" pt_clust_9="29.27878"></scales>
<clustering>
<clus scale="   29.279">  1  9  2 -1</clus>
<clus scale="   89.849">  7  8 -1 -1</clus>
<clus scale="   90.542">  5  6 -1 -1</clus>
<clus scale="  148.478">  2  7  1 -1</clus>
<clus scale="  148.478">  2  5  1 -1</clus>
</clustering>
</event>
<event>
 9    1  0.1484717E-005  0.1190908E+03  0.7546771E-02  0.1247520E+00
          2   -1    0    0  502    0  0.00000000000E+00  0.00000000000E+00  0.87419072694E+03  0.87419072694E+03  0.00000000000E+00 0. -1.
         -2   -1    0    0    0  501 -0.00000000000E+00 -0.00000000000E+00 -0.19746687455E+02  0.19746687455E+02  0.00000000000E+00 0.  1.
         23    2    1    2    0    0 -0.48893130925E+02 -0.67130956676E+02  0.31790796987E+03  0.33882717149E+03  0.82711977599E+02 0.  0.
         23    2    1    2    0    0  0.56720473414E+02  0.44944720779E+02  0.47693013064E+03  0.49102932285E+03  0.91707177232E+02 0.  0.
        -11    1    3    3    0    0 -0.45422713617E+02 -0.12245396646E+02  0.23273600564E+03  0.23744308996E+03  0.00000000000E+00 0. -1.
         11    1    3    3    0    0 -0.34704173082E+01 -0.54885560030E+02  0.85171964231E+02  0.10138408153E+03  0.00000000000E+00 0.  1.
        -13    1    4    4    0    0  0.53441799734E+02  0.71905884545E+02  0.35854696797E+03  0.36957057571E+03  0.00000000000E+00 0. -1.
         13    1    4    4    0    0  0.32786736799E+01 -0.26961163766E+02  0.11838316267E+03  0.12145874714E+03  0.00000000000E+00 0.  1.
         21    1    1    2  502  501 -0.78273424893E+01  0.22186235897E+02  0.59605938972E+02  0.64080920050E+02  0.00000000000E+00 0.  1.
<scales pt_clust_5="13000.00000" pt_clust_6="13000.00000" pt_clust_7="13000.00000" pt_clust_8="13000.00000" pt_clust_9="23.52650"></scales>
<clustering>
<clus scale="   23.527">  2  9  1 -1</clus>
<clus scale="   82.712">  5  6 -1 -1</clus>
<clus scale="   91.707">  7  8 -1 -1</clus>
<clus scale="  112.311">  2  5  1 -1</clus>
<clus scale="  119.091">  1  5  2 -1</clus>
</clustering>
</event>
<event>
 9    1  0.1484717E-005  0.1075111E+03  0.7546771E-02  0.1265467E+00
         -1   -1    0    0    0  501 -0.00000000000E+00  0.00000000000E+00  0.31214266082E+02  0.31214266082E+02  0.00000000000E+00 0.  1.
          1   -1    0    0  502    0  0.00000000000E+00 -0.00000000000E+00 -0.71738674076E+03  0.71738674076E+03  0.00000000000E+00 0. -1.
         23    2    1    2    0    0  0.46153125615E+02 -0.32271839110E+02 -0.28545798053E+03  0.30489326441E+03  0.91115648647E+02 0.  0.
         23    2    1    2    0    0 -0.65075984259E+02 -0.11095594855E+02 -0.37163771524E+03  0.38817155622E+03  0.90579079899E+02 0.  0.
        -13    1    3    3    0    0  0.67526352577E+02 -0.45304910053E+02 -0.23266600391E+03  0.24646665604E+03  0.00000000000E+00 0. -1.
         13    1    3    3    0    0 -0.21373226962E+02  0.13033070944E+02 -0.52791976626E+02  0.58426608365E+02  0.00000000000E+00 0.  1.
        -13    1    4    4    0    0 -0.51478584715E+02 -0.43612913436E+02 -0.16038060436E+03  0.17399445151E+03  0.00000000000E+00 0.  1.
         13    1    4    4    0    0 -0.13597399544E+02  0.32517318581E+02 -0.21125711089E+03  0.21417710471E+03  0.00000000000E+00 0. -1.
         21    1    1    2  502  501  0.18922858643E+02  0.43367433965E+02 -0.29076778907E+02  0.55536186217E+02  0.00000000000E+00 0.  1.
<scales pt_clust_5="13000.00000" pt_clust_6="13000.00000" pt_clust_7="13000.00000" pt_clust_8="13000.00000" pt_clust_9="47.31605"></scales>
<clustering>
<clus scale="   47.316">  1  9  2 -1</clus>
<clus scale="   90.579">  7  8 -1 -1</clus>
<clus scale="   91.116">  5  6 -1 -1</clus>
<clus scale="  107.057">  2  7  1 -1</clus>
<clus scale="  107.057">  2  5  1 -1</clus>
</clustering>
</event>
<event>
 9    1  0.1484717E-005  0.2376454E+03  0.7546771E-02  0.1121475E+00
         -3   -1    0    0    0  501 -0.00000000000E+00  0.00000000000E+00  0.63525698604E+02  0.63525698604E+02  0.00000000000E+00 0.  1.
          3   -1    0    0  502    0  0.00000000000E+00 -0.00000000000E+00 -0.12480592262E+04  0.12480592262E+04  0.00000000000E+00 0. -1.
         23    2    1    2    0    0 -0.22406969318E+03 -0.76141171507E+02 -0.37638955131E+03  0.45362125751E+03  0.89991363620E+02 0.  0.
         23    2    1    2    0    0  0.20647426045E+03  0.48576837704E+02 -0.78394573452E+03  0.81728263174E+03  0.91589606815E+02 0.  0.
        -11    1    4    4    0    0  0.21197200709E+02  0.31320974149E+02 -0.22554575907E+03  0.22869458712E+03  0.00000000000E+00 0.  1.
         11    1    4    4    0    0  0.18527705974E+03  0.17255863555E+02 -0.55839997545E+03  0.58858804462E+03  0.00000000000E+00 0. -1.
        -11    1    3    3    0    0 -0.15140970862E+03 -0.78592047923E+02 -0.31601375481E+03  0.35911878688E+03  0.00000000000E+00 0. -1.
         11    1    3    3    0    0 -0.72659984563E+02  0.24508764169E+01 -0.60375796504E+02  0.94502470632E+02  0.00000000000E+00 0.  1.
         21    1    1    2  502  501  0.17595432736E+02  0.27564333802E+02 -0.24198241810E+02  0.40681035604E+02  0.00000000000E+00 0. -1.
<scales pt_clust_5="13000.00000" pt_clust_6="13000.00000" pt_clust_7="13000.00000" pt_clust_8="13000.00000" pt_clust_9="32.70156"></scales>
<clustering>
<clus scale="   32.702">  1  9  2 -1</clus>
<clus scale="   89.991">  7  8 -1 -1</clus>
<clus scale="   91.590">  5  6 -1 -1</clus>
<clus scale="  237.034">  1  7  2 -1</clus>
<clus scale="  237.645">  2  5  1 -1</clus>
</clustering>
</event>
<event>
 9    1  0.1484717E-005  0.1424543E+03  0.7546771E-02  0.1210778E+00
          2   -1    0    0  502    0  0.00000000000E+00  0.00000000000E+00  0.55204239365E+03  0.55204239365E+03  0.00000000000E+00 0. -1.
         -2   -1    0    0    0  501 -0.00000000000E+00 -0.00000000000E+00 -0.59502203572E+02  0.59502203572E+02  0.00000000000E+00 0.  1.
         23    2    1    2    0    0 -0.36035095784E+02 -0.11192205771E+03  0.15355423344E+03  0.21465466832E+03  0.93127057800E+02 0.  0.
         23    2    1    2    0    0  0.70043775420E+02  0.79788794770E+02  0.31496640725E+03  0.34429643471E+03  0.89798747271E+02 0.  0.
        -11    1    3    3    0    0 -0.62869505636E+02 -0.48547105045E+02  0.65891362722E+02  0.10320401072E+03  0.00000000000E+00 0. -1.
         11    1    3    3    0    0  0.26834409852E+02 -0.63374952668E+02  0.87662870714E+02  0.11145065760E+03  0.00000000000E+00 0.  1.
        -13    1    4    4    0    0  0.32081539617E+02 -0.15397382469E+02  0.10026627225E+03  0.10639374945E+03  0.00000000000E+00 0.  1.
         13    1    4    4    0    0  0.37962235803E+02  0.95186177239E+02  0.21470013501E+03  0.23790268527E+03  0.00000000000E+00 0. -1.
         21    1    1    2  502  501 -0.34008679637E+02  0.32133262943E+02  0.24019549385E+02  0.52593494186E+02  0.00000000000E+00 0. -1.
<scales pt_clust_5="13000.00000" pt_clust_6="13000.00000" pt_clust_7="13000.00000" pt_clust_8="13000.00000" pt_clust_9="46.78821"></scales>
<clustering>
<clus scale="   46.788">  2  9  1 -1</clus>
<clus scale="   89.799">  7  8 -1 -1</clus>
<clus scale="   93.127">  5  6 -1 -1</clus>
<clus scale="  140.301">  1  7  2 -1</clus>
<clus scale="  140.301">  1  5  2 -1</clus>
</clustering>
</event>
<event>
 9    1  0.1484717E-005  0.1043751E+03  0.7546771E-02  0.1271595E+00
          2   -1    0    0  502    0  0.00000000000E+00  0.00000000000E+00  0.19249005474E+03  0.19249005474E+03  0.00000000000E+00 0. -1.
         -2   -1    0    0    0  501 -0.00000000000E+00 -0.00000000000E+00 -0.10400573436E+03  0.10400573436E+03  0.00000000000E+00 0.  1.
         23    2    1    2    0    0 -0.31809094310E+02  0.76323126188E+01 -0.19557847427E+02  0.98076724330E+02  0.90368488881E+02 0.  0.
         23    2    1    2    0    0  0.44930836242E+02 -0.37911630999E+02  0.12153388957E+03  0.16276736371E+03  0.90921155754E+02 0.  0.
        -11    1    4    4    0    0  0.57931845090E+02  0.76645140727E+01  0.83917769962E+02  0.10225964779E+03  0.00000000000E+00 0. -1.
         11    1    4    4    0    0 -0.13001008848E+02 -0.45576145072E+02  0.37616119606E+02  0.60507715912E+02  0.00000000000E+00 0.  1.
        -13    1    3    3    0    0 -0.22750566002E+02 -0.26593074897E+02  0.23633480375E+02  0.42229388825E+02  0.00000000000E+00 0. -1.
         13    1    3    3    0    0 -0.90585283081E+01  0.34225387516E+02 -0.43191327802E+02  0.55847335505E+02  0.00000000000E+00 0.  1.
         21    1    1    2  502  501 -0.13121741932E+02  0.30279318380E+02 -0.13491721758E+02  0.35651701066E+02  0.00000000000E+00 0. -1.
<scales pt_clust_5="13000.00000" pt_clust_6="13000.00000" pt_clust_7="13000.00000" pt_clust_8="13000.00000" pt_clust_9="33.00026"></scales>
<clustering>
<clus scale="   33.000">  2  9  1 -1</clus>
<clus scale="   90.368">  7  8 -1 -1</clus>
<clus scale="   90.921">  5  6 -1 -1</clus>
<clus scale="  103.894">  2  7  1 -1</clus>
<clus scale="  104.375">  1  5  2 -1</clus>
</clustering>
</event>
<event>
 9    1  0.1484717E-005  0.2151585E+03  0.7546771E-02  0.1138369E+00
         -1   -1    0    0    0  501 -0.00000000000E+00  0.00000000000E+00  0.83973426341E+02  0.83973426341E+02  0.00000000000E+00 0.  1.
          1   -1    0    0  502    0  0.00000000000E+00 -0.00000000000E+00 -0.74562210493E+03  0.74562210493E+03  0.00000000000E+00 0. -1.
         23    2    1    2    0    0  0.86210141814E+02 -0.18708179740E+03 -0.22087818371E+03  0.31517710134E+03  0.90097978354E+02 0.  0.
         23    2    1    2    0    0 -0.69366710260E+02  0.16955967771E+03 -0.44337795155E+03  0.48997411167E+03  0.99641343795E+02 0.  0.
        -11    1    4    4    0    0 -0.63542421552E+02  0.34572942650E+02 -0.13142353284E+03  0.15001690799E+03  0.00000000000E+00 0. -1.
         11    1    4    4    0    0 -0.58242887073E+01  0.13498673506E+03 -0.31195441871E+03  0.33995720368E+03  0.00000000000E+00 0.  1.
        -11    1    3    3    0    0  0.45817014933E+02 -0.10146304288E+03 -0.54970497300E+02  0.12415999155E+03  0.00000000000E+00 0.  1.
         11    1    3    3    0    0  0.40393126882E+02 -0.85618754513E+02 -0.16590768641E+03  0.19101710979E+03  0.00000000000E+00 0. -1.
         21    1    1    2  502  501 -0.16843431555E+02  0.17522119689E+02  0.26074566644E+01  0.24444318260E+02  0.00000000000E+00 0.  1.
<scales pt_clust_5="13000.00000" pt_clust_6="13000.00000" pt_clust_7="13000.00000" pt_clust_8="13000.00000" pt_clust_9="24.30485"></scales>
<clustering>
<clus scale="   24.305">  1  9  2 -1</clus>
<clus scale="   90.098">  7  8 -1 -1</clus>
<clus scale="   99.641">  5  6 -1 -1</clus>
<clus scale="  210.909">  1  7  2 -1</clus>
<clus scale="  215.158">  2  5  1 -1</clus>
</clustering>
</event>
<event>
 9    1  0.1993026E-005  0.3637995E+03  0.7546771E-02  0.1057222E+00
         -1   -1    0    0    0  501 -0.00000000000E+00  0.00000000000E+00  0.28180065561E+03  0.28180065561E+03  0.00000000000E+00 0.  1.
          1   -1    0    0  502    0  0.00000000000E+00 -0.00000000000E+00 -0.11521560946E+04  0.11521560946E+04  0.00000000000E+00 0. -1.
         23    2    1    2    0    0  0.11818641722E+03  0.37575948353E+03  0.43072096069E+02  0.40595806988E+03  0.88224318441E+02 0.  0.
         23    2    1    2    0    0 -0.74557533088E+02 -0.33713223609E+03 -0.89958114842E+03  0.96810488937E+03  0.93615510918E+02 0.  0.
        -11    1    3    3    0    0  0.96601166245E+02  0.28657529431E+03 -0.48100501992E+01  0.30245713946E+03  0.00000000000E+00 0.  1.
         11    1    3    3    0    0  0.21585250972E+02  0.89184189222E+02  0.47882146268E+02  0.10350093042E+03  0.00000000000E+00 0. -1.
        -11    1    4    4    0    0 -0.47152272547E+02 -0.17214725686E+03 -0.33914054290E+03  0.38324185926E+03  0.00000000000E+00 0.  1.
         11    1    4    4    0    0 -0.27405260541E+02 -0.16498497923E+03 -0.56044060552E+03  0.58486303011E+03  0.00000000000E+00 0. -1.
         21    1    1    2  502  501 -0.43628884129E+02 -0.38627247437E+02 -0.13846386666E+02  0.59893790986E+02  0.00000000000E+00 0.  1.
<scales pt_clust_5="13000.00000" pt_clust_6="13000.00000" pt_clust_7="13000.00000" pt_clust_8="13000.00000" pt_clust_9="58.27129"></scales>
<clustering>
<clus scale="   58.271">  1  9  2 -1</clus>
<clus scale="   88.224">  5  6 -1 -1</clus>
<clus scale="   93.616">  7  8 -1 -1</clus>
<clus scale="  362.450">  1  5  2 -1</clus>
<clus scale="  363.799">  2  5  1 -1</clus>
</clustering>
</event>
<event>
 9    1  0.1484717E-005  0.1045024E+03  0.7546771E-02  0.1275172E+00
         -2   -1    0    0    0  501 -0.00000000000E+00  0.00000000000E+00  0.79419802553E+02  0.79419802553E+02  0.00000000000E+00 0.  1.
          2   -1    0    0  502    0  0.00000000000E+00 -0.00000000000E+00 -0.21581609731E+03  0.21581609731E+03  0.00000000000E+00 0. -1.
         23    2    1    2    0    0 -0.50361009059E+02  0.22851742711E+02 -0.33364211026E+02  0.11841348967E+03  0.99247924810E+02 0.  0.
         23    2    1    2    0    0  0.23219633112E+02 -0.48341266450E+01 -0.10877525305E+03  0.14374261620E+03  0.90925045472E+02 0.  0.
        -13    1    4    4    0    0  0.57602137720E+02 -0.12010394994E+02 -0.68679031552E+02  0.90438184594E+02  0.00000000000E+00 0.  1.
         13    1    4    4    0    0 -0.34382504608E+02  0.71762683486E+01 -0.40096221497E+02  0.53304431606E+02  0.00000000000E+00 0. -1.
        -13    1    3    3    0    0 -0.69766740647E+02  0.41094262603E+01  0.65963947661E+01  0.70198275681E+02  0.00000000000E+00 0. -1.
         13    1    3    3    0    0  0.19405731587E+02  0.18742316450E+02 -0.39960605792E+02  0.48215213985E+02  0.00000000000E+00 0.  1.
         21    1    1    2  502  501  0.27141375947E+02 -0.18017616066E+02  0.57431693191E+01  0.33079793996E+02  0.00000000000E+00 0.  1.
<scales pt_clust_5="13000.00000" pt_clust_6="13000.00000" pt_clust_7="13000.00000" pt_clust_8="13000.00000" pt_clust_9="32.57743"></scales>
<clustering>
<clus scale="   32.577">  1  9  2 -1</clus>
<clus scale="   90.925">  5  6 -1 -1</clus>
<clus scale="   96.633">  2  5  1 -1</clus>
<clus scale="   99.248">  7  8 -1 -1</clus>
<clus scale="   96.633">  2  5  1 -1</clus>
</clustering>
</event>
<event>
 9    1  0.1484717E-005  0.2204751E+03  0.7546771E-02  0.1154022E+00
         -2   -1    0    0    0  501 -0.00000000000E+00  0.00000000000E+00  0.14741011052E+03  0.14741011052E+03  0.00000000000E+00 0.  1.
          2   -1    0    0  502    0  0.00000000000E+00 -0.00000000000E+00 -0.59089333062E+03  0.59089333062E+03  0.00000000000E+00 0. -1.
         23    2    1    2    0    0  0.97235629168E+02 -0.24450017028E+02 -0.27353315976E+02  0.13767603771E+03  0.90299039601E+02 0.  0.
         23    2    1    2    0    0 -0.19294508822E+03 -0.12895332754E+03 -0.27593043569E+03  0.37182885093E+03  0.90897311789E+02 0.  0.
        -11    1    4    4    0    0 -0.10673983199E+03 -0.30451316920E+02 -0.82626444784E+02  0.13837558965E+03  0.00000000000E+00 0.  1.
         11    1    4    4    0    0 -0.86205256229E+02 -0.98502010620E+02 -0.19330399091E+03  0.23345326127E+03  0.00000000000E+00 0. -1.
        -13    1    3    3    0    0  0.83494504484E+02  0.20953429707E+02 -0.80409831135E+01  0.86458289972E+02  0.00000000000E+00 0. -1.
         13    1    3    3    0    0  0.13741124685E+02 -0.45403446735E+02 -0.19312332863E+02  0.51217747740E+02  0.00000000000E+00 0.  1.
         21    1    1    2  502  501  0.95709459047E+02  0.15340334457E+03 -0.14019946843E+03  0.22879855250E+03  0.00000000000E+00 0.  1.
<scales pt_clust_5="13000.00000" pt_clust_6="13000.00000" pt_clust_7="13000.00000" pt_clust_8="13000.00000" pt_clust_9="200.86553"></scales>
<clustering>
<clus scale="   90.299">  7  8 -1 -1</clus>
<clus scale="   90.897">  5  6 -1 -1</clus>
<clus scale="  134.931">  1  7  2 -1</clus>
<clus scale="  200.866">  1  9  2 -1</clus>
<clus scale="  220.475">  2  5  1 -1</clus>
</clustering>
</event>
<event>
 9    1  0.1484717E-005  0.1138595E+03  0.7546771E-02  0.1257309E+00
          1   -1    0    0  502    0  0.00000000000E+00  0.00000000000E+00  0.94435569185E+02  0.94435569185E+02  0.00000000000E+00 0. -1.
         -1   -1    0    0    0  501 -0.00000000000E+00 -0.00000000000E+00 -0.25349124935E+03  0.25349124935E+03  0.00000000000E+00 0.  1.
         23    2    1    2    0    0 -0.37695288627E+02  0.40087645464E+01 -0.15678610751E+03  0.18571589147E+03  0.92040772808E+02 0.  0.
         23    2    1    2    0    0  0.54667212738E+02  0.13214780525E+02  0.32109433163E+02  0.12017983436E+03  0.10123755388E+03 0.  0.
        -11    1    3    3    0    0 -0.32060006153E+01 -0.41728251666E+02 -0.74575174456E+02  0.85515975538E+02  0.00000000000E+00 0. -1.
         11    1    3    3    0    0 -0.34489288012E+02  0.45737016212E+02 -0.82210933057E+02  0.10019991594E+03  0.00000000000E+00 0.  1.
        -11    1    4    4    0    0 -0.26600675340E+02  0.92327526396E+01  0.26426784393E+02  0.38616247658E+02  0.00000000000E+00 0.  1.
         11    1    4    4    0    0  0.81267888077E+02  0.39820278854E+01  0.56826487704E+01  0.81563586702E+02  0.00000000000E+00 0. -1.
         21    1    1    2  502  501 -0.16971924111E+02 -0.17223545071E+02 -0.34379005820E+02  0.42031092705E+02  0.00000000000E+00 0.  1.
<scales pt_clust_5="13000.00000" pt_clust_6="13000.00000" pt_clust_7="13000.00000" pt_clust_8="13000.00000" pt_clust_9="24.18050"></scales>
<clustering>
<clus scale="   24.181">  2  9  1 -1</clus>
<clus scale="   92.041">  5  6 -1 -1</clus>
<clus scale="  101.238">  7  8 -1 -1</clus>
<clus scale="  105.766">  2  5  1 -1</clus>
<clus scale="  113.859">  1  5  2 -1</clus>
</clustering>
</event>
<event>
 9    1  0.1484717E-005  0.1262353E+03  0.7546771E-02  0.1233273E+00
         -1   -1    0    0    0  501 -0.00000000000E+00  0.00000000000E+00  0.53014106294E+02  0.53014106294E+02  0.00000000000E+00 0.  1.
          1   -1    0    0  502    0  0.00000000000E+00 -0.00000000000E+00 -0.58110751439E+03  0.58110751439E+03  0.00000000000E+00 0. -1.
         23    2    1    2    0    0  0.11573785938E+02  0.98980199922E+02 -0.25808988443E+03  0.29131538405E+03  0.91231749095E+02 0.  0.
         23    2    1    2    0    0 -0.23165769886E+02 -0.75369915792E+02 -0.28721483679E+03  0.31137299137E+03  0.90793723227E+02 0.  0.
        -13    1    3    3    0    0  0.33703570312E+02  0.91021451048E+02 -0.24685681836E+03  0.26525294339E+03  0.00000000000E+00 0. -1.
         13    1    3    3    0    0 -0.22129784374E+02  0.79587488736E+01 -0.11233066062E+02  0.26062440661E+02  0.00000000000E+00 0.  1.
        -13    1    4    4    0    0  0.19294445739E+02 -0.42717701970E+02 -0.22241874179E+03  0.22730414514E+03  0.00000000000E+00 0. -1.
         13    1    4    4    0    0 -0.42460215625E+02 -0.32652213821E+02 -0.64796095005E+02  0.84068846229E+02  0.00000000000E+00 0.  1.
         21    1    1    2  502  501  0.11591983948E+02 -0.23610284130E+02  0.17211313125E+02  0.31433245268E+02  0.00000000000E+00 0. -1.
<scales pt_clust_5="13000.00000" pt_clust_6="13000.00000" pt_clust_7="13000.00000" pt_clust_8="13000.00000" pt_clust_9="26.30246"></scales>
<clustering>
<clus scale="   26.302">  1  9  2 -1</clus>
<clus scale="   90.794">  7  8 -1 -1</clus>
<clus scale="   91.232">  5  6 -1 -1</clus>
<clus scale="  125.919">  2  7  1 -1</clus>
<clus scale="  125.919">  2  5  1 -1</clus>
</clustering>
</event>
<event>
 9    1  0.1484717E-005  0.9324271E+02  0.7546771E-02  0.1296629E+00
         -3   -1    0    0    0  501 -0.00000000000E+00  0.00000000000E+00  0.12481119653E+03  0.12481119653E+03  0.00000000000E+00 0.  1.
          3   -1    0    0  502    0  0.00000000000E+00 -0.00000000000E+00 -0.53375699782E+03  0.53375699782E+03  0.00000000000E+00 0. -1.
         23    2    1    2    0    0  0.17182473349E+02  0.20134529132E+02 -0.91827455630E+02  0.13020711633E+03  0.88436275820E+02 0.  0.
         23    2    1    2    0    0 -0.20867955233E+02  0.10608247914E+02 -0.41510444735E+03  0.42559932814E+03  0.90967463551E+02 0.  0.
        -11    1    3    3    0    0 -0.32858027868E+02 -0.87268205468E+01 -0.27314682089E+02  0.43610769884E+02  0.00000000000E+00 0.  1.
         11    1    3    3    0    0  0.50040501217E+02  0.28861349679E+02 -0.64512773542E+02  0.86596346444E+02  0.00000000000E+00 0. -1.
        -11    1    4    4    0    0  0.29709431023E+02  0.27617972710E+02 -0.18178684894E+03  0.18625751302E+03  0.00000000000E+00 0. -1.
         11    1    4    4    0    0 -0.50577386257E+02 -0.17009724797E+02 -0.23331759841E+03  0.23934181512E+03  0.00000000000E+00 0.  1.
         21    1    1    2  502  501  0.36854818844E+01 -0.30742777046E+02  0.97986101682E+02  0.10276174989E+03  0.00000000000E+00 0.  1.
<scales pt_clust_5="13000.00000" pt_clust_6="13000.00000" pt_clust_7="13000.00000" pt_clust_8="13000.00000" pt_clust_9="30.96290"></scales>
<clustering>
<clus scale="   30.963">  1  9  2 -1</clus>
<clus scale="   88.436">  5  6 -1 -1</clus>
<clus scale="   90.775">  1  5  2 -1</clus>
<clus scale="   90.967">  7  8 -1 -1</clus>
<clus scale="   93.243">  2  5  1 -1</clus>
</clustering>
</event>
<event>
 9    1  0.1484717E-005  0.1046066E+03  0.7546771E-02  0.1272279E+00
         -1   -1    0    0    0  501 -0.00000000000E+00  0.00000000000E+00  0.31228567810E+03  0.31228567810E+03  0.00000000000E+00 0.  1.
          1   -1    0    0  502    0  0.00000000000E+00 -0.00000000000E+00 -0.26967777442E+03  0.26967777442E+03  0.00000000000E+00 0. -1.
         23    2    1    2    0    0  0.57447353299E+00  0.67265251139E+02 -0.53497145455E+02  0.12491447136E+03  0.90646216429E+02 0.  0.
         23    2    1    2    0    0  0.55702001827E+02 -0.83959547077E+01 -0.15690659810E+03  0.19125295152E+03  0.93727295236E+02 0.  0.
        -11    1    3    3    0    0 -0.20980710252E+02  0.83371581470E+02 -0.40682497855E+02  0.95110863897E+02  0.00000000000E+00 0. -1.
         11    1    3    3    0    0  0.21555183785E+02 -0.16106330331E+02 -0.12814647600E+02  0.29803607464E+02  0.00000000000E+00 0.  1.
        -13    1    4    4    0    0 -0.15213257953E+02  0.24915195685E+02 -0.28290026970E+02  0.40651393821E+02  0.00000000000E+00 0.  1.
         13    1    4    4    0    0  0.70915259780E+02 -0.33311150393E+02 -0.12861657113E+03  0.15060155770E+03  0.00000000000E+00 0. -1.
         21    1    1    2  502  501 -0.56276475360E+02 -0.58869296431E+02  0.25301164723E+03  0.26579602964E+03  0.00000000000E+00 0.  1.
<scales pt_clust_5="13000.00000" pt_clust_6="13000.00000" pt_clust_7="13000.00000" pt_clust_8="13000.00000" pt_clust_9="81.44100"></scales>
<clustering>
<clus scale="   81.441">  1  9  2 -1</clus>
<clus scale="   90.646">  5  6 -1 -1</clus>
<clus scale="   93.727">  7  8 -1 -1</clus>
<clus scale="  101.855">  1  5  2 -1</clus>
<clus scale="  104.607">  2  5  1 -1</clus>
</clustering>
</event>
<event>
 9    1  0.1484717E-005  0.1155902E+03  0.7546771E-02  0.1250637E+00
         -3   -1    0    0    0  501 -0.00000000000E+00  0.00000000000E+00  0.18729518338E+03  0.18729518338E+03  0.00000000000E+00 0.  1.
          3   -1    0    0  502    0  0.00000000000E+00 -0.00000000000E+00 -0.96300127901E+02  0.96300127901E+02  0.00000000000E+00 0. -1.
         23    2    1    2    0    0 -0.34263802545E+02 -0.77652469708E+02  0.47721483237E+02  0.13367784537E+03  0.91588821168E+02 0.  0.
         23    2    1    2    0    0  0.18143651571E+02  0.57520569205E+02  0.13760611598E+02  0.11072349276E+03  0.91828805091E+02 0.  0.
        -11    1    3    3    0    0 -0.10435998312E+02 -0.94741319171E+02  0.39912407499E+02  0.10333357582E+03  0.00000000000E+00 0.  1.
         11    1    3    3    0    0 -0.23827804233E+02  0.17088849463E+02  0.78090757378E+01  0.30344269548E+02  0.00000000000E+00 0. -1.
        -13    1    4    4    0    0  0.33894045359E+02  0.11010498440E+01 -0.23537645444E+02  0.41280011805E+02  0.00000000000E+00 0. -1.
         13    1    4    4    0    0 -0.15750393788E+02  0.56419519361E+02  0.37298257042E+02  0.69443480959E+02  0.00000000000E+00 0.  1.
         21    1    1    2  502  501  0.16120150974E+02  0.20131900503E+02  0.29512960639E+02  0.39193973146E+02  0.00000000000E+00 0.  1.
<scales pt_clust_5="13000.00000" pt_clust_6="13000.00000" pt_clust_7="13000.00000" pt_clust_8="13000.00000" pt_clust_9="25.79055"></scales>
<clustering>
<clus scale="   25.791">  1  9  2 -1</clus>
<clus scale="   91.589">  5  6 -1 -1</clus>
<clus scale="   91.829">  7  8 -1 -1</clus>
<clus scale="  115.400">  1  5  2 -1</clus>
<clus scale="  115.590">  2  5  1 -1</clus>
</clustering>
</event>
<event>
 9    1  0.1484717E-005  0.9451578E+02  0.7546771E-02  0.1292447E+00
          2   -1    0    0  502    0  0.00000000000E+00  0.00000000000E+00  0.14504637806E+03  0.14504637806E+03  0.00000000000E+00 0. -1.
         -2   -1    0    0    0  501 -0.00000000000E+00 -0.00000000000E+00 -0.88587974092E+02  0.88587974092E+02  0.00000000000E+00 0.  1.
         23    2    1    2    0    0  0.67940058397E+01 -0.92237746536E+01  0.12357679605E+02  0.92192415589E+02  0.90639355209E+02 0.  0.
         23    2    1    2    0    0 -0.31179293731E+02  0.18624974146E+02  0.55891444938E+02  0.11277059357E+03  0.90963262564E+02 0.  0.
        -11    1    3    3    0    0  0.48756429784E+02 -0.45610687452E+01  0.38276167981E+01  0.49118666958E+02  0.00000000000E+00 0.  1.
         11    1    3    3    0    0 -0.41962423944E+02 -0.46627059084E+01  0.85300628067E+01  0.43073748631E+02  0.00000000000E+00 0. -1.
        -11    1    4    4    0    0 -0.35507562916E+02 -0.99998129758E+01 -0.12140391522E+02  0.38835195250E+02  0.00000000000E+00 0.  1.
         11    1    4    4    0    0  0.43282691858E+01  0.28624787121E+02  0.68031836460E+02  0.73935398315E+02  0.00000000000E+00 0. -1.
         21    1    1    2  502  501  0.24385287891E+02 -0.94011994919E+01 -0.11790720578E+02  0.28671342995E+02  0.00000000000E+00 0.  1.
<scales pt_clust_5="13000.00000" pt_clust_6="13000.00000" pt_clust_7="13000.00000" pt_clust_8="13000.00000" pt_clust_9="26.13474"></scales>
<clustering>
<clus scale="   26.135">  2  9  1 -1</clus>
<clus scale="   90.639">  5  6 -1 -1</clus>
<clus scale="   90.963">  7  8 -1 -1</clus>
<clus scale="   94.204">  2  5  1 -1</clus>
<clus scale="   94.516">  1  5  2 -1</clus>
</clustering>
</event>
<event>
 9    1  0.1484717E-005  0.1044908E+03  0.7546771E-02  0.1272680E+00
         -3   -1    0    0    0  501 -0.00000000000E+00  0.00000000000E+00  0.62856714460E+03  0.62856714460E+03  0.00000000000E+00 0.  1.
          3   -1    0    0  502    0  0.00000000000E+00 -0.00000000000E+00 -0.38216960046E+02  0.38216960046E+02  0.00000000000E+00 0. -1.
         23    2    1    2    0    0 -0.24830853461E+02 -0.32282044434E+02  0.24856254742E+03  0.26730972223E+03  0.89512266975E+02 0.  0.
         23    2    1    2    0    0 -0.38655877473E+02  0.50531172088E+02  0.10632047957E+03  0.15491686780E+03  0.92992017605E+02 0.  0.
        -11    1    4    4    0    0  0.23688613033E+02 -0.10046768013E+02  0.25301172751E+02  0.36086524874E+02  0.00000000000E+00 0.  1.
         11    1    4    4    0    0 -0.62344490505E+02  0.60577940102E+02  0.81019306816E+02  0.11883034293E+03  0.00000000000E+00 0. -1.
        -13    1    3    3    0    0  0.33551541018E+02 -0.11588957210E+02  0.10858554884E+03  0.11424023481E+03  0.00000000000E+00 0. -1.
         13    1    3    3    0    0 -0.58382394479E+02 -0.20693087224E+02  0.13997699859E+03  0.15306948742E+03  0.00000000000E+00 0.  1.
         21    1    1    2  502  501  0.63486730934E+02 -0.18249127654E+02  0.23546715757E+03  0.24455751462E+03  0.00000000000E+00 0.  1.
<scales pt_clust_5="13000.00000" pt_clust_6="13000.00000" pt_clust_7="13000.00000" pt_clust_8="13000.00000" pt_clust_9="66.05752"></scales>
<clustering>
<clus scale="   66.058">  1  9  2 -1</clus>
<clus scale="   89.512">  7  8 -1 -1</clus>
<clus scale="   92.992">  5  6 -1 -1</clus>
<clus scale="  101.406">  1  7  2 -1</clus>
<clus scale="  104.491">  2  5  1 -1</clus>
</clustering>
</event>
<event>
 9    1  0.1484717E-005  0.1331549E+03  0.7546771E-02  0.1229607E+00
         -4   -1    0    0    0  501 -0.00000000000E+00  0.00000000000E+00  0.21948367596E+03  0.21948367596E+03  0.00000000000E+00 0.  1.
          4   -1    0    0  502    0  0.00000000000E+00 -0.00000000000E+00 -0.11575670955E+03  0.11575670955E+03  0.00000000000E+00 0. -1.
         23    2    1    2    0    0  0.68696776760E+02 -0.55396520102E+02  0.45965291842E+02  0.13125463592E+03  0.85597604054E+02 0.  0.
         23    2    1    2    0    0 -0.86261759982E+02  0.68570922058E+02 -0.18722884945E+02  0.12441200173E+03  0.54632748127E+02 0.  0.
        -13    1    3    3    0    0  0.59890310004E+02 -0.20466200538E+02  0.64820760495E+02  0.90594953436E+02  0.00000000000E+00 0.  1.
         13    1    3    3    0    0  0.88064667559E+01 -0.34930319565E+02 -0.18855468653E+02  0.40659682485E+02  0.00000000000E+00 0. -1.
        -13    1    4    4    0    0 -0.25837296156E+02  0.82464382704E+01  0.16834745053E+02  0.31921438843E+02  0.00000000000E+00 0.  1.
         13    1    4    4    0    0 -0.60424463826E+02  0.60324483787E+02 -0.35557629999E+02  0.92490562892E+02  0.00000000000E+00 0. -1.
         21    1    1    2  502  501  0.17564983222E+02 -0.13174401955E+02  0.76484559520E+02  0.79573747854E+02  0.00000000000E+00 0.  1.
<scales pt_clust_5="13000.00000" pt_clust_6="13000.00000" pt_clust_7="13000.00000" pt_clust_8="13000.00000" pt_clust_9="21.95663"></scales>
<clustering>
<clus scale="   21.957">  1  9  2 -1</clus>
<clus scale="   54.633">  7  8 -1 -1</clus>
<clus scale="   85.598">  5  6 -1 -1</clus>
<clus scale="  115.707">  2  7  1 -1</clus>
<clus scale="  115.707">  2  5  1 -1</clus>
</clustering>
</event>
<event>
 9    1  0.1484717E-005  0.2048795E+03  0.7546771E-02  0.1146652E+00
          1   -1    0    0  502    0  0.00000000000E+00  0.00000000000E+00  0.76293960339E+03  0.76293960339E+03  0.00000000000E+00 0. -1.
         -1   -1    0    0    0  501 -0.00000000000E+00 -0.00000000000E+00 -0.11687526726E+03  0.11687526726E+03  0.00000000000E+00 0.  1.
         23    2    1    2    0    0 -0.19253536567E+03 -0.41369372295E+02  0.20272965913E+03  0.29573755210E+03  0.87063729740E+02 0.  0.
         23    2    1    2    0    0  0.16904046933E+03  0.38521156479E+02  0.49162114152E+03  0.53030274144E+03  0.97319530551E+02 0.  0.
        -13    1    3    3    0    0 -0.17423513868E+03 -0.64020031041E+02  0.18224975151E+03  0.26013730961E+03  0.00000000000E+00 0.  1.
         13    1    3    3    0    0 -0.18300226983E+02  0.22650658746E+02  0.20479907617E+02  0.35600242489E+02  0.00000000000E+00 0. -1.
        -13    1    4    4    0    0  0.11926301982E+03  0.23226322025E+02  0.19958897806E+03  0.23366405392E+03  0.00000000000E+00 0. -1.
         13    1    4    4    0    0  0.49777449508E+02  0.15294834454E+02  0.29203216346E+03  0.29663868752E+03  0.00000000000E+00 0.  1.
         21    1    1    2  502  501  0.23494896337E+02  0.28482158157E+01 -0.48286464520E+02  0.53774577107E+02  0.00000000000E+00 0.  1.
<scales pt_clust_5="13000.00000" pt_clust_6="13000.00000" pt_clust_7="13000.00000" pt_clust_8="13000.00000" pt_clust_9="23.66691"></scales>
<clustering>
<clus scale="   23.667">  2  9  1 -1</clus>
<clus scale="   87.064">  5  6 -1 -1</clus>
<clus scale="   97.320">  7  8 -1 -1</clus>
<clus scale="  200.211">  2  5  1 -1</clus>
<clus scale="  204.879">  1  5  2 -1</clus>
</clustering>
</event>
<event>
 9    1  0.1493594E-005  0.1251601E+03  0.7546771E-02  0.1248086E+00
         -2   -1    0    0    0  501 -0.00000000000E+00  0.00000000000E+00  0.15686675786E+03  0.15686675786E+03  0.00000000000E+00 0.  1.
          2   -1    0    0  502    0  0.00000000000E+00 -0.00000000000E+00 -0.19712286701E+03  0.19712286701E+03  0.00000000000E+00 0. -1.
         23    2    1    2    0    0 -0.38968861354E+02 -0.20985163252E+02  0.91237931566E+02  0.15897535489E+03  0.12243305957E+03 0.  0.
         23    2    1    2    0    0  0.21952555501E+02  0.94456473012E+01 -0.14278074190E+03  0.17155995871E+03  0.92061632771E+02 0.  0.
        -13    1    4    4    0    0  0.50010357610E+01 -0.39452947892E+02 -0.85895672325E+02  0.94655226904E+02  0.00000000000E+00 0. -1.
         13    1    4    4    0    0  0.16951519740E+02  0.48898595193E+02 -0.56885069578E+02  0.76904731807E+02  0.00000000000E+00 0.  1.
        -13    1    3    3    0    0 -0.55094762845E+02 -0.57351724892E+02  0.28092725297E+02  0.84343668735E+02  0.00000000000E+00 0. -1.
         13    1    3    3    0    0  0.16125901491E+02  0.36366561640E+02  0.63145206269E+02  0.74631686160E+02  0.00000000000E+00 0.  1.
         21    1    1    2  502  501  0.17016305853E+02  0.11539515951E+02  0.11286701190E+02  0.23454311267E+02  0.00000000000E+00 0. -1.
<scales pt_clust_5="13000.00000" pt_clust_6="13000.00000" pt_clust_7="13000.00000" pt_clust_8="13000.00000" pt_clust_9="20.56004"></scales>
<clustering>
<clus scale="   20.560">  1  9  2 -1</clus>
<clus scale="   92.062">  5  6 -1 -1</clus>
<clus scale="   95.658">  2  5  1 -1</clus>
<clus scale="  122.433">  7  8 -1 -1</clus>
<clus scale="   95.658">  2  5  1 -1</clus>
</clustering>
</event>
<event>
 9    1  0.1484717E-005  0.1722250E+03  0.7546771E-02  0.1176755E+00
          1   -1    0    0  502    0  0.00000000000E+00  0.00000000000E+00  0.17898610593E+03  0.17898610593E+03  0.00000000000E+00 0. -1.
         -1   -1    0    0    0  501 -0.00000000000E+00 -0.00000000000E+00 -0.39638271174E+03  0.39638271174E+03  0.00000000000E+00 0.  1.
         23    2    1    2    0    0  0.25324631550E+02 -0.16179612782E+03 -0.15499052415E+03  0.24590392490E+03  0.98119079512E+02 0.  0.
         23    2    1    2    0    0 -0.11168947228E+02  0.13559001710E+03  0.81707517304E+02  0.18230554701E+03  0.89720655190E+02 0.  0.
        -13    1    3    3    0    0 -0.18626750829E+02 -0.31133855992E+02  0.27843799490E+01  0.36387162669E+02  0.00000000000E+00 0.  1.
         13    1    3    3    0    0  0.43951382379E+02 -0.13066227183E+03 -0.15777490410E+03  0.20951676223E+03  0.00000000000E+00 0. -1.
        -13    1    4    4    0    0 -0.83129493498E+01  0.34184676933E+02 -0.18469222582E+02  0.39734235197E+02  0.00000000000E+00 0. -1.
         13    1    4    4    0    0 -0.28559978785E+01  0.10140534017E+03  0.10017673989E+03  0.14257131181E+03  0.00000000000E+00 0.  1.
         21    1    1    2  502  501 -0.14155684322E+02  0.26206110723E+02 -0.14411359896E+03  0.14715934576E+03  0.00000000000E+00 0.  1.
<scales pt_clust_5="13000.00000" pt_clust_6="13000.00000" pt_clust_7="13000.00000" pt_clust_8="13000.00000" pt_clust_9="29.78496"></scales>
<clustering>
<clus scale="   29.785">  2  9  1 -1</clus>
<clus scale="   89.721">  7  8 -1 -1</clus>
<clus scale="   98.119">  5  6 -1 -1</clus>
<clus scale="  167.582">  1  7  2 -1</clus>
<clus scale="  167.582">  1  5  2 -1</clus>
</clustering>
</event>
<event>
 9    1  0.1484717E-005  0.1206399E+03  0.7546771E-02  0.1252918E+00
          3   -1    0    0  502    0  0.00000000000E+00  0.00000000000E+00  0.34602312069E+03  0.34602312069E+03  0.00000000000E+00 0. -1.
         -3   -1    0    0    0  501 -0.00000000000E+00 -0.00000000000E+00 -0.53762316019E+02  0.53762316019E+02  0.00000000000E+00 0.  1.
         23    2    1    2    0    0  0.15980434597E+02  0.37849179309E+02  0.53102272986E+02  0.11246496745E+03  0.90225178546E+02 0.  0.
         23    2    1    2    0    0  0.49008957689E+01 -0.34441686751E+02  0.23728048114E+03  0.26607975276E+03  0.11526560429E+03 0.  0.
        -13    1    3    3    0    0 -0.12388520647E+02  0.35271276031E+02  0.69990879440E+02  0.79348985889E+02  0.00000000000E+00 0. -1.
         13    1    3    3    0    0  0.28368955245E+02  0.25779032776E+01 -0.16888606455E+02  0.33115981564E+02  0.00000000000E+00 0.  1.
        -13    1    4    4    0    0  0.47773532023E+01  0.40282251860E+02  0.49629448826E+02  0.64098089748E+02  0.00000000000E+00 0.  1.
         13    1    4    4    0    0  0.12354256662E+00 -0.74723938611E+02  0.18765103231E+03  0.20198166301E+03  0.00000000000E+00 0. -1.
         21    1    1    2  502  501 -0.20881330366E+02 -0.34074925578E+01  0.18780505437E+01  0.21240716496E+02  0.00000000000E+00 0. -1.
<scales pt_clust_5="13000.00000" pt_clust_6="13000.00000" pt_clust_7="13000.00000" pt_clust_8="13000.00000" pt_clust_9="21.15753"></scales>
<clustering>
<clus scale="   21.158">  2  9  1 -1</clus>
<clus scale="   90.225">  5  6 -1 -1</clus>
<clus scale="   96.997">  2  5  1 -1</clus>
<clus scale="  115.266">  7  8 -1 -1</clus>
<clus scale="  120.640">  1  5  2 -1</clus>
</clustering>
</event>
<event>
 9    1  0.1484717E-005  0.1067439E+03  0.7546771E-02  0.1267422E+00
         -2   -1    0    0    0  501 -0.00000000000E+00  0.00000000000E+00  0.61444229013E+02  0.61444229013E+02  0.00000000000E+00 0.  1.
          2   -1    0    0  502    0  0.00000000000E+00 -0.00000000000E+00 -0.30989026224E+03  0.30989026224E+03  0.00000000000E+00 0. -1.
         23    2    1    2    0    0 -0.45959645335E+02 -0.30719289500E+02 -0.58481424389E+02  0.12062901878E+03  0.89862781097E+02 0.  0.
         23    2    1    2    0    0  0.32387476531E+02  0.45454763547E+02 -0.20101708982E+03  0.22782545287E+03  0.91550436438E+02 0.  0.
        -11    1    4    4    0    0  0.46413524207E+02  0.66506272723E+02 -0.14037079500E+03  0.16211495807E+03  0.00000000000E+00 0.  1.
         11    1    4    4    0    0 -0.14026047676E+02 -0.21051509176E+02 -0.60646294817E+02  0.65710494801E+02  0.00000000000E+00 0. -1.
        -13    1    3    3    0    0  0.12276821095E+02  0.22673981374E+02 -0.85484080565E+01  0.27164407740E+02  0.00000000000E+00 0.  1.
         13    1    3    3    0    0 -0.58236466430E+02 -0.53393270873E+02 -0.49933016332E+02  0.93464611040E+02  0.00000000000E+00 0. -1.
         21    1    1    2  502  501  0.13572168804E+02 -0.14735474047E+02  0.11052480976E+02  0.22880019606E+02  0.00000000000E+00 0. -1.
<scales pt_clust_5="13000.00000" pt_clust_6="13000.00000" pt_clust_7="13000.00000" pt_clust_8="13000.00000" pt_clust_9="20.03342"></scales>
<clustering>
<clus scale="   20.033">  1  9  2 -1</clus>
<clus scale="   89.863">  7  8 -1 -1</clus>
<clus scale="   91.550">  5  6 -1 -1</clus>
<clus scale="  105.300">  1  7  2 -1</clus>
<clus scale="  106.744">  2  5  1 -1</clus>
</clustering>
</event>
<event>
 9    1  0.1484717E-005  0.9160615E+02  0.7546771E-02  0.1300608E+00
         -2   -1    0    0    0  501 -0.00000000000E+00  0.00000000000E+00  0.75786736951E+02  0.75786736951E+02  0.00000000000E+00 0.  1.
          2   -1    0    0  502    0  0.00000000000E+00 -0.00000000000E+00 -0.24843031073E+03  0.24843031073E+03  0.00000000000E+00 0. -1.
         23    2    1    2    0    0 -0.23302402063E+01  0.14188267470E+02 -0.33820870883E+01  0.89959337387E+02  0.88738418494E+02 0.  0.
         23    2    1    2    0    0 -0.79888225189E+01  0.48180156873E+01 -0.18563634624E+03  0.20713100979E+03  0.91407699959E+02 0.  0.
        -11    1    4    4    0    0  0.10469922404E+02 -0.34714524075E+02 -0.35348556062E+02  0.50638304401E+02  0.00000000000E+00 0.  1.
         11    1    4    4    0    0 -0.18458744923E+02  0.39532539763E+02 -0.15028779017E+03  0.15649270539E+03  0.00000000000E+00 0. -1.
        -11    1    3    3    0    0  0.31167420906E+02  0.27489777066E+02  0.20883142509E+02  0.46510231241E+02  0.00000000000E+00 0.  1.
         11    1    3    3    0    0 -0.33497661112E+02 -0.13301509596E+02 -0.24265229597E+02  0.43449106146E+02  0.00000000000E+00 0. -1.
         21    1    1    2  502  501  0.10319062725E+02 -0.19006283158E+02  0.16374859548E+02  0.27126700504E+02  0.00000000000E+00 0.  1.
<scales pt_clust_5="13000.00000" pt_clust_6="13000.00000" pt_clust_7="13000.00000" pt_clust_8="13000.00000" pt_clust_9="21.62688"></scales>
<clustering>
<clus scale="   21.627">  1  9  2 -1</clus>
<clus scale="   88.738">  7  8 -1 -1</clus>
<clus scale="   88.943">  1  7  2 -1</clus>
<clus scale="   91.408">  5  6 -1 -1</clus>
<clus scale="   91.606">  2  5  1 -1</clus>
</clustering>
</event>
<event>
 9    1  0.1484717E-005  0.1014720E+03  0.7546771E-02  0.1277339E+00
          2   -1    0    0  502    0  0.00000000000E+00  0.00000000000E+00  0.27446603815E+03  0.27446603815E+03  0.00000000000E+00 0. -1.
         -2   -1    0    0    0  501 -0.00000000000E+00 -0.00000000000E+00 -0.64577444927E+02  0.64577444927E+02  0.00000000000E+00 0.  1.
         23    2    1    2    0    0  0.40690138658E+02  0.47544269322E+02  0.51685662049E+02  0.12220163104E+03  0.91354726411E+02 0.  0.
         23    2    1    2    0    0 -0.14539146301E+02 -0.34659443588E+02  0.15967897031E+03  0.18765158265E+03  0.91121233004E+02 0.  0.
        -13    1    3    3    0    0  0.13533378867E+02  0.59572135822E+02 -0.16959137161E+01  0.61113565051E+02  0.00000000000E+00 0. -1.
         13    1    3    3    0    0  0.27156759792E+02 -0.12027866500E+02  0.53381575765E+02  0.61088065988E+02  0.00000000000E+00 0.  1.
        -13    1    4    4    0    0 -0.39537167079E+02 -0.31638096925E+02  0.37777534658E+02  0.63176727380E+02  0.00000000000E+00 0.  1.
         13    1    4    4    0    0  0.24998020778E+02 -0.30213466632E+01  0.12190143566E+03  0.12447485527E+03  0.00000000000E+00 0. -1.
         21    1    1    2  502  501 -0.26150992357E+02 -0.12884825734E+02 -0.14760391422E+01  0.29190269389E+02  0.00000000000E+00 0.  1.
<scales pt_clust_5="13000.00000" pt_clust_6="13000.00000" pt_clust_7="13000.00000" pt_clust_8="13000.00000" pt_clust_9="29.15293"></scales>
<clustering>
<clus scale="   29.153">  2  9  1 -1</clus>
<clus scale="   91.121">  7  8 -1 -1</clus>
<clus scale="   91.355">  5  6 -1 -1</clus>
<clus scale="  101.262">  1  7  2 -1</clus>
<clus scale="  101.262">  1  5  2 -1</clus>
</clustering>
</event>
<event>
 9    1  0.1484717E-005  0.1263186E+03  0.7546771E-02  0.1235714E+00
         -1   -1    0    0    0  501 -0.00000000000E+00  0.00000000000E+00  0.46591721172E+02  0.46591721172E+02  0.00000000000E+00 0.  1.
          1   -1    0    0  502    0  0.00000000000E+00 -0.00000000000E+00 -0.43835054481E+03  0.43835054481E+03  0.00000000000E+00 0. -1.
         23    2    1    2    0    0 -0.60156992775E+02  0.41331062817E+02 -0.13993582091E+03  0.18299102545E+03  0.92609723515E+02 0.  0.
         23    2    1    2    0    0  0.72825755670E+02 -0.61289836161E+02 -0.24753401959E+03  0.27792530531E+03  0.83122498577E+02 0.  0.
        -11    1    4    4    0    0  0.49045278088E+02 -0.29191901543E+02 -0.22486228697E+03  0.23199278980E+03  0.00000000000E+00 0. -1.
         11    1    4    4    0    0  0.23780477582E+02 -0.32097934618E+02 -0.22671732624E+02  0.45932515509E+02  0.00000000000E+00 0.  1.
        -13    1    3    3    0    0 -0.67844756528E+02 -0.76993908614E+01 -0.80278257818E+02  0.10538875787E+03  0.00000000000E+00 0. -1.
         13    1    3    3    0    0  0.76877637525E+01  0.49030453678E+02 -0.59657563093E+02  0.77602267580E+02  0.00000000000E+00 0.  1.
         21    1    1    2  502  501 -0.12668762895E+02  0.19958773344E+02 -0.42889831323E+01  0.24025935216E+02  0.00000000000E+00 0.  1.
<scales pt_clust_5="13000.00000" pt_clust_6="13000.00000" pt_clust_7="13000.00000" pt_clust_8="13000.00000" pt_clust_9="23.64001"></scales>
<clustering>
<clus scale="   23.640">  1  9  2 -1</clus>
<clus scale="   83.122">  5  6 -1 -1</clus>
<clus scale="   92.610">  7  8 -1 -1</clus>
<clus scale="  119.537">  2  5  1 -1</clus>
<clus scale="  119.537">  2  5  1 -1</clus>
</clustering>
</event>
<event>
 9    1  0.1484717E-005  0.1055270E+03  0.7546771E-02  0.1269307E+00
          2   -1    0    0  502    0  0.00000000000E+00  0.00000000000E+00  0.47156003297E+03  0.47156003297E+03  0.00000000000E+00 0. -1.
         -2   -1    0    0    0  501 -0.00000000000E+00 -0.00000000000E+00 -0.68416436645E+02  0.68416436645E+02  0.00000000000E+00 0.  1.
         23    2    1    2    0    0 -0.79697438927E+02  0.21521291008E+02  0.35759122098E+02  0.12889581633E+03  0.92306927775E+02 0.  0.
         23    2    1    2    0    0  0.43832988408E+02 -0.14908145716E+02  0.35931091233E+03  0.37372861314E+03  0.91788675087E+02 0.  0.
        -13    1    4    4    0    0 -0.28481037841E+01 -0.44207541519E+02  0.20871270727E+03  0.21336216300E+03  0.00000000000E+00 0. -1.
         13    1    4    4    0    0  0.46681092192E+02  0.29299395802E+02  0.15059820506E+03  0.16036645014E+03  0.00000000000E+00 0.  1.
        -13    1    3    3    0    0 -0.97045307552E+02  0.78551079610E+01  0.14859485666E+02  0.98490094696E+02  0.00000000000E+00 0.  1.
         13    1    3    3    0    0  0.17347868625E+02  0.13666183047E+02  0.20899636432E+02  0.30405721631E+02  0.00000000000E+00 0. -1.
         21    1    1    2  502  501  0.35864450519E+02 -0.66131452916E+01  0.80735618901E+01  0.37352040148E+02  0.00000000000E+00 0. -1.
<scales pt_clust_5="13000.00000" pt_clust_6="13000.00000" pt_clust_7="13000.00000" pt_clust_8="13000.00000" pt_clust_9="36.46906"></scales>
<clustering>
<clus scale="   36.469">  2  9  1 -1</clus>
<clus scale="   91.789">  5  6 -1 -1</clus>
<clus scale="   92.307">  7  8 -1 -1</clus>
<clus scale="  105.074">  1  5  2 -1</clus>
<clus scale="  105.074">  1  5  2 -1</clus>
</clustering>
</event>
<event>
 9    1  0.1484717E-005  0.1903927E+03  0.7546771E-02  0.1158214E+00
          3   -1    0    0  502    0  0.00000000000E+00  0.00000000000E+00  0.23786960017E+03  0.23786960017E+03  0.00000000000E+00 0. -1.
         -3   -1    0    0    0  501 -0.00000000000E+00 -0.00000000000E+00 -0.21946116785E+03  0.21946116785E+03  0.00000000000E+00 0.  1.
         23    2    1    2    0    0 -0.13362648478E+03 -0.64850687850E+02 -0.33810164255E+02  0.17764093344E+03  0.91386677789E+02 0.  0.
         23    2    1    2    0    0  0.14596395190E+03  0.10360488027E+03  0.93925256464E+02  0.22143568448E+03  0.90401117732E+02 0.  0.
        -11    1    4    4    0    0  0.11175920195E+03  0.34411011495E+02  0.28765269897E+02  0.12042291180E+03  0.00000000000E+00 0. -1.
         11    1    4    4    0    0  0.34204749951E+02  0.69193868778E+02  0.65159986567E+02  0.10101277268E+03  0.00000000000E+00 0.  1.
        -13    1    3    3    0    0 -0.92718193947E+02 -0.84823503011E+02 -0.94763517521E+01  0.12602178936E+03  0.00000000000E+00 0.  1.
         13    1    3    3    0    0 -0.40908290832E+02  0.19972815161E+02 -0.24333812503E+02  0.51619144076E+02  0.00000000000E+00 0. -1.
         21    1    1    2  502  501 -0.12337467124E+02 -0.38754192423E+02 -0.41706659890E+02  0.58254150106E+02  0.00000000000E+00 0.  1.
<scales pt_clust_5="13000.00000" pt_clust_6="13000.00000" pt_clust_7="13000.00000" pt_clust_8="13000.00000" pt_clust_9="40.67063"></scales>
<clustering>
<clus scale="   40.671">  2  9  1 -1</clus>
<clus scale="   90.401">  5  6 -1 -1</clus>
<clus scale="   91.387">  7  8 -1 -1</clus>
<clus scale="  189.922">  1  5  2 -1</clus>
<clus scale="  189.922">  1  5  2 -1</clus>
</clustering>
</event>
<event>
 9    1  0.1484717E-005  0.1451815E+03  0.7546771E-02  0.1206558E+00
          2   -1    0    0  502    0  0.00000000000E+00  0.00000000000E+00  0.20209756354E+03  0.20209756354E+03  0.00000000000E+00 0. -1.
         -2   -1    0    0    0  501 -0.00000000000E+00 -0.00000000000E+00 -0.55391295792E+03  0.55391295792E+03  0.00000000000E+00 0.  1.
         23    2    1    2    0    0 -0.11150506299E+03 -0.13574892672E+02 -0.44461642861E+03  0.46755364648E+03  0.91131701203E+02 0.  0.
         23    2    1    2    0    0  0.10701548407E+03  0.97965274299E+02  0.10797293333E+03  0.20259606114E+03  0.91309916550E+02 0.  0.
        -11    1    4    4    0    0  0.47916796783E+02  0.37011964538E+02  0.10055049221E+03  0.11737251134E+03  0.00000000000E+00 0. -1.
         11    1    4    4    0    0  0.59098687286E+02  0.60953309761E+02  0.74224411151E+01  0.85223549808E+02  0.00000000000E+00 0.  1.
        -13    1    3    3    0    0 -0.96181194440E+02  0.25977355095E+02 -0.26811021345E+03  0.28602225735E+03  0.00000000000E+00 0.  1.
         13    1    3    3    0    0 -0.15323868550E+02 -0.39552247767E+02 -0.17650621516E+03  0.18153138913E+03  0.00000000000E+00 0. -1.
         21    1    1    2  502  501  0.44895789207E+01 -0.84390381627E+02 -0.15171899099E+02  0.85860813835E+02  0.00000000000E+00 0. -1.
<scales pt_clust_5="13000.00000" pt_clust_6="13000.00000" pt_clust_7="13000.00000" pt_clust_8="13000.00000" pt_clust_9="84.50972"></scales>
<clustering>
<clus scale="   84.510">  1  9  2 -1</clus>
<clus scale="   91.132">  7  8 -1 -1</clus>
<clus scale="   91.310">  5  6 -1 -1</clus>
<clus scale="  145.069">  2  7  1 -1</clus>
<clus scale="   84.510">  1  5  2 -1</clus>
</clustering>
</event>
<event>
 9    1  0.1484717E-005  0.9820874E+02  0.7546771E-02  0.1286137E+00
          2   -1    0    0  502    0  0.00000000000E+00  0.00000000000E+00  0.79542638838E+02  0.79542638838E+02  0.00000000000E+00 0. -1.
         -2   -1    0    0    0  501 -0.00000000000E+00 -0.00000000000E+00 -0.25187903030E+03  0.25187903030E+03  0.00000000000E+00 0.  1.
         23    2    1    2    0    0  0.31118470762E+02  0.49456526717E+02 -0.36859298813E+02  0.11295722458E+03  0.89366769100E+02 0.  0.
         23    2    1    2    0    0  0.63401781007E+00 -0.31143163309E+02 -0.14375830863E+02  0.91937311432E+02  0.85296577428E+02 0.  0.
        -13    1    3    3    0    0  0.60374266516E+02  0.47649013296E+02 -0.31730165927E+02  0.83200264153E+02  0.00000000000E+00 0.  1.
         13    1    3    3    0    0 -0.29255795754E+02  0.18075134210E+01 -0.51291328855E+01  0.29756960431E+02  0.00000000000E+00 0. -1.
        -13    1    4    4    0    0  0.23210463099E+02 -0.44396210043E+02 -0.32840210857E+02  0.59901823950E+02  0.00000000000E+00 0.  1.
         13    1    4    4    0    0 -0.22576445289E+02  0.13253046734E+02  0.18464379994E+02  0.32035487482E+02  0.00000000000E+00 0. -1.
         21    1    1    2  502  501 -0.31752488572E+02 -0.18313363408E+02 -0.12110126179E+03  0.12652713312E+03  0.00000000000E+00 0. -1.
<scales pt_clust_5="13000.00000" pt_clust_6="13000.00000" pt_clust_7="13000.00000" pt_clust_8="13000.00000" pt_clust_9="36.65515"></scales>
<clustering>
<clus scale="   36.655">  2  9  1 -1</clus>
<clus scale="   85.297">  7  8 -1 -1</clus>
<clus scale="   89.367">  5  6 -1 -1</clus>
<clus scale="   94.520">  1  7  2 -1</clus>
<clus scale="   94.520">  1  5  2 -1</clus>
</clustering>
</event>
<event>
 9    1  0.1484717E-005  0.1144780E+03  0.7546771E-02  0.1253773E+00
          2   -1    0    0  502    0  0.00000000000E+00  0.00000000000E+00  0.45667825919E+03  0.45667825919E+03  0.00000000000E+00 0. -1.
         -2   -1    0    0    0  501 -0.00000000000E+00 -0.00000000000E+00 -0.36271272622E+02  0.36271272622E+02  0.00000000000E+00 0.  1.
         23    2    1    2    0    0 -0.50049771682E+02 -0.10482089164E+02  0.13887075818E+03  0.17587501074E+03  0.95037245787E+02 0.  0.
         23    2    1    2    0    0  0.72600263685E+02  0.36570255348E+01  0.26033270260E+03  0.28537758606E+03  0.91559152799E+02 0.  0.
        -11    1    4    4    0    0  0.14715175826E+02  0.39344219325E+02  0.55846969087E+02  0.69881241761E+02  0.00000000000E+00 0. -1.
         11    1    4    4    0    0  0.57885087859E+02 -0.35687193790E+02  0.20448573351E+03  0.21549634430E+03  0.00000000000E+00 0.  1.
        -11    1    3    3    0    0 -0.15308447032E+02 -0.20694800421E+02  0.13723334610E+03  0.13962669729E+03  0.00000000000E+00 0. -1.
         11    1    3    3    0    0 -0.34741324650E+02  0.10212711258E+02  0.16374120822E+01  0.36248313450E+02  0.00000000000E+00 0.  1.
         21    1    1    2  502  501 -0.22550492003E+02  0.68250636288E+01  0.21203525788E+02  0.31696935009E+02  0.00000000000E+00 0.  1.
<scales pt_clust_5="13000.00000" pt_clust_6="13000.00000" pt_clust_7="13000.00000" pt_clust_8="13000.00000" pt_clust_9="23.56069"></scales>
<clustering>
<clus scale="   23.561">  2  9  1 -1</clus>
<clus scale="   91.559">  5  6 -1 -1</clus>
<clus scale="   95.037">  7  8 -1 -1</clus>
<clus scale="  111.607">  1  5  2 -1</clus>
<clus scale="  111.607">  1  5  2 -1</clus>
</clustering>
</event>
<event>
 9    1  0.1484717E-005  0.1113770E+03  0.7546771E-02  0.1258139E+00
         -2   -1    0    0    0  501 -0.00000000000E+00  0.00000000000E+00  0.54390756483E+02  0.54390756483E+02  0.00000000000E+00 0.  1.
          2   -1    0    0  502    0  0.00000000000E+00 -0.00000000000E+00 -0.47226845534E+03  0.47226845534E+03  0.00000000000E+00 0. -1.
         23    2    1    2    0    0  0.13712566736E+02 -0.60909029519E+02 -0.81979174026E+02  0.13748645691E+03  0.91016462782E+02 0.  0.
         23    2    1    2    0    0 -0.79630480137E+02  0.39666410267E+02 -0.22565745527E+03  0.25898245728E+03  0.90753449456E+02 0.  0.
        -11    1    4    4    0    0 -0.25749227368E+02 -0.22033744804E+02 -0.24595539656E+02  0.41874206752E+02  0.00000000000E+00 0.  1.
         11    1    4    4    0    0 -0.53881252769E+02  0.61700155070E+02 -0.20106191562E+03  0.21710825053E+03  0.00000000000E+00 0. -1.
        -11    1    3    3    0    0 -0.37207508534E+02 -0.11265211860E+02 -0.34517368680E+02  0.51988002752E+02  0.00000000000E+00 0. -1.
         11    1    3    3    0    0  0.50920075270E+02 -0.49643817659E+02 -0.47461805345E+02  0.85498454161E+02  0.00000000000E+00 0.  1.
         21    1    1    2  502  501  0.65917913401E+02  0.21242619253E+02 -0.11024106956E+03  0.13019029763E+03  0.00000000000E+00 0.  1.
<scales pt_clust_5="13000.00000" pt_clust_6="13000.00000" pt_clust_7="13000.00000" pt_clust_8="13000.00000" pt_clust_9="69.25619"></scales>
<clustering>
<clus scale="   69.256">  2  9  1 -1</clus>
<clus scale="   90.753">  5  6 -1 -1</clus>
<clus scale="   91.016">  7  8 -1 -1</clus>
<clus scale="  111.162">  2  5  1 -1</clus>
<clus scale="   69.256">  2  5  1 -1</clus>
</clustering>
</event>
<event>
 9    1  0.1484717E-005  0.1597374E+03  0.7546771E-02  0.1189199E+00
         -1   -1    0    0    0  501 -0.00000000000E+00  0.00000000000E+00  0.38798020748E+02  0.38798020748E+02  0.00000000000E+00 0.  1.
          1   -1    0    0  502    0  0.00000000000E+00 -0.00000000000E+00 -0.93641812629E+03  0.93641812629E+03  0.00000000000E+00 0. -1.
         23    2    1    2    0    0  0.14889280062E+03 -0.36150938420E+01 -0.29851089580E+03  0.34585612398E+03  0.91244553830E+02 0.  0.
         23    2    1    2    0    0 -0.12146161277E+03  0.13816488233E+02 -0.55943651374E+03  0.58006031391E+03  0.92503708767E+02 0.  0.
        -11    1    4    4    0    0 -0.26554532820E+02 -0.31453560968E+02 -0.24693162071E+03  0.25033915998E+03  0.00000000000E+00 0.  1.
         11    1    4    4    0    0 -0.94907079952E+02  0.45270049200E+02 -0.31250489303E+03  0.32972115393E+03  0.00000000000E+00 0. -1.
        -11    1    3    3    0    0  0.53488750882E+02 -0.24610901349E+02 -0.19426928261E+03  0.20299580563E+03  0.00000000000E+00 0. -1.
         11    1    3    3    0    0  0.95404049742E+02  0.20995807507E+02 -0.10424161318E+03  0.14286031835E+03  0.00000000000E+00 0.  1.
         21    1    1    2  502  501 -0.27431187852E+02 -0.10201394391E+02 -0.39672696005E+02  0.49299709155E+02  0.00000000000E+00 0.  1.
<scales pt_clust_5="13000.00000" pt_clust_6="13000.00000" pt_clust_7="13000.00000" pt_clust_8="13000.00000" pt_clust_9="29.26668"></scales>
<clustering>
<clus scale="   29.267">  1  9  2 -1</clus>
<clus scale="   91.245">  7  8 -1 -1</clus>
<clus scale="   92.504">  5  6 -1 -1</clus>
<clus scale="  159.012">  1  7  2 -1</clus>
<clus scale="  159.737">  2  5  1 -1</clus>
</clustering>
</event>
<event>
 9    1  0.1484717E-005  0.1084288E+03  0.7546771E-02  0.1264554E+00
         -2   -1    0    0    0  501 -0.00000000000E+00  0.00000000000E+00  0.12076202140E+03  0.12076202140E+03  0.00000000000E+00 0.  1.
          2   -1    0    0  502    0  0.00000000000E+00 -0.00000000000E+00 -0.20164193541E+03  0.20164193541E+03  0.00000000000E+00 0. -1.
         23    2    1    2    0    0  0.10039794649E+01 -0.55064910514E+02  0.39022361479E+02  0.11883834534E+03  0.97809280143E+02 0.  0.
         23    2    1    2    0    0 -0.23009869579E+02  0.39995164249E+02 -0.13601143586E+03  0.17240696099E+03  0.95372859095E+02 0.  0.
        -11    1    3    3    0    0  0.34198169046E+02 -0.18315298994E+02  0.54551488486E+02  0.66939000884E+02  0.00000000000E+00 0.  1.
         11    1    3    3    0    0 -0.33194189582E+02 -0.36749611520E+02 -0.15529127007E+02  0.51899344451E+02  0.00000000000E+00 0. -1.
        -11    1    4    4    0    0 -0.51580308774E+02  0.37432718468E+02 -0.12740887366E+03  0.14245967062E+03  0.00000000000E+00 0. -1.
         11    1    4    4    0    0  0.28570439195E+02  0.25624457804E+01 -0.86025621976E+01  0.29947290371E+02  0.00000000000E+00 0.  1.
         21    1    1    2  502  501  0.22005890114E+02  0.15069746266E+02  0.16109160372E+02  0.31158650486E+02  0.00000000000E+00 0. -1.
<scales pt_clust_5="13000.00000" pt_clust_6="13000.00000" pt_clust_7="13000.00000" pt_clust_8="13000.00000" pt_clust_9="26.67127"></scales>
<clustering>
<clus scale="   26.671">  1  9  2 -1</clus>
<clus scale="   95.373">  7  8 -1 -1</clus>
<clus scale="   97.809">  5  6 -1 -1</clus>
<clus scale="  106.236">  2  7  1 -1</clus>
<clus scale="  106.236">  2  5  1 -1</clus>
</clustering>
</event>
<event>
 9    1  0.1484717E-005  0.1211075E+03  0.7546771E-02  0.1241653E+00
         -2   -1    0    0    0  501 -0.00000000000E+00  0.00000000000E+00  0.97256634349E+02  0.97256634349E+02  0.00000000000E+00 0.  1.
          2   -1    0    0  502    0  0.00000000000E+00 -0.00000000000E+00 -0.46499725028E+03  0.46499725028E+03  0.00000000000E+00 0. -1.
         23    2    1    2    0    0  0.56805838075E+02  0.16354148662E+02  0.24778073245E+02  0.11018586523E+03  0.89624832306E+02 0.  0.
         23    2    1    2    0    0 -0.57794946603E+02 -0.61190117585E+02 -0.38765821777E+03  0.40695852342E+03  0.90839747037E+02 0.  0.
        -11    1    3    3    0    0  0.11518849645E+02  0.23258057950E+02  0.51127723319E+02  0.57338165724E+02  0.00000000000E+00 0. -1.
         11    1    3    3    0    0  0.45286988430E+02 -0.69039092880E+01 -0.26349650074E+02  0.52847699511E+02  0.00000000000E+00 0.  1.
        -13    1    4    4    0    0 -0.75223217194E+02 -0.28069011534E+02 -0.19830984404E+03  0.21394671312E+03  0.00000000000E+00 0. -1.
         13    1    4    4    0    0  0.17428270591E+02 -0.33121106051E+02 -0.18934837373E+03  0.19301181030E+03  0.00000000000E+00 0.  1.
         21    1    1    2  502  501  0.98910852776E+00  0.44835968922E+02 -0.48604714140E+01  0.45109495976E+02  0.00000000000E+00 0. -1.
<scales pt_clust_5="13000.00000" pt_clust_6="13000.00000" pt_clust_7="13000.00000" pt_clust_8="13000.00000" pt_clust_9="44.84688"></scales>
<clustering>
<clus scale="   44.847">  1  9  2 -1</clus>
<clus scale="   89.625">  5  6 -1 -1</clus>
<clus scale="   90.840">  7  8 -1 -1</clus>
<clus scale="  120.199">  1  5  2 -1</clus>
<clus scale="  121.108">  2  5  1 -1</clus>
</clustering>
</event>
<event>
 9    1  0.1484717E-005  0.9578269E+02  0.7546771E-02  0.1290135E+00
         -2   -1    0    0    0  501 -0.00000000000E+00  0.00000000000E+00  0.22545040306E+03  0.22545040306E+03  0.00000000000E+00 0.  1.
          2   -1    0    0  502    0  0.00000000000E+00 -0.00000000000E+00 -0.91957217704E+02  0.91957217704E+02  0.00000000000E+00 0. -1.
         23    2    1    2    0    0  0.74102134300E+01  0.11501024761E+02  0.40234151619E+02  0.10011888180E+03  0.90652185318E+02 0.  0.
         23    2    1    2    0    0 -0.38361228219E+02  0.10277813648E+02 -0.16189244721E+02  0.10148196552E+03  0.91974346403E+02 0.  0.
        -11    1    4    4    0    0 -0.40391669692E+01  0.46738323399E+02 -0.20555482844E+02  0.51218293792E+02  0.00000000000E+00 0.  1.
         11    1    4    4    0    0 -0.34322061250E+02 -0.36460509751E+02  0.43662381229E+01  0.50263671724E+02  0.00000000000E+00 0. -1.
        -11    1    3    3    0    0 -0.30300662774E+02  0.60028942423E+01 -0.13934912558E+02  0.33887264449E+02  0.00000000000E+00 0.  1.
         11    1    3    3    0    0  0.37710876204E+02  0.54981305189E+01  0.54169064176E+02  0.66231617352E+02  0.00000000000E+00 0. -1.
         21    1    1    2  502  501  0.30951014789E+02 -0.21778838409E+02  0.10944827845E+03  0.11580677344E+03  0.00000000000E+00 0. -1.
<scales pt_clust_5="13000.00000" pt_clust_6="13000.00000" pt_clust_7="13000.00000" pt_clust_8="13000.00000" pt_clust_9="37.84552"></scales>
<clustering>
<clus scale="   37.846">  1  9  2 -1</clus>
<clus scale="   90.652">  7  8 -1 -1</clus>
<clus scale="   91.974">  5  6 -1 -1</clus>
<clus scale="   94.514">  1  7  2 -1</clus>
<clus scale="   95.783">  2  5  1 -1</clus>
</clustering>
</event>
<event>
 9    1  0.1484717E-005  0.1102790E+03  0.7546771E-02  0.1265800E+00
          1   -1    0    0  502    0  0.00000000000E+00  0.00000000000E+00  0.16046468954E+03  0.16046468954E+03  0.00000000000E+00 0. -1.
         -1   -1    0    0    0  501 -0.00000000000E+00 -0.00000000000E+00 -0.33504800217E+03  0.33504800217E+03  0.00000000000E+00 0.  1.
         23    2    1    2    0    0  0.47672428635E+02 -0.93499820451E+01 -0.16155268874E+02  0.10594564659E+03  0.92754540071E+02 0.  0.
         23    2    1    2    0    0 -0.18567749718E+02  0.23302229357E+02  0.88454913417E+02  0.14058322621E+03  0.10512666912E+03 0.  0.
        -11    1    3    3    0    0  0.41232228226E+02  0.36266077109E+02  0.52205120620E+01  0.55159575229E+02  0.00000000000E+00 0. -1.
         11    1    3    3    0    0  0.64402004092E+01 -0.45616059154E+02 -0.21375780936E+02  0.50786071365E+02  0.00000000000E+00 0.  1.
        -13    1    4    4    0    0 -0.60706617433E+02  0.15129617494E+01  0.39662669783E+02  0.72530750912E+02  0.00000000000E+00 0.  1.
         13    1    4    4    0    0  0.42138867716E+02  0.21789267608E+02  0.48792243634E+02  0.68052475297E+02  0.00000000000E+00 0. -1.
         21    1    1    2  502  501 -0.29104678917E+02 -0.13952247312E+02 -0.24688295717E+03  0.24898381891E+03  0.00000000000E+00 0.  1.
<scales pt_clust_5="13000.00000" pt_clust_6="13000.00000" pt_clust_7="13000.00000" pt_clust_8="13000.00000" pt_clust_9="32.27611"></scales>
<clustering>
<clus scale="   32.276">  2  9  1 -1</clus>
<clus scale="   92.755">  5  6 -1 -1</clus>
<clus scale="   98.556">  2  5  1 -1</clus>
<clus scale="  105.127">  7  8 -1 -1</clus>
<clus scale="  110.279">  1  5  2 -1</clus>
</clustering>
</event>
<event>
 9    1  0.1484717E-005  0.1146826E+03  0.7546771E-02  0.1253638E+00
          2   -1    0    0  502    0  0.00000000000E+00  0.00000000000E+00  0.42081199997E+03  0.42081199997E+03  0.00000000000E+00 0. -1.
         -2   -1    0    0    0  501 -0.00000000000E+00 -0.00000000000E+00 -0.54858767640E+02  0.54858767640E+02  0.00000000000E+00 0.  1.
         23    2    1    2    0    0 -0.69552180471E+02 -0.58057471093E+02  0.15668344747E+03  0.20418359186E+03  0.94514870338E+02 0.  0.
         23    2    1    2    0    0  0.29012311512E+02  0.43527474508E+02  0.20256679948E+03  0.22790355739E+03  0.90390087746E+02 0.  0.
        -11    1    4    4    0    0  0.31103340733E+02  0.69980824280E+02  0.13336758583E+03  0.15379091820E+03  0.00000000000E+00 0.  1.
         11    1    4    4    0    0 -0.20910292211E+01 -0.26453349772E+02  0.69199213651E+02  0.74112639187E+02  0.00000000000E+00 0. -1.
        -11    1    3    3    0    0  0.42153862076E+01  0.20059708548E+02  0.11298608113E+02  0.23405553469E+02  0.00000000000E+00 0.  1.
         11    1    3    3    0    0 -0.73767566679E+02 -0.78117179641E+02  0.14538483936E+03  0.18077803839E+03  0.00000000000E+00 0. -1.
         21    1    1    2  502  501  0.40539868959E+02  0.14529996585E+02  0.67029853693E+01  0.43583618354E+02  0.00000000000E+00 0.  1.
<scales pt_clust_5="13000.00000" pt_clust_6="13000.00000" pt_clust_7="13000.00000" pt_clust_8="13000.00000" pt_clust_9="43.06509"></scales>
<clustering>
<clus scale="   43.065">  2  9  1 -1</clus>
<clus scale="   90.390">  5  6 -1 -1</clus>
<clus scale="   94.515">  7  8 -1 -1</clus>
<clus scale="  111.308">  1  5  2 -1</clus>
<clus scale="  111.308">  1  5  2 -1</clus>
</clustering>
</event>
<event>
 9    1  0.1484717E-005  0.1175427E+03  0.7546771E-02  0.1250045E+00
         -1   -1    0    0    0  501 -0.00000000000E+00  0.00000000000E+00  0.44834745959E+02  0.44834745959E+02  0.00000000000E+00 0.  1.
          1   -1    0    0  502    0  0.00000000000E+00 -0.00000000000E+00 -0.41192598933E+03  0.41192598933E+03  0.00000000000E+00 0. -1.
         23    2    1    2    0    0 -0.79092394000E+02  0.55473951765E+01 -0.90567914016E+02  0.14534510729E+03  0.81463321699E+02 0.  0.
         23    2    1    2    0    0  0.64667902867E+02 -0.29784326711E+02 -0.21563258665E+03  0.24430991035E+03  0.90115903639E+02 0.  0.
        -13    1    4    4    0    0  0.27290701564E+02 -0.48200277656E+02 -0.53866137922E+02  0.77263251113E+02  0.00000000000E+00 0. -1.
         13    1    4    4    0    0  0.37377201304E+02  0.18415950945E+02 -0.16176644873E+03  0.16704665923E+03  0.00000000000E+00 0.  1.
        -13    1    3    3    0    0 -0.49378816969E+02  0.17219838247E+02 -0.99317151269E+02  0.11224387258E+03  0.00000000000E+00 0. -1.
         13    1    3    3    0    0 -0.29713577031E+02 -0.11672443070E+02  0.87492372524E+01  0.33101234716E+02  0.00000000000E+00 0.  1.
         21    1    1    2  502  501  0.14424491133E+02  0.24236931534E+02 -0.60890742701E+02  0.67105717650E+02  0.00000000000E+00 0. -1.
<scales pt_clust_5="13000.00000" pt_clust_6="13000.00000" pt_clust_7="13000.00000" pt_clust_8="13000.00000" pt_clust_9="28.20452"></scales>
<clustering>
<clus scale="   28.205">  2  9  1 -1</clus>
<clus scale="   81.463">  7  8 -1 -1</clus>
<clus scale="   90.116">  5  6 -1 -1</clus>
<clus scale="  111.048">  1  7  2 -1</clus>
<clus scale="   28.205">  2  5  1 -1</clus>
</clustering>
</event>
<event>
 9    1  0.1484717E-005  0.1463069E+03  0.7546771E-02  0.1205724E+00
          1   -1    0    0  502    0  0.00000000000E+00  0.00000000000E+00  0.33568836558E+03  0.33568836558E+03  0.00000000000E+00 0. -1.
         -1   -1    0    0    0  501 -0.00000000000E+00 -0.00000000000E+00 -0.40481279784E+03  0.40481279784E+03  0.00000000000E+00 0.  1.
         23    2    1    2    0    0 -0.10094593953E+03  0.12038357325E+03 -0.31011413962E+03  0.35946952823E+03  0.91461875755E+02 0.  0.
         23    2    1    2    0    0  0.77247444645E+02 -0.81159714143E+02  0.28424319322E+03  0.31801581319E+03  0.88237167009E+02 0.  0.
        -11    1    3    3    0    0 -0.55741493482E+02  0.31397077112E+01 -0.10518314692E+03  0.11908176291E+03  0.00000000000E+00 0.  1.
         11    1    3    3    0    0 -0.45204446051E+02  0.11724386554E+03 -0.20493099270E+03  0.24038776533E+03  0.00000000000E+00 0. -1.
        -13    1    4    4    0    0  0.19016224354E+02 -0.40044894519E+02  0.21177357439E+03  0.21636371501E+03  0.00000000000E+00 0. -1.
         13    1    4    4    0    0  0.58231220291E+02 -0.41114819625E+02  0.72469618828E+02  0.10165209817E+03  0.00000000000E+00 0.  1.
         21    1    1    2  502  501  0.23698494888E+02 -0.39223859111E+02 -0.43253485855E+02  0.63015821998E+02  0.00000000000E+00 0. -1.
<scales pt_clust_5="13000.00000" pt_clust_6="13000.00000" pt_clust_7="13000.00000" pt_clust_8="13000.00000" pt_clust_9="45.82717"></scales>
<clustering>
<clus scale="   45.827">  2  9  1 -1</clus>
<clus scale="   88.237">  7  8 -1 -1</clus>
<clus scale="   91.462">  5  6 -1 -1</clus>
<clus scale="  144.313">  1  7  2 -1</clus>
<clus scale="  144.313">  1  5  2 -1</clus>
</clustering>
</event>
<event>
 9    1  0.1484717E-005  0.9260379E+02  0.7546771E-02  0.1297314E+00
         -1   -1    0    0    0  501 -0.00000000000E+00  0.00000000000E+00  0.83833169567E+02  0.83833169567E+02  0.00000000000E+00 0.  1.
          1   -1    0    0  502    0  0.00000000000E+00 -0.00000000000E+00 -0.19796473859E+03  0.19796473859E+03  0.00000000000E+00 0. -1.
         23    2    1    2    0    0  0.13068780781E+02  0.19099912368E+02 -0.27782042784E+02  0.98333670277E+02  0.91444349882E+02 0.  0.
         23    2    1    2    0    0 -0.11554122336E+02  0.22329039771E+02 -0.10255340095E+03  0.13895336481E+03  0.90325820150E+02 0.  0.
        -13    1    3    3    0    0  0.44732347764E+02 -0.11533067619E+02 -0.28485515225E+02  0.54271716048E+02  0.00000000000E+00 0.  1.
         13    1    3    3    0    0 -0.31663566983E+02  0.30632979987E+02  0.70347244099E+00  0.44061954229E+02  0.00000000000E+00 0. -1.
        -13    1    4    4    0    0 -0.49532955461E+02  0.87013066468E+01 -0.74201625907E+02  0.89638762270E+02  0.00000000000E+00 0. -1.
         13    1    4    4    0    0  0.37978833125E+02  0.13627733124E+02 -0.28351775045E+02  0.49314602542E+02  0.00000000000E+00 0.  1.
         21    1    1    2  502  501 -0.15146584449E+01 -0.41428952139E+02  0.16203874714E+02  0.44510873068E+02  0.00000000000E+00 0.  1.
<scales pt_clust_5="13000.00000" pt_clust_6="13000.00000" pt_clust_7="13000.00000" pt_clust_8="13000.00000" pt_clust_9="41.45663"></scales>
<clustering>
<clus scale="   41.457">  1  9  2 -1</clus>
<clus scale="   90.326">  7  8 -1 -1</clus>
<clus scale="   91.444">  5  6 -1 -1</clus>
<clus scale="   91.499">  2  7  1 -1</clus>
<clus scale="   91.499">  2  5  1 -1</clus>
</clustering>
</event>
<event>
 9    1  0.1484717E-005  0.1063486E+03  0.7546771E-02  0.1267852E+00
          3   -1    0    0  502    0  0.00000000000E+00  0.00000000000E+00  0.42143861201E+02  0.42143861201E+02  0.00000000000E+00 0. -1.
         -3   -1    0    0    0  501 -0.00000000000E+00 -0.00000000000E+00 -0.65359722592E+03  0.65359722592E+03  0.00000000000E+00 0.  1.
         23    2    1    2    0    0 -0.29012454079E+02 -0.12457609958E+02 -0.16035839654E+03  0.18730947659E+03  0.91504700109E+02 0.  0.
         23    2    1    2    0    0  0.27628062860E+02  0.69110989194E+02 -0.10716829647E+03  0.15986730164E+03  0.92373544269E+02 0.  0.
        -11    1    4    4    0    0 -0.23705865538E+01  0.62347202852E+02 -0.11251312599E+03  0.12865456426E+03  0.00000000000E+00 0.  1.
         11    1    4    4    0    0  0.29998649414E+02  0.67637863421E+01  0.53448295215E+01  0.31212737383E+02  0.00000000000E+00 0. -1.
        -13    1    3    3    0    0 -0.18563179857E+01 -0.20818182104E+02  0.33377498268E+01  0.21165613540E+02  0.00000000000E+00 0. -1.
         13    1    3    3    0    0 -0.27156136093E+02  0.83605721464E+01 -0.16369614637E+03  0.16614386305E+03  0.00000000000E+00 0.  1.
         21    1    1    2  502  501  0.13843912188E+01 -0.56653379236E+02 -0.34392667172E+03  0.34856430889E+03  0.00000000000E+00 0.  1.
<scales pt_clust_5="13000.00000" pt_clust_6="13000.00000" pt_clust_7="13000.00000" pt_clust_8="13000.00000" pt_clust_9="56.67029"></scales>
<clustering>
<clus scale="   56.670">  2  9  1 -1</clus>
<clus scale="   91.505">  7  8 -1 -1</clus>
<clus scale="   92.374">  5  6 -1 -1</clus>
<clus scale="  105.595">  2  7  1 -1</clus>
<clus scale="  106.349">  1  5  2 -1</clus>
</clustering>
</event>
<event>
 9    1  0.1484717E-005  0.1401976E+03  0.7546771E-02  0.1213361E+00
         -1   -1    0    0    0  501 -0.00000000000E+00  0.00000000000E+00  0.26211663800E+03  0.26211663800E+03  0.00000000000E+00 0.  1.
          1   -1    0    0  502    0  0.00000000000E+00 -0.00000000000E+00 -0.13314568451E+03  0.13314568451E+03  0.00000000000E+00 0. -1.
         23    2    1    2    0    0 -0.27875047340E+02  0.87039175422E+02  0.88499602172E+02  0.15680028581E+03  0.91658680563E+02 0.  0.
         23    2    1    2    0    0 -0.21653298710E+02 -0.11555401975E+03 -0.26316619730E+02  0.15055989517E+03  0.90300170175E+02 0.  0.
        -13    1    3    3    0    0 -0.52488124499E+02  0.84482111160E+02  0.86778050947E+02  0.13199492583E+03  0.00000000000E+00 0.  1.
         13    1    3    3    0    0  0.24613077159E+02  0.25570642620E+01  0.17215512242E+01  0.24805359975E+02  0.00000000000E+00 0. -1.
        -13    1    4    4    0    0 -0.50273167983E+02 -0.60920176565E+02 -0.38218638761E+02  0.87745790101E+02  0.00000000000E+00 0. -1.
         13    1    4    4    0    0  0.28619869273E+02 -0.54633843185E+02  0.11902019031E+02  0.62814105067E+02  0.00000000000E+00 0.  1.
         21    1    1    2  502  501  0.49528346050E+02  0.28514844327E+02  0.66787971043E+02  0.87902141530E+02  0.00000000000E+00 0.  1.
<scales pt_clust_5="13000.00000" pt_clust_6="13000.00000" pt_clust_7="13000.00000" pt_clust_8="13000.00000" pt_clust_9="57.15027"></scales>
<clustering>
<clus scale="   57.150">  1  9  2 -1</clus>
<clus scale="   90.300">  7  8 -1 -1</clus>
<clus scale="   91.659">  5  6 -1 -1</clus>
<clus scale="  139.313">  2  7  1 -1</clus>
<clus scale="  139.313">  2  5  1 -1</clus>
</clustering>
</event>
<event>
 9    1  0.1484717E-005  0.1134716E+03  0.7546771E-02  0.1258027E+00
         -1   -1    0    0    0  501 -0.00000000000E+00  0.00000000000E+00  0.10054236838E+03  0.10054236838E+03  0.00000000000E+00 0.  1.
          1   -1    0    0  502    0  0.00000000000E+00 -0.00000000000E+00 -0.43487534220E+03  0.43487534220E+03  0.00000000000E+00 0. -1.
         23    2    1    2    0    0  0.80114904175E+02  0.18291932703E+02  0.26896784639E+02  0.12488138738E+03  0.90105112052E+02 0.  0.
         23    2    1    2    0    0 -0.26604731462E+02 -0.46960848973E+02 -0.31353126077E+03  0.33333274798E+03  0.99477315631E+02 0.  0.
        -11    1    3    3    0    0  0.19453373894E+02 -0.34908373182E+02  0.42642067724E+00  0.39965111143E+02  0.00000000000E+00 0.  1.
         11    1    3    3    0    0  0.60661530282E+02  0.53200305885E+02  0.26470363962E+02  0.84916276241E+02  0.00000000000E+00 0. -1.
        -13    1    4    4    0    0 -0.54784707061E+02 -0.59589715554E+02 -0.24830166192E+03  0.26116281060E+03  0.00000000000E+00 0.  1.
         13    1    4    4    0    0  0.28179975598E+02  0.12628866581E+02 -0.65229598846E+02  0.72169937380E+02  0.00000000000E+00 0. -1.
         21    1    1    2  502  501 -0.53510172713E+02  0.28668916271E+02 -0.47698497688E+02  0.77203575213E+02  0.00000000000E+00 0. -1.
<scales pt_clust_5="13000.00000" pt_clust_6="13000.00000" pt_clust_7="13000.00000" pt_clust_8="13000.00000" pt_clust_9="60.70622"></scales>
<clustering>
<clus scale="   60.706">  1  9  2 -1</clus>
<clus scale="   90.105">  5  6 -1 -1</clus>
<clus scale="   99.477">  7  8 -1 -1</clus>
<clus scale="  105.352">  1  5  2 -1</clus>
<clus scale="  113.472">  2  5  1 -1</clus>
</clustering>
</event>
<event>
 9    1  0.1484717E-005  0.1428533E+03  0.7546771E-02  0.1210549E+00
         -2   -1    0    0    0  501 -0.00000000000E+00  0.00000000000E+00  0.12886763322E+03  0.12886763322E+03  0.00000000000E+00 0.  1.
          2   -1    0    0  502    0  0.00000000000E+00 -0.00000000000E+00 -0.23816176296E+03  0.23816176296E+03  0.00000000000E+00 0. -1.
         23    2    1    2    0    0  0.66907679995E+02  0.79029340267E+02 -0.19143168318E+02  0.14106234400E+03  0.93860799784E+02 0.  0.
         23    2    1    2    0    0 -0.10952290724E+03 -0.40134409949E+02 -0.80591931327E+02  0.16748416363E+03  0.89161917874E+02 0.  0.
        -11    1    4    4    0    0 -0.88046937173E+02 -0.55131100053E+02 -0.92139908063E+02  0.13885771133E+03  0.00000000000E+00 0.  1.
         11    1    4    4    0    0 -0.21475970064E+02  0.14996690103E+02  0.11547976736E+02  0.28626452294E+02  0.00000000000E+00 0. -1.
        -13    1    3    3    0    0  0.21841615437E+02  0.14478371881E+02  0.36301712796E+02  0.44771573227E+02  0.00000000000E+00 0.  1.
         13    1    3    3    0    0  0.45066064559E+02  0.64550968385E+02 -0.55444881114E+02  0.96290770773E+02  0.00000000000E+00 0. -1.
         21    1    1    2  502  501  0.42615227242E+02 -0.38894930317E+02 -0.95590300960E+01  0.58482888554E+02  0.00000000000E+00 0.  1.
<scales pt_clust_5="13000.00000" pt_clust_6="13000.00000" pt_clust_7="13000.00000" pt_clust_8="13000.00000" pt_clust_9="57.69639"></scales>
<clustering>
<clus scale="   57.696">  1  9  2 -1</clus>
<clus scale="   89.162">  5  6 -1 -1</clus>
<clus scale="   93.861">  7  8 -1 -1</clus>
<clus scale="  139.811">  2  5  1 -1</clus>
<clus scale="  139.811">  2  5  1 -1</clus>
</clustering>
</event>
<event>
 9    1  0.1484717E-005  0.1121666E+03  0.7546771E-02  0.1256960E+00
          1   -1    0    0  502    0  0.00000000000E+00  0.00000000000E+00  0.28894816300E+03  0.28894816300E+03  0.00000000000E+00 0. -1.
         -1   -1    0    0    0  501 -0.00000000000E+00 -0.00000000000E+00 -0.59018336571E+03  0.59018336571E+03  0.00000000000E+00 0.  1.
         23    2    1    2    0    0  0.93864183054E+02  0.79620866172E+02 -0.19433597724E+03  0.24759478216E+03  0.91579129242E+02 0.  0.
         23    2    1    2    0    0 -0.21261394260E+02 -0.58727079798E+02  0.24660341485E+03  0.27005115629E+03  0.90628174512E+02 0.  0.
        -11    1    3    3    0    0  0.11237309704E+03  0.65084279138E+02 -0.16599926834E+03  0.21075918347E+03  0.00000000000E+00 0. -1.
         11    1    3    3    0    0 -0.18508913983E+02  0.14536587033E+02 -0.28336708902E+02  0.36835598689E+02  0.00000000000E+00 0.  1.
        -13    1    4    4    0    0 -0.49299273805E+02 -0.12232904157E+02  0.15968292742E+03  0.16756700049E+03  0.00000000000E+00 0.  1.
         13    1    4    4    0    0  0.28037879545E+02 -0.46494175641E+02  0.86920487421E+02  0.10248415581E+03  0.00000000000E+00 0. -1.
         21    1    1    2  502  501 -0.72602788794E+02 -0.20893786374E+02 -0.35350264032E+03  0.36148559025E+03  0.00000000000E+00 0.  1.
<scales pt_clust_5="13000.00000" pt_clust_6="13000.00000" pt_clust_7="13000.00000" pt_clust_8="13000.00000" pt_clust_9="75.54942"></scales>
<clustering>
<clus scale="   75.549">  2  9  1 -1</clus>
<clus scale="   90.628">  7  8 -1 -1</clus>
<clus scale="   91.579">  5  6 -1 -1</clus>
<clus scale="  111.392">  1  7  2 -1</clus>
<clus scale="  111.392">  1  5  2 -1</clus>
</clustering>
</event>
<event>
 9    1  0.1484717E-005  0.2821139E+03  0.7546771E-02  0.1094630E+00
         -1   -1    0    0    0  501 -0.00000000000E+00  0.00000000000E+00  0.52402131682E+02  0.52402131682E+02  0.00000000000E+00 0.  1.
          1   -1    0    0  502    0  0.00000000000E+00 -0.00000000000E+00 -0.21828425294E+04  0.21828425294E+04  0.00000000000E+00 0. -1.
         23    2    1    2    0    0  0.25834285072E+03  0.13777613293E+03 -0.61483328905E+03  0.68694836558E+03  0.90303888746E+02 0.  0.
         23    2    1    2    0    0 -0.23346318074E+03 -0.10759629712E+03 -0.13954615297E+04  0.14219444826E+04  0.92364554466E+02 0.  0.
        -11    1    4    4    0    0 -0.76115855339E+02  0.31354138007E+01 -0.28863342656E+03  0.29851751905E+03  0.00000000000E+00 0.  1.
         11    1    4    4    0    0 -0.15734732541E+03 -0.11073171092E+03 -0.11068281031E+04  0.11234269635E+04  0.00000000000E+00 0. -1.
        -13    1    3    3    0    0  0.39434872299E+02  0.26262439059E+02 -0.19354737399E+03  0.19926216610E+03  0.00000000000E+00 0. -1.
         13    1    3    3    0    0  0.21890797843E+03  0.11151369387E+03 -0.42128591506E+03  0.48768619949E+03  0.00000000000E+00 0.  1.
         21    1    1    2  502  501 -0.24879669980E+02 -0.30179835814E+02 -0.12014557900E+03  0.12635181289E+03  0.00000000000E+00 0. -1.
<scales pt_clust_5="13000.00000" pt_clust_6="13000.00000" pt_clust_7="13000.00000" pt_clust_8="13000.00000" pt_clust_9="39.11292"></scales>
<clustering>
<clus scale="   39.113">  1  9  2 -1</clus>
<clus scale="   90.304">  7  8 -1 -1</clus>
<clus scale="   92.365">  5  6 -1 -1</clus>
<clus scale="  281.446">  1  7  2 -1</clus>
<clus scale="  282.114">  2  5  1 -1</clus>
</clustering>
</event>
<event>
 9    1  0.1484717E-005  0.1181252E+03  0.7546771E-02  0.1246252E+00
          2   -1    0    0  502    0  0.00000000000E+00  0.00000000000E+00  0.10975534839E+03  0.10975534839E+03  0.00000000000E+00 0. -1.
         -2   -1    0    0    0  501 -0.00000000000E+00 -0.00000000000E+00 -0.29850799170E+03  0.29850799170E+03  0.00000000000E+00 0.  1.
         23    2    1    2    0    0  0.11001883479E+03 -0.62134963110E+02 -0.13834190979E+03  0.20840328584E+03  0.91260878217E+02 0.  0.
         23    2    1    2    0    0 -0.50927736519E+02  0.32007307857E+02  0.10405190969E+02  0.10987110950E+03  0.91352562092E+02 0.  0.
        -11    1    3    3    0    0  0.22247743019E+02 -0.29261474616E+02 -0.10105591228E+03  0.10753368483E+03  0.00000000000E+00 0.  1.
         11    1    3    3    0    0  0.87771091776E+02 -0.32873488494E+02 -0.37285997511E+02  0.10086960101E+03  0.00000000000E+00 0. -1.
        -13    1    4    4    0    0 -0.49608917475E+02  0.58419111726E+02  0.23768123076E+02  0.80241890447E+02  0.00000000000E+00 0.  1.
         13    1    4    4    0    0 -0.13188190439E+01 -0.26411803870E+02 -0.13362932107E+02  0.29629219055E+02  0.00000000000E+00 0. -1.
         21    1    1    2  502  501 -0.59091098276E+02  0.30127655253E+02 -0.60815924480E+02  0.89988944748E+02  0.00000000000E+00 0. -1.
<scales pt_clust_5="13000.00000" pt_clust_6="13000.00000" pt_clust_7="13000.00000" pt_clust_8="13000.00000" pt_clust_9="66.32823"></scales>
<clustering>
<clus scale="   66.328">  2  9  1 -1</clus>
<clus scale="   91.261">  5  6 -1 -1</clus>
<clus scale="   91.353">  7  8 -1 -1</clus>
<clus scale="  118.054">  2  5  1 -1</clus>
<clus scale="  118.125">  1  5  2 -1</clus>
</clustering>
</event>
<event>
 9    1  0.1484717E-005  0.9517633E+02  0.7546771E-02  0.1291786E+00
         -1   -1    0    0    0  501 -0.00000000000E+00  0.00000000000E+00  0.31353752809E+03  0.31353752809E+03  0.00000000000E+00 0.  1.
          1   -1    0    0  502    0  0.00000000000E+00 -0.00000000000E+00 -0.62361529286E+02  0.62361529286E+02  0.00000000000E+00 0. -1.
         23    2    1    2    0    0  0.51384468764E+01 -0.26610852901E+02  0.58108783294E+02  0.11200197820E+03  0.91832844319E+02 0.  0.
         23    2    1    2    0    0 -0.40098795827E+02 -0.75264430113E+01  0.46128997148E+02  0.10904740696E+03  0.89993843210E+02 0.  0.
        -13    1    4    4    0    0 -0.64477086521E+02 -0.66385411198E+01  0.10194158274E+02  0.65614676539E+02  0.00000000000E+00 0. -1.
         13    1    4    4    0    0  0.24378290694E+02 -0.88790189141E+00  0.35934838873E+02  0.43432730421E+02  0.00000000000E+00 0.  1.
        -13    1    3    3    0    0  0.24629849206E+02 -0.13775033914E+02  0.76979409955E+02  0.81989088227E+02  0.00000000000E+00 0.  1.
         13    1    3    3    0    0 -0.19491402330E+02 -0.12835818987E+02 -0.18870626660E+02  0.30012889971E+02  0.00000000000E+00 0. -1.
         21    1    1    2  502  501  0.34960348951E+02  0.34137295912E+02  0.14693821836E+03  0.15484967222E+03  0.00000000000E+00 0.  1.
<scales pt_clust_5="13000.00000" pt_clust_6="13000.00000" pt_clust_7="13000.00000" pt_clust_8="13000.00000" pt_clust_9="48.86288"></scales>
<clustering>
<clus scale="   48.863">  1  9  2 -1</clus>
<clus scale="   89.994">  5  6 -1 -1</clus>
<clus scale="   91.833">  7  8 -1 -1</clus>
<clus scale="   93.403">  2  5  1 -1</clus>
<clus scale="   93.403">  2  5  1 -1</clus>
</clustering>
</event>
<event>
 9    1  0.1484717E-005  0.1201297E+03  0.7546771E-02  0.1242983E+00
          1   -1    0    0  502    0  0.00000000000E+00  0.00000000000E+00  0.14716243330E+03  0.14716243330E+03  0.00000000000E+00 0. -1.
         -1   -1    0    0    0  501 -0.00000000000E+00 -0.00000000000E+00 -0.31305617240E+03  0.31305617240E+03  0.00000000000E+00 0.  1.
         23    2    1    2    0    0  0.29635279716E+02  0.11239820036E+03 -0.13372797804E+02  0.14803824582E+03  0.90691153127E+02 0.  0.
         23    2    1    2    0    0 -0.30940704158E+02 -0.52386157631E+02  0.35280080659E+02  0.11501957966E+03  0.91011993327E+02 0.  0.
        -13    1    3    3    0    0  0.55390021647E+02  0.63123177809E+02  0.15485228203E+02  0.85395446994E+02  0.00000000000E+00 0. -1.
         13    1    3    3    0    0 -0.25754741931E+02  0.49275022553E+02 -0.28858026007E+02  0.62642798824E+02  0.00000000000E+00 0.  1.
        -13    1    4    4    0    0 -0.72487129995E+01 -0.26359371822E+02  0.63999449122E+02  0.69593748361E+02  0.00000000000E+00 0. -1.
         13    1    4    4    0    0 -0.23691991158E+02 -0.26026785809E+02 -0.28719368463E+02  0.45425831302E+02  0.00000000000E+00 0.  1.
         21    1    1    2  502  501  0.13054244420E+01 -0.60012042731E+02 -0.18780102196E+03  0.19716078022E+03  0.00000000000E+00 0. -1.
<scales pt_clust_5="13000.00000" pt_clust_6="13000.00000" pt_clust_7="13000.00000" pt_clust_8="13000.00000" pt_clust_9="60.02624"></scales>
<clustering>
<clus scale="   60.026">  2  9  1 -1</clus>
<clus scale="   90.691">  5  6 -1 -1</clus>
<clus scale="   91.012">  7  8 -1 -1</clus>
<clus scale="  119.887">  2  5  1 -1</clus>
<clus scale="  120.130">  1  5  2 -1</clus>
</clustering>
</event>
<event>
 9    1  0.1484717E-005  0.1029737E+03  0.7546771E-02  0.1276967E+00
         -2   -1    0    0    0  501 -0.00000000000E+00  0.00000000000E+00  0.33320292083E+02  0.33320292083E+02  0.00000000000E+00 0.  1.
          2   -1    0    0  502    0  0.00000000000E+00 -0.00000000000E+00 -0.49918570030E+03  0.49918570030E+03  0.00000000000E+00 0. -1.
         23    2    1    2    0    0 -0.53543615270E+02  0.11931091461E+02 -0.20555506524E+03  0.23421433102E+03  0.97949978700E+02 0.  0.
         23    2    1    2    0    0  0.17313899364E+02  0.85794783819E+01 -0.22407379417E+03  0.24309779160E+03  0.92271840178E+02 0.  0.
        -11    1    4    4    0    0  0.52460142799E+02  0.15856478810E+02 -0.16615262509E+03  0.17495767867E+03  0.00000000000E+00 0.  1.
         11    1    4    4    0    0 -0.35146243435E+02 -0.72770004282E+01 -0.57921169078E+02  0.68140112931E+02  0.00000000000E+00 0. -1.
        -13    1    3    3    0    0  0.19774965543E+02 -0.20692124369E+02 -0.82320373956E+02  0.87154215282E+02  0.00000000000E+00 0.  1.
         13    1    3    3    0    0 -0.73318580813E+02  0.32623215830E+02 -0.12323469129E+03  0.14706011573E+03  0.00000000000E+00 0. -1.
         21    1    1    2  502  501  0.36229715906E+02 -0.20510569843E+02 -0.36236548809E+02  0.55193869764E+02  0.00000000000E+00 0.  1.
<scales pt_clust_5="13000.00000" pt_clust_6="13000.00000" pt_clust_7="13000.00000" pt_clust_8="13000.00000" pt_clust_9="41.63263"></scales>
<clustering>
<clus scale="   41.633">  1  9  2 -1</clus>
<clus scale="   92.272">  5  6 -1 -1</clus>
<clus scale="   97.588">  2  5  1 -1</clus>
<clus scale="   97.950">  7  8 -1 -1</clus>
<clus scale="   97.588">  2  5  1 -1</clus>
</clustering>
</event>
<event>
 9    1  0.1484717E-005  0.1242947E+03  0.7546771E-02  0.1236862E+00
          2   -1    0    0  502    0  0.00000000000E+00  0.00000000000E+00  0.40901911305E+03  0.40901911305E+03  0.00000000000E+00 0. -1.
         -2   -1    0    0    0  501 -0.00000000000E+00 -0.00000000000E+00 -0.60884926014E+02  0.60884926014E+02  0.00000000000E+00 0.  1.
         23    2    1    2    0    0 -0.69172058061E+02 -0.16912884178E+02  0.50228391111E+02  0.12712463820E+03  0.92557890508E+02 0.  0.
         23    2    1    2    0    0  0.87104004354E+02  0.42292335368E+01  0.29505933315E+03  0.32063144290E+03  0.90219277938E+02 0.  0.
        -13    1    3    3    0    0 -0.61334677052E+02 -0.35451394933E+02 -0.22915285960E+01  0.70880146127E+02  0.00000000000E+00 0.  1.
         13    1    3    3    0    0 -0.78373810087E+01  0.18538510754E+02  0.52519919707E+02  0.56244492069E+02  0.00000000000E+00 0. -1.
        -13    1    4    4    0    0 -0.13946720605E+02 -0.15071271515E+02  0.30450050491E+02  0.36726826920E+02  0.00000000000E+00 0.  1.
         13    1    4    4    0    0  0.10105072496E+03  0.19300505052E+02  0.26460928265E+03  0.28390461598E+03  0.00000000000E+00 0. -1.
         21    1    1    2  502  501 -0.17931946293E+02  0.12683650642E+02  0.28464627750E+01  0.22147957960E+02  0.00000000000E+00 0. -1.
<scales pt_clust_5="13000.00000" pt_clust_6="13000.00000" pt_clust_7="13000.00000" pt_clust_8="13000.00000" pt_clust_9="21.96428"></scales>
<clustering>
<clus scale="   21.964">  2  9  1 -1</clus>
<clus scale="   90.219">  7  8 -1 -1</clus>
<clus scale="   92.558">  5  6 -1 -1</clus>
<clus scale="  122.563">  1  7  2 -1</clus>
<clus scale="  122.563">  1  5  2 -1</clus>
</clustering>
</event>
<event>
 9    1  0.1484717E-005  0.1072202E+03  0.7546771E-02  0.1267326E+00
         -1   -1    0    0    0  501 -0.00000000000E+00  0.00000000000E+00  0.28403749519E+03  0.28403749519E+03  0.00000000000E+00 0.  1.
          1   -1    0    0  502    0  0.00000000000E+00 -0.00000000000E+00 -0.96389831177E+02  0.96389831177E+02  0.00000000000E+00 0. -1.
         23    2    1    2    0    0  0.43078764548E+02 -0.44521690606E+02  0.21877463023E+02  0.11251360971E+03  0.91338535638E+02 0.  0.
         23    2    1    2    0    0 -0.44622138797E+02  0.63056274990E+01  0.77446584260E+01  0.10532552033E+03  0.94881975573E+02 0.  0.
        -11    1    3    3    0    0  0.11527861219E+02 -0.61484299989E+02 -0.11439665235E+02  0.63593055204E+02  0.00000000000E+00 0. -1.
         11    1    3    3    0    0  0.31550903328E+02  0.16962609383E+02  0.33317128259E+02  0.48920554507E+02  0.00000000000E+00 0.  1.
        -11    1    4    4    0    0 -0.17118967249E+02  0.41493490063E+02  0.31407359486E+02  0.54783126847E+02  0.00000000000E+00 0.  1.
         11    1    4    4    0    0 -0.27503171548E+02 -0.35187862564E+02 -0.23662701060E+02  0.50542393478E+02  0.00000000000E+00 0. -1.
         21    1    1    2  502  501  0.15433742494E+01  0.38216063107E+02  0.15802554256E+03  0.16258819633E+03  0.00000000000E+00 0.  1.
<scales pt_clust_5="13000.00000" pt_clust_6="13000.00000" pt_clust_7="13000.00000" pt_clust_8="13000.00000" pt_clust_9="38.24722"></scales>
<clustering>
<clus scale="   38.247">  1  9  2 -1</clus>
<clus scale="   91.339">  5  6 -1 -1</clus>
<clus scale="   94.882">  7  8 -1 -1</clus>
<clus scale="  104.098">  1  5  2 -1</clus>
<clus scale="  107.220">  2  5  1 -1</clus>
</clustering>
</event>
<event>
 9    1  0.1484717E-005  0.1079797E+03  0.7546771E-02  0.1264524E+00
         -1   -1    0    0    0  501 -0.00000000000E+00  0.00000000000E+00  0.32924318316E+02  0.32924318316E+02  0.00000000000E+00 0.  1.
          1   -1    0    0  502    0  0.00000000000E+00 -0.00000000000E+00 -0.46616493602E+03  0.46616493602E+03  0.00000000000E+00 0. -1.
         23    2    1    2    0    0 -0.47133697411E+02  0.51082170387E+02 -0.15432085183E+03  0.19214733825E+03  0.90965382004E+02 0.  0.
         23    2    1    2    0    0  0.40848323148E+02 -0.30903933886E+02 -0.25052929892E+03  0.27154861486E+03  0.91378782997E+02 0.  0.
        -13    1    3    3    0    0 -0.44764698247E+01 -0.25969043202E+02 -0.33032824601E+02  0.42256330745E+02  0.00000000000E+00 0.  1.
         13    1    3    3    0    0 -0.42657227587E+02  0.77051213590E+02 -0.12128802723E+03  0.14989100751E+03  0.00000000000E+00 0. -1.
        -13    1    4    4    0    0 -0.17444627469E+02  0.16268688824E+02 -0.10681947827E+03  0.10945038237E+03  0.00000000000E+00 0. -1.
         13    1    4    4    0    0  0.58292950616E+02 -0.47172622710E+02 -0.14370982065E+03  0.16209823249E+03  0.00000000000E+00 0.  1.
         21    1    1    2  502  501  0.62853742637E+01 -0.20178236501E+02 -0.28390466956E+02  0.35393301229E+02  0.00000000000E+00 0.  1.
<scales pt_clust_5="13000.00000" pt_clust_6="13000.00000" pt_clust_7="13000.00000" pt_clust_8="13000.00000" pt_clust_9="21.13450"></scales>
<clustering>
<clus scale="   21.135">  1  9  2 -1</clus>
<clus scale="   90.965">  5  6 -1 -1</clus>
<clus scale="   91.379">  7  8 -1 -1</clus>
<clus scale="  107.630">  1  5  2 -1</clus>
<clus scale="  107.980">  2  5  1 -1</clus>
</clustering>
</event>
<event>
 9    1  0.1484717E-005  0.9861707E+02  0.7546771E-02  0.1285521E+00
          2   -1    0    0  502    0  0.00000000000E+00  0.00000000000E+00  0.23661463145E+03  0.23661463145E+03  0.00000000000E+00 0. -1.
         -2   -1    0    0    0  501 -0.00000000000E+00 -0.00000000000E+00 -0.72806367596E+02  0.72806367596E+02  0.00000000000E+00 0.  1.
         23    2    1    2    0    0 -0.10224267216E+02  0.14518017579E+02  0.74212613451E+02  0.11850713475E+03  0.90670394935E+02 0.  0.
         23    2    1    2    0    0 -0.23382885625E+02 -0.36208474166E+02  0.10502844090E+03  0.14804093983E+03  0.95012280924E+02 0.  0.
        -11    1    3    3    0    0 -0.41021752089E+02  0.32741052349E+02  0.26301518528E+02  0.58707159105E+02  0.00000000000E+00 0.  1.
         11    1    3    3    0    0  0.30797484873E+02 -0.18223034770E+02  0.47911094923E+02  0.59799975648E+02  0.00000000000E+00 0. -1.
        -13    1    4    4    0    0 -0.91616985163E+01 -0.68453786190E+02  0.67979947168E+02  0.96907846847E+02  0.00000000000E+00 0.  1.
         13    1    4    4    0    0 -0.14221187109E+02  0.32245312024E+02  0.37048493733E+02  0.51133092985E+02  0.00000000000E+00 0. -1.
         21    1    1    2  502  501  0.33607152841E+02  0.21690456587E+02 -0.15432790501E+02  0.42872924459E+02  0.00000000000E+00 0. -1.
<scales pt_clust_5="13000.00000" pt_clust_6="13000.00000" pt_clust_7="13000.00000" pt_clust_8="13000.00000" pt_clust_9="39.99896"></scales>
<clustering>
<clus scale="   39.999">  2  9  1 -1</clus>
<clus scale="   90.670">  5  6 -1 -1</clus>
<clus scale="   94.441">  2  5  1 -1</clus>
<clus scale="   95.012">  7  8 -1 -1</clus>
<clus scale="   98.617">  1  5  2 -1</clus>
</clustering>
</event>
<event>
 9    1  0.1484717E-005  0.1290791E+03  0.7546771E-02  0.1241742E+00
          1   -1    0    0  502    0  0.00000000000E+00  0.00000000000E+00  0.36648938964E+03  0.36648938964E+03  0.00000000000E+00 0. -1.
         -1   -1    0    0    0  501 -0.00000000000E+00 -0.00000000000E+00 -0.18956991596E+03  0.18956991596E+03  0.00000000000E+00 0.  1.
         23    2    1    2    0    0 -0.12783496023E+02  0.31182499601E+02 -0.53549997319E+02  0.13731659611E+03  0.12187074835E+03 0.  0.
         23    2    1    2    0    0 -0.18159803490E+02 -0.40144191305E+02  0.31386641065E+03  0.32933997325E+03  0.89506199146E+02 0.  0.
        -11    1    4    4    0    0  0.36549381567E+02 -0.14157264380E+02  0.12368781499E+03  0.12974960888E+03  0.00000000000E+00 0.  1.
         11    1    4    4    0    0 -0.54709185057E+02 -0.25986926925E+02  0.19017859566E+03  0.19959036437E+03  0.00000000000E+00 0. -1.
        -11    1    3    3    0    0  0.24091009873E+02  0.39403972732E+02 -0.79178651185E+02  0.91664107628E+02  0.00000000000E+00 0.  1.
         11    1    3    3    0    0 -0.36874505896E+02 -0.82214731312E+01  0.25628653866E+02  0.45652488481E+02  0.00000000000E+00 0. -1.
         21    1    1    2  502  501  0.30943299513E+02  0.89616917040E+01 -0.83396939653E+02  0.89402736235E+02  0.00000000000E+00 0.  1.
<scales pt_clust_5="13000.00000" pt_clust_6="13000.00000" pt_clust_7="13000.00000" pt_clust_8="13000.00000" pt_clust_9="32.21490"></scales>
<clustering>
<clus scale="   32.215">  2  9  1 -1</clus>
<clus scale="   89.506">  5  6 -1 -1</clus>
<clus scale="   99.097">  1  5  2 -1</clus>
<clus scale="  121.871">  7  8 -1 -1</clus>
<clus scale="   99.097">  1  5  2 -1</clus>
</clustering>
</event>
<event>
 9    1  0.1484717E-005  0.1204778E+03  0.7546771E-02  0.1243570E+00
         -1   -1    0    0    0  501 -0.00000000000E+00  0.00000000000E+00  0.95016427422E+02  0.95016427422E+02  0.00000000000E+00 0.  1.
          1   -1    0    0  502    0  0.00000000000E+00 -0.00000000000E+00 -0.33997791899E+03  0.33997791899E+03  0.00000000000E+00 0. -1.
         23    2    1    2    0    0 -0.42859831828E+02  0.68235112045E+02  0.24517812759E+02  0.12251155949E+03  0.88966079857E+02 0.  0.
         23    2    1    2    0    0  0.57439008399E+02 -0.36489877744E+02 -0.15709776283E+03  0.19479709043E+03  0.92927113859E+02 0.  0.
        -11    1    3    3    0    0 -0.24001211022E+02  0.85052315333E+02  0.35137026394E+02  0.95102918451E+02  0.00000000000E+00 0.  1.
         11    1    3    3    0    0 -0.18858620806E+02 -0.16817203289E+02 -0.10619213635E+02  0.27408641035E+02  0.00000000000E+00 0. -1.
        -11    1    4    4    0    0  0.20572127696E+02  0.30970285522E+02 -0.64471237420E+02  0.74423863631E+02  0.00000000000E+00 0.  1.
         11    1    4    4    0    0  0.36866880703E+02 -0.67460163265E+02 -0.92626525406E+02  0.12037322680E+03  0.00000000000E+00 0. -1.
         21    1    1    2  502  501 -0.14579176570E+02 -0.31745234301E+02 -0.11238154150E+03  0.11768569650E+03  0.00000000000E+00 0. -1.
<scales pt_clust_5="13000.00000" pt_clust_6="13000.00000" pt_clust_7="13000.00000" pt_clust_8="13000.00000" pt_clust_9="34.93297"></scales>
<clustering>
<clus scale="   34.933">  2  9  1 -1</clus>
<clus scale="   88.966">  5  6 -1 -1</clus>
<clus scale="   92.927">  7  8 -1 -1</clus>
<clus scale="  117.450">  1  5  2 -1</clus>
<clus scale="   34.933">  2  5  1 -1</clus>
</clustering>
</event>
<event>
 9    1  0.1484717E-005  0.1004452E+03  0.7546771E-02  0.1282694E+00
         -2   -1    0    0    0  501 -0.00000000000E+00  0.00000000000E+00  0.36342522825E+03  0.36342522825E+03  0.00000000000E+00 0.  1.
          2   -1    0    0  502    0  0.00000000000E+00 -0.00000000000E+00 -0.16196043600E+03  0.16196043600E+03  0.00000000000E+00 0. -1.
         23    2    1    2    0    0  0.13041788891E+02 -0.44661868233E+02  0.28935861659E+03  0.30795468902E+03  0.94566964430E+02 0.  0.
         23    2    1    2    0    0  0.10892652889E+02  0.31811163577E+02 -0.13407077931E+03  0.16385570778E+03  0.87994994699E+02 0.  0.
        -11    1    3    3    0    0  0.12904656047E+02 -0.70332031109E+02  0.25636690205E+03  0.26615242477E+03  0.00000000000E+00 0.  1.
         11    1    3    3    0    0  0.13713284388E+00  0.25670162876E+02  0.32991714545E+02  0.41802264246E+02  0.00000000000E+00 0. -1.
        -11    1    4    4    0    0 -0.36345750464E+02  0.19652094351E+02 -0.38115071234E+02  0.56213673109E+02  0.00000000000E+00 0.  1.
         11    1    4    4    0    0  0.47238403353E+02  0.12159069226E+02 -0.95955708074E+02  0.10764203467E+03  0.00000000000E+00 0. -1.
         21    1    1    2  502  501 -0.23934441779E+02  0.12850704656E+02  0.46176954961E+02  0.53575267456E+02  0.00000000000E+00 0. -1.
<scales pt_clust_5="13000.00000" pt_clust_6="13000.00000" pt_clust_7="13000.00000" pt_clust_8="13000.00000" pt_clust_9="27.16612"></scales>
<clustering>
<clus scale="   27.166">  1  9  2 -1</clus>
<clus scale="   87.995">  7  8 -1 -1</clus>
<clus scale="   94.284">  2  7  1 -1</clus>
<clus scale="   94.567">  5  6 -1 -1</clus>
<clus scale="   94.284">  2  5  1 -1</clus>
</clustering>
</event>
<event>
 9    1  0.1484717E-005  0.9581605E+02  0.7546771E-02  0.1289454E+00
         -2   -1    0    0    0  501 -0.00000000000E+00  0.00000000000E+00  0.61381298035E+02  0.61381298035E+02  0.00000000000E+00 0.  1.
          2   -1    0    0  502    0  0.00000000000E+00 -0.00000000000E+00 -0.24097186404E+03  0.24097186404E+03  0.00000000000E+00 0. -1.
         23    2    1    2    0    0 -0.22375946255E+02  0.34635282588E+02 -0.64975126425E+02  0.11819433461E+03  0.89709798285E+02 0.  0.
         23    2    1    2    0    0 -0.11831093878E+01 -0.31678365422E+02 -0.12604325076E+03  0.15780797682E+03  0.89507194698E+02 0.  0.
        -13    1    4    4    0    0  0.32726524974E+02 -0.30489635950E+02 -0.11287082597E+03  0.12141032367E+03  0.00000000000E+00 0. -1.
         13    1    4    4    0    0 -0.33909634362E+02 -0.11887294728E+01 -0.13172424786E+02  0.36397653153E+02  0.00000000000E+00 0.  1.
        -13    1    3    3    0    0 -0.43414636978E+02 -0.42412596644E+01 -0.59316745459E+02  0.73629445736E+02  0.00000000000E+00 0.  1.
         13    1    3    3    0    0  0.21038690723E+02  0.38876542252E+02 -0.56583809657E+01  0.44564888870E+02  0.00000000000E+00 0. -1.
         21    1    1    2  502  501  0.23559055642E+02 -0.29569171656E+01  0.11427811175E+02  0.26350850653E+02  0.00000000000E+00 0. -1.
<scales pt_clust_5="13000.00000" pt_clust_6="13000.00000" pt_clust_7="13000.00000" pt_clust_8="13000.00000" pt_clust_9="23.74389"></scales>
<clustering>
<clus scale="   23.744">  1  9  2 -1</clus>
<clus scale="   89.507">  5  6 -1 -1</clus>
<clus scale="   89.710">  7  8 -1 -1</clus>
<clus scale="   95.626">  2  5  1 -1</clus>
<clus scale="   95.626">  2  5  1 -1</clus>
</clustering>
</event>
<event>
 9    1  0.1484717E-005  0.1432729E+03  0.7546771E-02  0.1209442E+00
         -2   -1    0    0    0  501 -0.00000000000E+00  0.00000000000E+00  0.97182808067E+02  0.97182808067E+02  0.00000000000E+00 0.  1.
          2   -1    0    0  502    0  0.00000000000E+00 -0.00000000000E+00 -0.64806342441E+03  0.64806342441E+03  0.00000000000E+00 0. -1.
         23    2    1    2    0    0  0.36426255916E+02  0.13068236981E+03 -0.75791394046E+02  0.18301143656E+03  0.96664867467E+02 0.  0.
         23    2    1    2    0    0 -0.32874566173E+02 -0.95038091208E+02 -0.49992708969E+03  0.51864524725E+03  0.94619351151E+02 0.  0.
        -11    1    4    4    0    0  0.28317306912E+02 -0.45667766860E+01 -0.93791294266E+02  0.98079213905E+02  0.00000000000E+00 0.  1.
         11    1    4    4    0    0 -0.61191873085E+02 -0.90471314522E+02 -0.40613579542E+03  0.42056603335E+03  0.00000000000E+00 0. -1.
        -13    1    3    3    0    0  0.59098287171E+02  0.44866156096E+02 -0.53554595654E+02  0.91507782320E+02  0.00000000000E+00 0. -1.
         13    1    3    3    0    0 -0.22672031255E+02  0.85816213711E+02 -0.22236798391E+02  0.91503654242E+02  0.00000000000E+00 0.  1.
         21    1    1    2  502  501 -0.35516897432E+01 -0.35644278600E+02  0.24837867385E+02  0.43589548669E+02  0.00000000000E+00 0.  1.
<scales pt_clust_5="13000.00000" pt_clust_6="13000.00000" pt_clust_7="13000.00000" pt_clust_8="13000.00000" pt_clust_9="35.82079"></scales>
<clustering>
<clus scale="   35.821">  1  9  2 -1</clus>
<clus scale="   94.619">  5  6 -1 -1</clus>
<clus scale="   96.665">  7  8 -1 -1</clus>
<clus scale="  141.901">  2  5  1 -1</clus>
<clus scale="  141.901">  2  5  1 -1</clus>
</clustering>
</event>
<event>
 9    1  0.1484717E-005  0.9525572E+02  0.7546771E-02  0.1290626E+00
          1   -1    0    0  502    0  0.00000000000E+00  0.00000000000E+00  0.68229586683E+03  0.68229586683E+03  0.00000000000E+00 0. -1.
         -1   -1    0    0    0  501 -0.00000000000E+00 -0.00000000000E+00 -0.25363007599E+02  0.25363007599E+02  0.00000000000E+00 0.  1.
         23    2    1    2    0    0 -0.11949080926E+02  0.97280798536E+01  0.10835491230E+03  0.14277824072E+03  0.91692000357E+02 0.  0.
         23    2    1    2    0    0 -0.37138185070E+01 -0.29860234015E+02  0.50693377896E+03  0.51604553593E+03  0.91737194620E+02 0.  0.
        -11    1    3    3    0    0 -0.39626127142E+02 -0.24922639030E+02  0.41541517207E+02  0.62586464514E+02  0.00000000000E+00 0. -1.
         11    1    3    3    0    0  0.27677046216E+02  0.34650718884E+02  0.66813395096E+02  0.80191776203E+02  0.00000000000E+00 0.  1.
        -13    1    4    4    0    0 -0.44922808253E+02  0.25963408785E+00  0.26566871389E+03  0.26944014484E+03  0.00000000000E+00 0. -1.
         13    1    4    4    0    0  0.41208989746E+02 -0.30119868103E+02  0.24126506507E+03  0.24660539109E+03  0.00000000000E+00 0.  1.
         21    1    1    2  502  501  0.15662899433E+02  0.20132154161E+02  0.41644167964E+02  0.48835097781E+02  0.00000000000E+00 0.  1.
<scales pt_clust_5="13000.00000" pt_clust_6="13000.00000" pt_clust_7="13000.00000" pt_clust_8="13000.00000" pt_clust_9="25.50745"></scales>
<clustering>
<clus scale="   25.507">  2  9  1 -1</clus>
<clus scale="   91.692">  5  6 -1 -1</clus>
<clus scale="   91.737">  7  8 -1 -1</clus>
<clus scale="   95.212">  2  5  1 -1</clus>
<clus scale="   95.256">  1  5  2 -1</clus>
</clustering>
</event>
<event>
 9    1  0.1484717E-005  0.1207998E+03  0.7546771E-02  0.1241922E+00
          1   -1    0    0  502    0  0.00000000000E+00  0.00000000000E+00  0.46624129970E+02  0.46624129970E+02  0.00000000000E+00 0. -1.
         -1   -1    0    0    0  501 -0.00000000000E+00 -0.00000000000E+00 -0.46875738509E+03  0.46875738509E+03  0.00000000000E+00 0.  1.
         23    2    1    2    0    0 -0.51826200847E+02  0.84857217387E+02 -0.22393835470E+03  0.26154196542E+03  0.91482842836E+02 0.  0.
         23    2    1    2    0    0  0.37171508903E+02 -0.57058657304E+02 -0.10233981135E+03  0.15296478550E+03  0.91035032650E+02 0.  0.
        -11    1    3    3    0    0 -0.74797954763E+02  0.83318615928E+02 -0.18981517847E+03  0.22037814722E+03  0.00000000000E+00 0.  1.
         11    1    3    3    0    0  0.22971753915E+02  0.15386014588E+01 -0.34123176234E+02  0.41163818199E+02  0.00000000000E+00 0. -1.
        -13    1    4    4    0    0 -0.28505425260E+02 -0.51382224704E+01 -0.35618874838E+02  0.45909311083E+02  0.00000000000E+00 0.  1.
         13    1    4    4    0    0  0.65676934163E+02 -0.51920434834E+02 -0.66720936509E+02  0.10705547442E+03  0.00000000000E+00 0. -1.
         21    1    1    2  502  501  0.14654691944E+02 -0.27798560083E+02 -0.95855089072E+02  0.10087476414E+03  0.00000000000E+00 0. -1.
<scales pt_clust_5="13000.00000" pt_clust_6="13000.00000" pt_clust_7="13000.00000" pt_clust_8="13000.00000" pt_clust_9="31.42483"></scales>
<clustering>
<clus scale="   31.425">  2  9  1 -1</clus>
<clus scale="   91.035">  7  8 -1 -1</clus>
<clus scale="   91.483">  5  6 -1 -1</clus>
<clus scale="  120.461">  1  7  2 -1</clus>
<clus scale="  120.461">  1  5  2 -1</clus>
</clustering>
</event>
<event>
 9    1  0.1484717E-005  0.1123032E+03  0.7546771E-02  0.1263779E+00
          1   -1    0    0  502    0  0.00000000000E+00  0.00000000000E+00  0.88297267047E+02  0.88297267047E+02  0.00000000000E+00 0. -1.
         -1   -1    0    0    0  501 -0.00000000000E+00 -0.00000000000E+00 -0.23969696106E+03  0.23969696106E+03  0.00000000000E+00 0.  1.
         23    2    1    2    0    0  0.94243411141E+00 -0.11635057360E+02 -0.68512271114E+02  0.12933612772E+03  0.10907630311E+03 0.  0.
         23    2    1    2    0    0  0.19976558952E+02  0.28154551764E+02  0.11885023338E+02  0.10020854715E+03  0.93320723581E+02 0.  0.
        -11    1    4    4    0    0 -0.36073750950E+01 -0.32513543178E+02  0.12755385313E+02  0.35111871206E+02  0.00000000000E+00 0. -1.
         11    1    4    4    0    0  0.23583934047E+02  0.60668094943E+02 -0.87036197578E+00  0.65096675945E+02  0.00000000000E+00 0.  1.
        -13    1    3    3    0    0  0.50455005410E+02 -0.59212510915E+01 -0.60259888978E+02  0.78816387922E+02  0.00000000000E+00 0.  1.
         13    1    3    3    0    0 -0.49512571299E+02 -0.57138062682E+01 -0.82523821359E+01  0.50519739801E+02  0.00000000000E+00 0. -1.
         21    1    1    2  502  501 -0.20918993063E+02 -0.16519494405E+02 -0.94772446239E+02  0.98449553235E+02  0.00000000000E+00 0.  1.
<scales pt_clust_5="13000.00000" pt_clust_6="13000.00000" pt_clust_7="13000.00000" pt_clust_8="13000.00000" pt_clust_9="26.65517"></scales>
<clustering>
<clus scale="   26.655">  2  9  1 -1</clus>
<clus scale="   93.321">  5  6 -1 -1</clus>
<clus scale="   97.073">  1  5  2 -1</clus>
<clus scale="  109.076">  7  8 -1 -1</clus>
<clus scale="   97.073">  1  5  2 -1</clus>
</clustering>
</event>
<event>
 9    1  0.1484717E-005  0.1065667E+03  0.7546771E-02  0.1273657E+00
          2   -1    0    0  502    0  0.00000000000E+00  0.00000000000E+00  0.59546227434E+03  0.59546227434E+03  0.00000000000E+00 0. -1.
         -2   -1    0    0    0  501 -0.00000000000E+00 -0.00000000000E+00 -0.37825660393E+02  0.37825660393E+02  0.00000000000E+00 0.  1.
         23    2    1    2    0    0 -0.16425119668E+02  0.49927380582E+02  0.22838211601E+03  0.24991636746E+03  0.86817463241E+02 0.  0.
         23    2    1    2    0    0 -0.44060335025E+02 -0.15529313523E+02  0.27046831474E+03  0.29228077420E+03  0.10046128105E+03 0.  0.
        -11    1    4    4    0    0  0.29587903333E+02  0.23937310075E+01  0.41001061680E+02  0.50618781403E+02  0.00000000000E+00 0.  1.
         11    1    4    4    0    0 -0.73648238358E+02 -0.17923044530E+02  0.22946725306E+03  0.24166199280E+03  0.00000000000E+00 0. -1.
        -13    1    3    3    0    0  0.29265387292E+02  0.39256296985E+02  0.75426007913E+02  0.89925538175E+02  0.00000000000E+00 0.  1.
         13    1    3    3    0    0 -0.45690506960E+02  0.10671083597E+02  0.15295610810E+03  0.15999082928E+03  0.00000000000E+00 0. -1.
         21    1    1    2  502  501  0.60485454693E+02 -0.34398067060E+02  0.58786183202E+02  0.91090793071E+02  0.00000000000E+00 0.  1.
<scales pt_clust_5="13000.00000" pt_clust_6="13000.00000" pt_clust_7="13000.00000" pt_clust_8="13000.00000" pt_clust_9="69.58245"></scales>
<clustering>
<clus scale="   69.582">  2  9  1 -1</clus>
<clus scale="   86.817">  7  8 -1 -1</clus>
<clus scale="   93.815">  2  7  1 -1</clus>
<clus scale="  100.461">  5  6 -1 -1</clus>
<clus scale="  106.567">  1  5  2 -1</clus>
</clustering>
</event>
<event>
 9    1  0.1484717E-005  0.1337536E+03  0.7546771E-02  0.1222372E+00
         -1   -1    0    0    0  501 -0.00000000000E+00  0.00000000000E+00  0.49214186201E+03  0.49214186201E+03  0.00000000000E+00 0.  1.
          1   -1    0    0  502    0  0.00000000000E+00 -0.00000000000E+00 -0.60103926097E+02  0.60103926097E+02  0.00000000000E+00 0. -1.
         23    2    1    2    0    0  0.43430915651E+02 -0.96317537641E+02  0.25707188253E+03  0.29212877295E+03  0.89944175483E+02 0.  0.
         23    2    1    2    0    0 -0.15796207933E+02  0.94025395755E+02  0.66073939777E+02  0.14774965606E+03  0.91509016592E+02 0.  0.
        -11    1    4    4    0    0 -0.49015619885E+02  0.35333023262E+02  0.12700277817E+02  0.61743425417E+02  0.00000000000E+00 0.  1.
         11    1    4    4    0    0  0.33219411952E+02  0.58692372493E+02  0.53373661959E+02  0.86006230648E+02  0.00000000000E+00 0. -1.
        -11    1    3    3    0    0 -0.10722791506E+02 -0.61350301527E+02  0.18613466652E+03  0.19627774157E+03  0.00000000000E+00 0.  1.
         11    1    3    3    0    0  0.54153707157E+02 -0.34967236113E+02  0.70937216008E+02  0.95851031373E+02  0.00000000000E+00 0. -1.
         21    1    1    2  502  501 -0.27634707718E+02  0.22921418854E+01  0.10889211360E+03  0.11236735909E+03  0.00000000000E+00 0.  1.
<scales pt_clust_5="13000.00000" pt_clust_6="13000.00000" pt_clust_7="13000.00000" pt_clust_8="13000.00000" pt_clust_9="27.72960"></scales>
<clustering>
<clus scale="   27.730">  1  9  2 -1</clus>
<clus scale="   89.944">  7  8 -1 -1</clus>
<clus scale="   91.509">  5  6 -1 -1</clus>
<clus scale="  132.688">  1  7  2 -1</clus>
<clus scale="  133.754">  2  5  1 -1</clus>
</clustering>
</event>
<event>
 9    1  0.1484717E-005  0.1627055E+03  0.7546771E-02  0.1185892E+00
         -1   -1    0    0    0  501 -0.00000000000E+00  0.00000000000E+00  0.79022496158E+02  0.79022496158E+02  0.00000000000E+00 0.  1.
          1   -1    0    0  502    0  0.00000000000E+00 -0.00000000000E+00 -0.71380343321E+03  0.71380343321E+03  0.00000000000E+00 0. -1.
         23    2    1    2    0    0 -0.62577333884E+02 -0.13973670880E+03 -0.27753503870E+03  0.33005332034E+03  0.92017531264E+02 0.  0.
         23    2    1    2    0    0  0.45345049033E+01  0.12511025685E+03 -0.36996223848E+03  0.40157940354E+03  0.93385337925E+02 0.  0.
        -11    1    3    3    0    0 -0.84444113763E+02 -0.12258177731E+03 -0.21371655906E+03  0.26044551847E+03  0.00000000000E+00 0.  1.
         11    1    3    3    0    0  0.21866779879E+02 -0.17154931482E+02 -0.63818479644E+02  0.69607801865E+02  0.00000000000E+00 0. -1.
        -11    1    4    4    0    0 -0.44389674035E+02  0.59600319704E+02 -0.18364226551E+03  0.19810886641E+03  0.00000000000E+00 0.  1.
         11    1    4    4    0    0  0.48924178938E+02  0.65509937148E+02 -0.18631997297E+03  0.20347053713E+03  0.00000000000E+00 0. -1.
         21    1    1    2  502  501  0.58042828981E+02  0.14626451945E+02  0.12716340125E+02  0.61193205495E+02  0.00000000000E+00 0.  1.
<scales pt_clust_5="13000.00000" pt_clust_6="13000.00000" pt_clust_7="13000.00000" pt_clust_8="13000.00000" pt_clust_9="59.85736"></scales>
<clustering>
<clus scale="   59.857">  1  9  2 -1</clus>
<clus scale="   92.018">  5  6 -1 -1</clus>
<clus scale="   93.385">  7  8 -1 -1</clus>
<clus scale="  161.924">  1  5  2 -1</clus>
<clus scale="  162.705">  2  5  1 -1</clus>
</clustering>
</event>
<event>
 9    1  0.1484717E-005  0.1495186E+03  0.7546771E-02  0.1201293E+00
          1   -1    0    0  502    0  0.00000000000E+00  0.00000000000E+00  0.61069471015E+03  0.61069471015E+03  0.00000000000E+00 0. -1.
         -1   -1    0    0    0  501 -0.00000000000E+00 -0.00000000000E+00 -0.11007835654E+03  0.11007835654E+03  0.00000000000E+00 0.  1.
         23    2    1    2    0    0 -0.47559748436E+02 -0.91024863171E+02  0.21785522670E+02  0.13824117385E+03  0.89936409555E+02 0.  0.
         23    2    1    2    0    0 -0.48793745159E+02  0.11992177462E+03  0.45125613328E+03  0.47822757283E+03  0.91145224794E+02 0.  0.
        -13    1    4    4    0    0 -0.24928390162E+02 -0.43708906244E+01  0.35246939012E+02  0.43392119453E+02  0.00000000000E+00 0. -1.
         13    1    4    4    0    0 -0.23865354996E+02  0.12429266525E+03  0.41600919426E+03  0.43483545338E+03  0.00000000000E+00 0.  1.
        -13    1    3    3    0    0 -0.52289462386E+02 -0.70532914866E+02 -0.21254907665E+02  0.90337428876E+02  0.00000000000E+00 0.  1.
         13    1    3    3    0    0  0.47297139500E+01 -0.20491948304E+02  0.43040430335E+02  0.47903744976E+02  0.00000000000E+00 0. -1.
         21    1    1    2  502  501  0.96353493594E+02 -0.28896911451E+02  0.27574697666E+02  0.10430432000E+03  0.00000000000E+00 0.  1.
<scales pt_clust_5="13000.00000" pt_clust_6="13000.00000" pt_clust_7="13000.00000" pt_clust_8="13000.00000" pt_clust_9="100.59338"></scales>
<clustering>
<clus scale="   89.936">  7  8 -1 -1</clus>
<clus scale="   91.145">  5  6 -1 -1</clus>
<clus scale="  100.593">  2  9  1 -1</clus>
<clus scale="  148.785">  2  7  1 -1</clus>
<clus scale="  149.519">  1  5  2 -1</clus>
</clustering>
</event>
<event>
 9    1  0.1484717E-005  0.1262911E+03  0.7546771E-02  0.1233160E+00
         -4   -1    0    0    0  501 -0.00000000000E+00  0.00000000000E+00  0.80433238775E+02  0.80433238775E+02  0.00000000000E+00 0.  1.
          4   -1    0    0  502    0  0.00000000000E+00 -0.00000000000E+00 -0.55635617276E+03  0.55635617276E+03  0.00000000000E+00 0. -1.
         23    2    1    2    0    0  0.89677302581E+02  0.42642724430E+02 -0.53055371859E+01  0.13480144680E+03  0.91010223538E+02 0.  0.
         23    2    1    2    0    0 -0.68119591012E+02 -0.52986019169E+02 -0.45830901691E+03  0.47509530980E+03  0.90667532806E+02 0.  0.
        -13    1    3    3    0    0 -0.15332424557E+02  0.17355010231E+02  0.10875892249E+02  0.25584461205E+02  0.00000000000E+00 0.  1.
         13    1    3    3    0    0  0.10500972714E+03  0.25287714199E+02 -0.16181429435E+02  0.10921698559E+03  0.00000000000E+00 0. -1.
        -13    1    4    4    0    0 -0.84860967591E+02 -0.18719780155E+02 -0.32849067743E+03  0.33979102276E+03  0.00000000000E+00 0.  1.
         13    1    4    4    0    0  0.16741376579E+02 -0.34266239014E+02 -0.12981833948E+03  0.13530428704E+03  0.00000000000E+00 0. -1.
         21    1    1    2  502  501 -0.21557711570E+02  0.10343294739E+02 -0.12308379887E+02  0.26892654938E+02  0.00000000000E+00 0.  1.
<scales pt_clust_5="13000.00000" pt_clust_6="13000.00000" pt_clust_7="13000.00000" pt_clust_8="13000.00000" pt_clust_9="23.91064"></scales>
<clustering>
<clus scale="   23.911">  1  9  2 -1</clus>
<clus scale="   90.668">  7  8 -1 -1</clus>
<clus scale="   91.010">  5  6 -1 -1</clus>
<clus scale="  126.044">  2  7  1 -1</clus>
<clus scale="  126.044">  2  5  1 -1</clus>
</clustering>
</event>
<event>
 9    1  0.1484717E-005  0.1508969E+03  0.7546771E-02  0.1199683E+00
          1   -1    0    0  502    0  0.00000000000E+00  0.00000000000E+00  0.11898239909E+03  0.11898239909E+03  0.00000000000E+00 0. -1.
         -1   -1    0    0    0  501 -0.00000000000E+00 -0.00000000000E+00 -0.49455655837E+03  0.49455655837E+03  0.00000000000E+00 0.  1.
         23    2    1    2    0    0  0.33206497952E+02  0.95080819496E+02 -0.36099966030E+03  0.38538359874E+03  0.89759287526E+02 0.  0.
         23    2    1    2    0    0 -0.65912972487E+02 -0.10430711199E+03  0.44601546262E+02  0.15991576406E+03  0.91428989458E+02 0.  0.
        -11    1    4    4    0    0 -0.13359593777E+02 -0.86153131689E+02  0.55373279402E+02  0.10328136772E+03  0.00000000000E+00 0. -1.
         11    1    4    4    0    0 -0.52553378710E+02 -0.18153980297E+02 -0.10771733140E+02  0.56634396344E+02  0.00000000000E+00 0.  1.
        -13    1    3    3    0    0 -0.16923995975E+02  0.72297594514E+02 -0.15077428501E+03  0.16806620372E+03  0.00000000000E+00 0. -1.
         13    1    3    3    0    0  0.50130493927E+02  0.22783224983E+02 -0.21022537529E+03  0.21731739502E+03  0.00000000000E+00 0.  1.
         21    1    1    2  502  501  0.32706474535E+02  0.92262924899E+01 -0.59176045236E+02  0.68239594660E+02  0.00000000000E+00 0.  1.
<scales pt_clust_5="13000.00000" pt_clust_6="13000.00000" pt_clust_7="13000.00000" pt_clust_8="13000.00000" pt_clust_9="33.98291"></scales>
<clustering>
<clus scale="   33.983">  2  9  1 -1</clus>
<clus scale="   89.759">  7  8 -1 -1</clus>
<clus scale="   91.429">  5  6 -1 -1</clus>
<clus scale="  149.891">  2  7  1 -1</clus>
<clus scale="  150.897">  1  5  2 -1</clus>
</clustering>
</event>
<event>
 9    1  0.1484717E-005  0.1784328E+03  0.7546771E-02  0.1170116E+00
          4   -1    0    0  502    0  0.00000000000E+00  0.00000000000E+00  0.55768624071E+03  0.55768624071E+03  0.00000000000E+00 0. -1.
         -4   -1    0    0    0  501 -0.00000000000E+00 -0.00000000000E+00 -0.16261401200E+03  0.16261401200E+03  0.00000000000E+00 0.  1.
         23    2    1    2    0    0  0.13385937705E+03 -0.17425052676E+02  0.38729180086E+01  0.16629381308E+03  0.97039515099E+02 0.  0.
         23    2    1    2    0    0 -0.17524625791E+03 -0.67439432543E+02  0.71402068385E+02  0.22056209502E+03  0.91049735952E+02 0.  0.
        -11    1    4    4    0    0 -0.42389279296E+02 -0.47768365807E+02 -0.82788210951E+01  0.64398809382E+02  0.00000000000E+00 0.  1.
         11    1    4    4    0    0 -0.13285697861E+03 -0.19671066736E+02  0.79680889481E+02  0.15616328564E+03  0.00000000000E+00 0. -1.
        -11    1    3    3    0    0  0.53460745350E+02  0.36149798757E+02  0.21625567745E+02  0.68062650726E+02  0.00000000000E+00 0. -1.
         11    1    3    3    0    0  0.80398631696E+02 -0.53574851432E+02 -0.17752649737E+02  0.98231162353E+02  0.00000000000E+00 0.  1.
         21    1    1    2  502  501  0.41386880864E+02  0.84864485218E+02  0.31979724232E+03  0.33344434461E+03  0.00000000000E+00 0.  1.
<scales pt_clust_5="13000.00000" pt_clust_6="13000.00000" pt_clust_7="13000.00000" pt_clust_8="13000.00000" pt_clust_9="94.41851"></scales>
<clustering>
<clus scale="   91.050">  5  6 -1 -1</clus>
<clus scale="   94.419">  1  9  2 -1</clus>
<clus scale="   97.040">  7  8 -1 -1</clus>
<clus scale="  175.247">  1  5  2 -1</clus>
<clus scale="   94.419">  1  5  2 -1</clus>
</clustering>
</event>
<event>
 9    1  0.1484717E-005  0.9953636E+02  0.7546771E-02  0.1281942E+00
         -1   -1    0    0    0  501 -0.00000000000E+00  0.00000000000E+00  0.50212497327E+03  0.50212497327E+03  0.00000000000E+00 0.  1.
          1   -1    0    0  502    0  0.00000000000E+00 -0.00000000000E+00 -0.38571112497E+02  0.38571112497E+02  0.00000000000E+00 0. -1.
         23    2    1    2    0    0 -0.34097038435E+02 -0.14342661463E+01  0.21979982676E+03  0.24247459059E+03  0.96526152371E+02 0.  0.
         23    2    1    2    0    0 -0.99646423131E+01 -0.46706159268E+02  0.15319524004E+03  0.18659789804E+03  0.95232528972E+02 0.  0.
        -11    1    3    3    0    0 -0.57316732401E+02 -0.20894022430E+02  0.19162748263E+03  0.20110410261E+03  0.00000000000E+00 0.  1.
         11    1    3    3    0    0  0.23219693967E+02  0.19459756284E+02  0.28172344124E+02  0.41370487983E+02  0.00000000000E+00 0. -1.
        -13    1    4    4    0    0 -0.45701186608E+02 -0.23384531080E+02  0.38345452223E+02  0.64076582754E+02  0.00000000000E+00 0.  1.
         13    1    4    4    0    0  0.35736544295E+02 -0.23321628188E+02  0.11484978781E+03  0.12252131529E+03  0.00000000000E+00 0. -1.
         21    1    1    2  502  501  0.44061680748E+02  0.48140425415E+02  0.90558793985E+02  0.11162359714E+03  0.00000000000E+00 0. -1.
<scales pt_clust_5="13000.00000" pt_clust_6="13000.00000" pt_clust_7="13000.00000" pt_clust_8="13000.00000" pt_clust_9="65.26050"></scales>
<clustering>
<clus scale="   65.260">  2  9  1 -1</clus>
<clus scale="   95.233">  7  8 -1 -1</clus>
<clus scale="   96.526">  5  6 -1 -1</clus>
<clus scale="   98.282">  2  7  1 -1</clus>
<clus scale="   65.260">  2  5  1 -1</clus>
</clustering>
</event>
<event>
 9    1  0.1484717E-005  0.1002937E+03  0.7546771E-02  0.1280631E+00
          3   -1    0    0  502    0  0.00000000000E+00  0.00000000000E+00  0.38189629945E+03  0.38189629945E+03  0.00000000000E+00 0. -1.
         -3   -1    0    0    0  501 -0.00000000000E+00 -0.00000000000E+00 -0.56106561573E+02  0.56106561573E+02  0.00000000000E+00 0.  1.
         23    2    1    2    0    0 -0.87467975024E+01 -0.45474820374E+02  0.11420228054E+03  0.15479750076E+03  0.93678383881E+02 0.  0.
         23    2    1    2    0    0 -0.48316461902E+02  0.11801739164E+02  0.18378733587E+03  0.21135176797E+03  0.91749787242E+02 0.  0.
        -11    1    3    3    0    0  0.24052713028E+02  0.61637082791E+01  0.81975414006E+02  0.85653329213E+02  0.00000000000E+00 0. -1.
         11    1    3    3    0    0 -0.32799510530E+02 -0.51638528653E+02  0.32226866535E+02  0.69144171548E+02  0.00000000000E+00 0.  1.
        -11    1    4    4    0    0 -0.91970091323E+01 -0.37082198868E+02  0.97700383031E+02  0.10490490596E+03  0.00000000000E+00 0.  1.
         11    1    4    4    0    0 -0.39119452769E+02  0.48883938032E+02  0.86086952840E+02  0.10644686201E+03  0.00000000000E+00 0. -1.
         21    1    1    2  502  501  0.57063259404E+02  0.33673081210E+02  0.27800121465E+02  0.71853592293E+02  0.00000000000E+00 0. -1.
<scales pt_clust_5="13000.00000" pt_clust_6="13000.00000" pt_clust_7="13000.00000" pt_clust_8="13000.00000" pt_clust_9="66.25777"></scales>
<clustering>
<clus scale="   66.258">  2  9  1 -1</clus>
<clus scale="   91.750">  7  8 -1 -1</clus>
<clus scale="   93.678">  5  6 -1 -1</clus>
<clus scale="   98.495">  1  7  2 -1</clus>
<clus scale="   98.495">  1  5  2 -1</clus>
</clustering>
</event>
<event>
 9    1  0.1484717E-005  0.2055193E+03  0.7546771E-02  0.1178059E+00
          1   -1    0    0  502    0  0.00000000000E+00  0.00000000000E+00  0.44307769389E+03  0.44307769389E+03  0.00000000000E+00 0. -1.
         -1   -1    0    0    0  501 -0.00000000000E+00 -0.00000000000E+00 -0.57449353581E+03  0.57449353581E+03  0.00000000000E+00 0.  1.
         23    2    1    2    0    0 -0.55679700504E+02 -0.16539060184E+03  0.27410946503E+03  0.33793172174E+03  0.92776988045E+02 0.  0.
         23    2    1    2    0    0 -0.43037925254E+02  0.99831670202E+01  0.10190854467E+03  0.13983792014E+03  0.84955081064E+02 0.  0.
        -11    1    3    3    0    0 -0.26282527878E+02 -0.28031737878E+02  0.13451461051E+03  0.13989542538E+03  0.00000000000E+00 0. -1.
         11    1    3    3    0    0 -0.29397172626E+02 -0.13735886397E+03  0.13959485452E+03  0.19803629636E+03  0.00000000000E+00 0.  1.
        -13    1    4    4    0    0 -0.61262435370E+02  0.20017918662E+02  0.43295586218E+02  0.77642197553E+02  0.00000000000E+00 0.  1.
         13    1    4    4    0    0  0.18224510116E+02 -0.10034751642E+02  0.58612958457E+02  0.62195722591E+02  0.00000000000E+00 0. -1.
         21    1    1    2  502  501  0.98717625758E+02  0.15540743482E+03 -0.50743385162E+03  0.53980158781E+03  0.00000000000E+00 0.  1.
<scales pt_clust_5="13000.00000" pt_clust_6="13000.00000" pt_clust_7="13000.00000" pt_clust_8="13000.00000" pt_clust_9="183.38653"></scales>
<clustering>
<clus scale="   84.955">  7  8 -1 -1</clus>
<clus scale="   92.777">  5  6 -1 -1</clus>
<clus scale="   95.756">  1  7  2 -1</clus>
<clus scale="  183.387">  2  9  1 -1</clus>
<clus scale="   95.756">  1  5  2 -1</clus>
</clustering>
</event>
<event>
 9    1  0.1484717E-005  0.1399589E+03  0.7546771E-02  0.1216008E+00
         -1   -1    0    0    0  501 -0.00000000000E+00  0.00000000000E+00  0.97247857217E+02  0.97247857217E+02  0.00000000000E+00 0.  1.
          1   -1    0    0  502    0  0.00000000000E+00 -0.00000000000E+00 -0.52205926681E+03  0.52205926681E+03  0.00000000000E+00 0. -1.
         23    2    1    2    0    0 -0.75847211903E+02 -0.94610857447E+02  0.83992778128E+00  0.15352495505E+03  0.94155150912E+02 0.  0.
         23    2    1    2    0    0  0.55825696431E+02  0.84590591872E+02 -0.42360177093E+03  0.44329956400E+03  0.82486159402E+02 0.  0.
        -13    1    4    4    0    0 -0.99015034067E+01  0.35561601185E+02 -0.59045524567E+02  0.69635057406E+02  0.00000000000E+00 0.  1.
         13    1    4    4    0    0  0.65727199837E+02  0.49028990687E+02 -0.36455624636E+03  0.37366450659E+03  0.00000000000E+00 0. -1.
        -13    1    3    3    0    0 -0.94786153967E+02 -0.58736535946E+02 -0.87104272151E+01  0.11184930568E+03  0.00000000000E+00 0.  1.
         13    1    3    3    0    0  0.18938942064E+02 -0.35874321501E+02  0.95503549964E+01  0.41675649368E+02  0.00000000000E+00 0. -1.
         21    1    1    2  502  501  0.20021515473E+02  0.10020265575E+02 -0.20495664451E+01  0.22482604979E+02  0.00000000000E+00 0.  1.
<scales pt_clust_5="13000.00000" pt_clust_6="13000.00000" pt_clust_7="13000.00000" pt_clust_8="13000.00000" pt_clust_9="22.38899"></scales>
<clustering>
<clus scale="   22.389">  1  9  2 -1</clus>
<clus scale="   82.486">  5  6 -1 -1</clus>
<clus scale="   94.155">  7  8 -1 -1</clus>
<clus scale="  132.391">  2  5  1 -1</clus>
<clus scale="  132.391">  2  5  1 -1</clus>
</clustering>
</event>
<event>
 9    1  0.1484717E-005  0.1234167E+03  0.7546771E-02  0.1237872E+00
          3   -1    0    0  502    0  0.00000000000E+00  0.00000000000E+00  0.19689107941E+03  0.19689107941E+03  0.00000000000E+00 0. -1.
         -3   -1    0    0    0  501 -0.00000000000E+00 -0.00000000000E+00 -0.25027396013E+03  0.25027396013E+03  0.00000000000E+00 0.  1.
         23    2    1    2    0    0 -0.16044655013E+02  0.11425008265E+03 -0.13494690457E+03  0.19972234048E+03  0.91475865083E+02 0.  0.
         23    2    1    2    0    0  0.54780267816E+01 -0.76919985432E+02  0.13531854567E+03  0.18114987587E+03  0.92506625652E+02 0.  0.
        -11    1    3    3    0    0 -0.37075767637E+02  0.55380207093E+02 -0.11705658108E+03  0.13469900912E+03  0.00000000000E+00 0.  1.
         11    1    3    3    0    0  0.21031112623E+02  0.58869875555E+02 -0.17890323489E+02  0.65023331356E+02  0.00000000000E+00 0. -1.
        -11    1    4    4    0    0 -0.44766925552E+01 -0.96583403986E+02  0.97078898589E+02  0.13701352945E+03  0.00000000000E+00 0. -1.
         11    1    4    4    0    0  0.99547193368E+01  0.19663418554E+02  0.38239647081E+02  0.44136346418E+02  0.00000000000E+00 0.  1.
         21    1    1    2  502  501  0.10566628232E+02 -0.37330097215E+02 -0.53754521819E+02  0.66292823188E+02  0.00000000000E+00 0.  1.
<scales pt_clust_5="13000.00000" pt_clust_6="13000.00000" pt_clust_7="13000.00000" pt_clust_8="13000.00000" pt_clust_9="38.79678"></scales>
<clustering>
<clus scale="   38.797">  2  9  1 -1</clus>
<clus scale="   91.476">  5  6 -1 -1</clus>
<clus scale="   92.507">  7  8 -1 -1</clus>
<clus scale="  122.646">  2  5  1 -1</clus>
<clus scale="  123.417">  1  5  2 -1</clus>
</clustering>
</event>
<event>
 9    1  0.1484717E-005  0.1284352E+03  0.7546771E-02  0.1239025E+00
          2   -1    0    0  502    0  0.00000000000E+00  0.00000000000E+00  0.31947379909E+03  0.31947379909E+03  0.00000000000E+00 0. -1.
         -2   -1    0    0    0  501 -0.00000000000E+00 -0.00000000000E+00 -0.80361038929E+02  0.80361038929E+02  0.00000000000E+00 0.  1.
         23    2    1    2    0    0  0.55627904621E+01 -0.51368667281E+02  0.19941817312E+02  0.10746016635E+03  0.92088689086E+02 0.  0.
         23    2    1    2    0    0  0.24788943772E+02  0.50238876857E+02  0.22662419787E+03  0.26110079747E+03  0.11694726546E+03 0.  0.
        -11    1    3    3    0    0 -0.28237611527E+02 -0.43015115842E+02  0.41848276012E+02  0.66324513574E+02  0.00000000000E+00 0.  1.
         11    1    3    3    0    0  0.33800401989E+02 -0.83535514386E+01 -0.21906458700E+02  0.41135652773E+02  0.00000000000E+00 0. -1.
        -11    1    4    4    0    0  0.38294444868E+01 -0.38356485343E+02  0.63149803655E+02  0.73985014122E+02  0.00000000000E+00 0.  1.
         11    1    4    4    0    0  0.20959499285E+02  0.88595362200E+02  0.16347439421E+03  0.18711578335E+03  0.00000000000E+00 0. -1.
         21    1    1    2  502  501 -0.30351734234E+02  0.11297904237E+01 -0.74532550192E+01  0.31273874205E+02  0.00000000000E+00 0.  1.
<scales pt_clust_5="13000.00000" pt_clust_6="13000.00000" pt_clust_7="13000.00000" pt_clust_8="13000.00000" pt_clust_9="30.37275"></scales>
<clustering>
<clus scale="   30.373">  2  9  1 -1</clus>
<clus scale="   92.089">  5  6 -1 -1</clus>
<clus scale="  106.298">  2  5  1 -1</clus>
<clus scale="  116.947">  7  8 -1 -1</clus>
<clus scale="  128.435">  1  5  2 -1</clus>
</clustering>
</event>
<event>
 9    1  0.1484717E-005  0.2182245E+03  0.7546771E-02  0.1135303E+00
          1   -1    0    0  502    0  0.00000000000E+00  0.00000000000E+00  0.14061403018E+04  0.14061403018E+04  0.00000000000E+00 0. -1.
         -1   -1    0    0    0  501 -0.00000000000E+00 -0.00000000000E+00 -0.61257624085E+02  0.61257624085E+02  0.00000000000E+00 0.  1.
         23    2    1    2    0    0 -0.65764369927E+02  0.17554782064E+03  0.29240369563E+03  0.36013233236E+03  0.95149282231E+02 0.  0.
         23    2    1    2    0    0  0.15747426869E+03 -0.16376597092E+03  0.66790222984E+03  0.71172950683E+03  0.94064146927E+02 0.  0.
        -11    1    4    4    0    0 -0.28878959403E+01 -0.35789210152E+02  0.15946320046E+03  0.16345555912E+03  0.00000000000E+00 0.  1.
         11    1    4    4    0    0  0.16036216463E+03 -0.12797676077E+03  0.50843902939E+03  0.54827394772E+03  0.00000000000E+00 0. -1.
        -11    1    3    3    0    0 -0.21993839816E+02  0.66089625287E+02  0.19547756226E+03  0.20751637262E+03  0.00000000000E+00 0. -1.
         11    1    3    3    0    0 -0.43770530111E+02  0.10945819535E+03  0.96926133374E+02  0.15261595974E+03  0.00000000000E+00 0.  1.
         21    1    1    2  502  501 -0.91709898761E+02 -0.11781849714E+02  0.38457675223E+03  0.39553608669E+03  0.00000000000E+00 0.  1.
<scales pt_clust_5="13000.00000" pt_clust_6="13000.00000" pt_clust_7="13000.00000" pt_clust_8="13000.00000" pt_clust_9="92.46360"></scales>
<clustering>
<clus scale="   92.464">  1  9  2 -1</clus>
<clus scale="   94.064">  5  6 -1 -1</clus>
<clus scale="   95.149">  7  8 -1 -1</clus>
<clus scale="  217.754">  1  5  2 -1</clus>
<clus scale="   92.464">  1  5  2 -1</clus>
</clustering>
</event>
<event>
 9    1  0.1484717E-005  0.1452245E+03  0.7546771E-02  0.1207097E+00
         -3   -1    0    0    0  501 -0.00000000000E+00  0.00000000000E+00  0.13806237654E+03  0.13806237654E+03  0.00000000000E+00 0.  1.
          3   -1    0    0  502    0  0.00000000000E+00 -0.00000000000E+00 -0.29761205931E+03  0.29761205931E+03  0.00000000000E+00 0. -1.
         23    2    1    2    0    0  0.81168907962E+02 -0.10907809986E+03 -0.15276628390E+02  0.16463759617E+03  0.91573681856E+02 0.  0.
         23    2    1    2    0    0 -0.19846098938E+02  0.10221415173E+03 -0.15398580741E+03  0.20857134311E+03  0.94597969450E+02 0.  0.
        -11    1    3    3    0    0  0.86338394975E+02 -0.48692564630E+02 -0.27379755455E+02  0.10283450445E+03  0.00000000000E+00 0. -1.
         11    1    3    3    0    0 -0.51694870128E+01 -0.60385535233E+02  0.12103127065E+02  0.61803091720E+02  0.00000000000E+00 0.  1.
        -13    1    4    4    0    0 -0.47153261720E+02  0.70744395070E+02 -0.14149650990E+03  0.16507411014E+03  0.00000000000E+00 0.  1.
         13    1    4    4    0    0  0.27307162781E+02  0.31469756665E+02 -0.12489297513E+02  0.43497232970E+02  0.00000000000E+00 0. -1.
         21    1    1    2  502  501 -0.61322809023E+02  0.68639481289E+01  0.97127530217E+01  0.62465496570E+02  0.00000000000E+00 0.  1.
<scales pt_clust_5="13000.00000" pt_clust_6="13000.00000" pt_clust_7="13000.00000" pt_clust_8="13000.00000" pt_clust_9="61.70576"></scales>
<clustering>
<clus scale="   61.706">  1  9  2 -1</clus>
<clus scale="   91.574">  5  6 -1 -1</clus>
<clus scale="   94.598">  7  8 -1 -1</clus>
<clus scale="  143.273">  1  5  2 -1</clus>
<clus scale="  145.224">  2  5  1 -1</clus>
</clustering>
</event>
<event>
 9    1  0.1484717E-005  0.1132101E+03  0.7546771E-02  0.1258749E+00
         -1   -1    0    0    0  501 -0.00000000000E+00  0.00000000000E+00  0.11153576527E+03  0.11153576527E+03  0.00000000000E+00 0.  1.
          1   -1    0    0  502    0  0.00000000000E+00 -0.00000000000E+00 -0.23966017221E+03  0.23966017221E+03  0.00000000000E+00 0. -1.
         23    2    1    2    0    0 -0.47781983064E+02  0.30536487633E+02  0.16884661379E+02  0.11005112442E+03  0.92793120510E+02 0.  0.
         23    2    1    2    0    0  0.68649092872E+02 -0.63968141295E+00 -0.16717548042E+03  0.19847626352E+03  0.82049246086E+02 0.  0.
        -13    1    3    3    0    0  0.20761801394E+02  0.30019025919E+01  0.28383201750E+02  0.35294049893E+02  0.00000000000E+00 0.  1.
         13    1    3    3    0    0 -0.68543784458E+02  0.27534585042E+02 -0.11498540372E+02  0.74757074527E+02  0.00000000000E+00 0. -1.
        -13    1    4    4    0    0  0.44787563427E+02  0.39167733025E+02 -0.79797489450E+02  0.99537311952E+02  0.00000000000E+00 0. -1.
         13    1    4    4    0    0  0.23861529445E+02 -0.39807414438E+02 -0.87377990973E+02  0.98938951572E+02  0.00000000000E+00 0.  1.
         21    1    1    2  502  501 -0.20867109808E+02 -0.29896806220E+02  0.22166412108E+02  0.42668549538E+02  0.00000000000E+00 0.  1.
<scales pt_clust_5="13000.00000" pt_clust_6="13000.00000" pt_clust_7="13000.00000" pt_clust_8="13000.00000" pt_clust_9="36.45895"></scales>
<clustering>
<clus scale="   36.459">  1  9  2 -1</clus>
<clus scale="   82.049">  7  8 -1 -1</clus>
<clus scale="   92.793">  5  6 -1 -1</clus>
<clus scale="  104.585">  2  7  1 -1</clus>
<clus scale="  104.585">  2  5  1 -1</clus>
</clustering>
</event>
<event>
 9    1  0.1484717E-005  0.9698895E+02  0.7546771E-02  0.1288104E+00
          1   -1    0    0  502    0  0.00000000000E+00  0.00000000000E+00  0.11413483150E+03  0.11413483150E+03  0.00000000000E+00 0. -1.
         -1   -1    0    0    0  501 -0.00000000000E+00 -0.00000000000E+00 -0.13618547553E+03  0.13618547553E+03  0.00000000000E+00 0.  1.
         23    2    1    2    0    0 -0.22538169542E+02  0.85255767173E+01 -0.44326925422E+02  0.10013217764E+03  0.86492324151E+02 0.  0.
         23    2    1    2    0    0  0.40163669084E+02 -0.18099925665E+02  0.53628501088E+02  0.11296867115E+03  0.89135721847E+02 0.  0.
        -11    1    3    3    0    0  0.29634950391E+02  0.32452888054E+01 -0.36474512402E+02  0.47107878737E+02  0.00000000000E+00 0.  1.
         11    1    3    3    0    0 -0.52173119934E+02  0.52802879119E+01 -0.78524130204E+01  0.53024298904E+02  0.00000000000E+00 0. -1.
        -11    1    4    4    0    0 -0.82330336317E+01  0.29969620110E+02  0.14077808539E+02  0.34119578918E+02  0.00000000000E+00 0.  1.
         11    1    4    4    0    0  0.48396702716E+02 -0.48069545775E+02  0.39550692549E+02  0.78849092233E+02  0.00000000000E+00 0. -1.
         21    1    1    2  502  501 -0.17625499542E+02  0.95743489477E+01 -0.31352219693E+02  0.37219458239E+02  0.00000000000E+00 0. -1.
<scales pt_clust_5="13000.00000" pt_clust_6="13000.00000" pt_clust_7="13000.00000" pt_clust_8="13000.00000" pt_clust_9="20.05808"></scales>
<clustering>
<clus scale="   20.058">  2  9  1 -1</clus>
<clus scale="   86.492">  5  6 -1 -1</clus>
<clus scale="   89.136">  7  8 -1 -1</clus>
<clus scale="   94.565">  2  5  1 -1</clus>
<clus scale="   96.989">  1  5  2 -1</clus>
</clustering>
</event>
<event>
 9    1  0.1484717E-005  0.2085271E+03  0.7546771E-02  0.1142897E+00
         -2   -1    0    0    0  501 -0.00000000000E+00  0.00000000000E+00  0.17864266709E+03  0.17864266709E+03  0.00000000000E+00 0.  1.
          2   -1    0    0  502    0  0.00000000000E+00 -0.00000000000E+00 -0.84414092452E+03  0.84414092452E+03  0.00000000000E+00 0. -1.
         23    2    1    2    0    0 -0.16287324931E+03 -0.87750614083E+02  0.88253620781E+02  0.22389426069E+03  0.90067045993E+02 0.  0.
         23    2    1    2    0    0  0.19050398803E+03  0.90802963481E+02 -0.71543987913E+03  0.75155452520E+03  0.91885994925E+02 0.  0.
        -13    1    3    3    0    0 -0.87305527801E+02 -0.76991858690E+02  0.90633002549E+02  0.14752743013E+03  0.00000000000E+00 0.  1.
         13    1    3    3    0    0 -0.75567721511E+02 -0.10758755394E+02 -0.23793817679E+01  0.76366830559E+02  0.00000000000E+00 0. -1.
        -13    1    4    4    0    0  0.69972763725E+02  0.53882878186E+00 -0.13700547428E+03  0.15384075527E+03  0.00000000000E+00 0.  1.
         13    1    4    4    0    0  0.12053122430E+03  0.90264134699E+02 -0.57843440485E+03  0.59771376992E+03  0.00000000000E+00 0. -1.
         21    1    1    2  502  501 -0.27630738714E+02 -0.30523493974E+01 -0.38311999086E+02  0.47334805721E+02  0.00000000000E+00 0. -1.
<scales pt_clust_5="13000.00000" pt_clust_6="13000.00000" pt_clust_7="13000.00000" pt_clust_8="13000.00000" pt_clust_9="27.79882"></scales>
<clustering>
<clus scale="   27.799">  2  9  1 -1</clus>
<clus scale="   90.067">  5  6 -1 -1</clus>
<clus scale="   91.886">  7  8 -1 -1</clus>
<clus scale="  207.732">  1  5  2 -1</clus>
<clus scale="   27.799">  2  5  1 -1</clus>
</clustering>
</event>
<event>
 9    1  0.1484717E-005  0.1107294E+03  0.7546771E-02  0.1259229E+00
         -1   -1    0    0    0  501 -0.00000000000E+00  0.00000000000E+00  0.38340027601E+02  0.38340027601E+02  0.00000000000E+00 0.  1.
          1   -1    0    0  502    0  0.00000000000E+00 -0.00000000000E+00 -0.40642838694E+03  0.40642838694E+03  0.00000000000E+00 0. -1.
         23    2    1    2    0    0  0.55677079577E+02 -0.12796719164E+02 -0.12435084209E+03  0.16360391491E+03  0.89662789578E+02 0.  0.
         23    2    1    2    0    0 -0.63796091203E+02  0.31083156199E+02 -0.23010184656E+03  0.25695203085E+03  0.89673756002E+02 0.  0.
        -11    1    3    3    0    0 -0.14386461463E+01  0.20353645290E+02  0.25350751883E+01  0.20561303109E+02  0.00000000000E+00 0. -1.
         11    1    3    3    0    0  0.57115725724E+02 -0.33150364454E+02 -0.12688591728E+03  0.14304261181E+03  0.00000000000E+00 0.  1.
        -13    1    4    4    0    0 -0.51167425921E+02  0.61904178882E+02 -0.14877487342E+03  0.16906861270E+03  0.00000000000E+00 0.  1.
         13    1    4    4    0    0 -0.12628665283E+02 -0.30821022683E+02 -0.81326973140E+02  0.87883418152E+02  0.00000000000E+00 0. -1.
         21    1    1    2  502  501  0.81190116261E+01 -0.18286437035E+02 -0.13635670692E+02  0.24212468780E+02  0.00000000000E+00 0.  1.
<scales pt_clust_5="13000.00000" pt_clust_6="13000.00000" pt_clust_7="13000.00000" pt_clust_8="13000.00000" pt_clust_9="20.00780"></scales>
<clustering>
<clus scale="   20.008">  1  9  2 -1</clus>
<clus scale="   89.663">  5  6 -1 -1</clus>
<clus scale="   89.674">  7  8 -1 -1</clus>
<clus scale="  110.721">  1  5  2 -1</clus>
<clus scale="  110.729">  2  5  1 -1</clus>
</clustering>
</event>
<event>
 9    1  0.1484717E-005  0.1143658E+03  0.7546771E-02  0.1252909E+00
          2   -1    0    0  502    0  0.00000000000E+00  0.00000000000E+00  0.64027185396E+03  0.64027185396E+03  0.00000000000E+00 0. -1.
         -2   -1    0    0    0  501 -0.00000000000E+00 -0.00000000000E+00 -0.57927502053E+02  0.57927502053E+02  0.00000000000E+00 0.  1.
         23    2    1    2    0    0  0.83206218393E+02  0.52257606773E+02  0.24454060359E+03  0.27993114501E+03  0.94378000073E+02 0.  0.
         23    2    1    2    0    0 -0.41088935371E+02 -0.25348717650E+02  0.35080451004E+03  0.36662546080E+03  0.94971396464E+02 0.  0.
        -13    1    4    4    0    0 -0.56886650332E+02  0.14531129677E+02  0.14573142370E+03  0.15711426596E+03  0.00000000000E+00 0.  1.
         13    1    4    4    0    0  0.15797714961E+02 -0.39879847327E+02  0.20507308635E+03  0.20951119484E+03  0.00000000000E+00 0. -1.
        -13    1    3    3    0    0  0.86132681763E+02  0.26184603669E+01  0.14534543994E+03  0.16897038827E+03  0.00000000000E+00 0. -1.
         13    1    3    3    0    0 -0.29264633702E+01  0.49639146407E+02  0.99195163648E+02  0.11096075673E+03  0.00000000000E+00 0.  1.
         21    1    1    2  502  501 -0.42117283022E+02 -0.26908889124E+02 -0.13000761723E+02  0.51642750202E+02  0.00000000000E+00 0.  1.
<scales pt_clust_5="13000.00000" pt_clust_6="13000.00000" pt_clust_7="13000.00000" pt_clust_8="13000.00000" pt_clust_9="49.97953"></scales>
<clustering>
<clus scale="   49.980">  2  9  1 -1</clus>
<clus scale="   94.378">  7  8 -1 -1</clus>
<clus scale="   94.971">  5  6 -1 -1</clus>
<clus scale="  113.873">  2  7  1 -1</clus>
<clus scale="  114.366">  1  5  2 -1</clus>
</clustering>
</event>
<event>
 9    1  0.1484717E-005  0.1492142E+03  0.7546771E-02  0.1206755E+00
          2   -1    0    0  502    0  0.00000000000E+00  0.00000000000E+00  0.10398364917E+03  0.10398364917E+03  0.00000000000E+00 0. -1.
         -2   -1    0    0    0  501 -0.00000000000E+00 -0.00000000000E+00 -0.26356247132E+03  0.26356247132E+03  0.00000000000E+00 0.  1.
         23    2    1    2    0    0  0.73566553102E+02  0.70463331137E+02 -0.12965964121E+03  0.19999088703E+03  0.11317072750E+03 0.  0.
         23    2    1    2    0    0 -0.85031163287E+02 -0.38282504990E+02 -0.18156314050E+02  0.13142480452E+03  0.90812876764E+02 0.  0.
        -13    1    4    4    0    0 -0.31748792041E+02  0.29912601568E+02 -0.64034990369E+01  0.44088029311E+02  0.00000000000E+00 0.  1.
         13    1    4    4    0    0 -0.53282371246E+02 -0.68195106558E+02 -0.11752815013E+02  0.87336775214E+02  0.00000000000E+00 0. -1.
        -13    1    3    3    0    0  0.60606953137E+02 -0.17519941395E+02 -0.48263882950E+02  0.79432698005E+02  0.00000000000E+00 0. -1.
         13    1    3    3    0    0  0.12959599965E+02  0.87983272533E+02 -0.81395758264E+02  0.12055818902E+03  0.00000000000E+00 0.  1.
         21    1    1    2  502  501  0.11464610185E+02 -0.32180826147E+02 -0.11762866888E+02  0.36130428943E+02  0.00000000000E+00 0. -1.
<scales pt_clust_5="13000.00000" pt_clust_6="13000.00000" pt_clust_7="13000.00000" pt_clust_8="13000.00000" pt_clust_9="34.16201"></scales>
<clustering>
<clus scale="   34.162">  1  9  2 -1</clus>
<clus scale="   90.813">  5  6 -1 -1</clus>
<clus scale="  113.171">  7  8 -1 -1</clus>
<clus scale="  133.057">  1  5  2 -1</clus>
<clus scale="   34.162">  1  5  2 -1</clus>
</clustering>
</event>
<event>
 9    1  0.1484717E-005  0.9102128E+02  0.7546771E-02  0.1301132E+00
         -1   -1    0    0    0  501 -0.00000000000E+00  0.00000000000E+00  0.48786184738E+03  0.48786184738E+03  0.00000000000E+00 0.  1.
          1   -1    0    0  502    0  0.00000000000E+00 -0.00000000000E+00 -0.35207951733E+02  0.35207951733E+02  0.00000000000E+00 0. -1.
         23    2    1    2    0    0  0.15850411147E+02 -0.13562817477E+02  0.12804466682E+03  0.15843544823E+03  0.90945967500E+02 0.  0.
         23    2    1    2    0    0  0.20126585826E+02 -0.12068008039E+02  0.10271955194E+03  0.13839042889E+03  0.89721169089E+02 0.  0.
        -11    1    4    4    0    0 -0.34638700857E+02  0.43833167231E+01  0.31225273136E+02  0.46840908883E+02  0.00000000000E+00 0.  1.
         11    1    4    4    0    0  0.54765286683E+02 -0.16451324762E+02  0.71494278804E+02  0.91549520008E+02  0.00000000000E+00 0. -1.
        -11    1    3    3    0    0 -0.17759738695E+02  0.27961522597E+02  0.80001115404E+02  0.86587721592E+02  0.00000000000E+00 0.  1.
         11    1    3    3    0    0  0.33610149843E+02 -0.41524340074E+02  0.48043551417E+02  0.71847726643E+02  0.00000000000E+00 0. -1.
         21    1    1    2  502  501 -0.35976996974E+02  0.25630825516E+02  0.22188967688E+03  0.22624392198E+03  0.00000000000E+00 0.  1.
<scales pt_clust_5="13000.00000" pt_clust_6="13000.00000" pt_clust_7="13000.00000" pt_clust_8="13000.00000" pt_clust_9="44.17334"></scales>
<clustering>
<clus scale="   44.173">  1  9  2 -1</clus>
<clus scale="   89.721">  5  6 -1 -1</clus>
<clus scale="   89.798">  2  5  1 -1</clus>
<clus scale="   90.946">  7  8 -1 -1</clus>
<clus scale="   89.798">  2  5  1 -1</clus>
</clustering>
</event>
<event>
 9    1  0.1484717E-005  0.1256338E+03  0.7546771E-02  0.1239382E+00
          2   -1    0    0  502    0  0.00000000000E+00  0.00000000000E+00  0.87692248359E+03  0.87692248359E+03  0.00000000000E+00 0.  1.
         -2   -1    0    0    0  501 -0.00000000000E+00 -0.00000000000E+00 -0.15527564345E+03  0.15527564345E+03  0.00000000000E+00 0. -1.
         23    2    1    2    0    0 -0.47839421646E+02 -0.13371882038E+02 -0.11351833805E+03  0.15999414757E+03  0.10121411311E+03 0.  0.
         23    2    1    2    0    0 -0.58201149315E+02 -0.43492648181E+02  0.56084248536E+03  0.57265245253E+03  0.90041955652E+02 0.  0.
        -11    1    4    4    0    0 -0.53190430288E+02  0.16116822924E+02  0.29082814609E+03  0.29609117584E+03  0.00000000000E+00 0. -1.
         11    1    4    4    0    0 -0.50107190272E+01 -0.59609471105E+02  0.27001433927E+03  0.27656127669E+03  0.00000000000E+00 0.  1.
        -13    1    3    3    0    0 -0.62028376390E+01 -0.25041948618E+02 -0.11386556330E+03  0.11675162051E+03  0.00000000000E+00 0. -1.
         13    1    3    3    0    0 -0.41636584007E+02  0.11670066580E+02  0.34722525315E+00  0.43242527067E+02  0.00000000000E+00 0.  1.
         21    1    1    2  502  501  0.10604057096E+03  0.56864530219E+02  0.27432269283E+03  0.29955152693E+03  0.00000000000E+00 0.  1.
<scales pt_clust_5="13000.00000" pt_clust_6="13000.00000" pt_clust_7="13000.00000" pt_clust_8="13000.00000" pt_clust_9="87.61446"></scales>
<clustering>
<clus scale="   90.042">  5  6 -1 -1</clus>
<clus scale="  101.214">  7  8 -1 -1</clus>
<clus scale="  112.746">  2  7  1 -1</clus>
<clus scale="   87.614">  2  9  1 -1</clus>
<clus scale="  125.634">  1  5  2 -1</clus>
</clustering>
</event>
<event>
 9    1  0.1484717E-005  0.1028357E+03  0.7546771E-02  0.1275724E+00
         -3   -1    0    0    0  501 -0.00000000000E+00  0.00000000000E+00  0.62358461319E+03  0.62358461319E+03  0.00000000000E+00 0.  1.
          3   -1    0    0  502    0  0.00000000000E+00 -0.00000000000E+00 -0.55361941726E+02  0.55361941726E+02  0.00000000000E+00 0. -1.
         23    2    1    2    0    0 -0.24417304021E+02 -0.62461986304E+02  0.43146185205E+03  0.44551169601E+03  0.88451325800E+02 0.  0.
         23    2    1    2    0    0  0.51745303359E+00  0.45339331382E+02  0.89734123632E+01  0.10230892864E+03  0.91272515151E+02 0.  0.
        -11    1    4    4    0    0 -0.32696512727E+02 -0.31608631195E+01  0.25115122178E+02  0.41349998333E+02  0.00000000000E+00 0.  1.
         11    1    4    4    0    0  0.33213965761E+02  0.48500194501E+02 -0.16141709814E+02  0.60958930305E+02  0.00000000000E+00 0. -1.
        -11    1    3    3    0    0  0.36529637225E+01  0.20765382393E+02  0.12276315878E+03  0.12456058126E+03  0.00000000000E+00 0. -1.
         11    1    3    3    0    0 -0.28070267743E+02 -0.83227368697E+02  0.30869869327E+03  0.32095111474E+03  0.00000000000E+00 0.  1.
         21    1    1    2  502  501  0.23899850987E+02  0.17122654922E+02  0.12778740705E+03  0.13112593027E+03  0.00000000000E+00 0. -1.
<scales pt_clust_5="13000.00000" pt_clust_6="13000.00000" pt_clust_7="13000.00000" pt_clust_8="13000.00000" pt_clust_9="29.40048"></scales>
<clustering>
<clus scale="   29.400">  1  9  2 -1</clus>
<clus scale="   88.451">  7  8 -1 -1</clus>
<clus scale="   91.273">  5  6 -1 -1</clus>
<clus scale="  100.340">  1  7  2 -1</clus>
<clus scale="  102.836">  2  5  1 -1</clus>
</clustering>
</event>
<event>
 9    1  0.1630549E-005  0.1657207E+03  0.7546771E-02  0.1182481E+00
         -2   -1    0    0    0  501 -0.00000000000E+00  0.00000000000E+00  0.17110954114E+03  0.17110954114E+03  0.00000000000E+00 0.  1.
          2   -1    0    0  502    0  0.00000000000E+00 -0.00000000000E+00 -0.48680845362E+03  0.48680845362E+03  0.00000000000E+00 0. -1.
         23    2    1    2    0    0  0.11047383639E+03  0.55083920350E+02  0.85294574999E+02  0.17589931360E+03  0.91797043473E+02 0.  0.
         23    2    1    2    0    0 -0.11404317305E+03 -0.81072633322E+02 -0.41842742569E+03  0.45052113256E+03  0.91154611103E+02 0.  0.
        -11    1    4    4    0    0 -0.42661935275E+02 -0.62434163467E+02 -0.31194218257E+03  0.32097662026E+03  0.00000000000E+00 0. -1.
         11    1    4    4    0    0 -0.71381237779E+02 -0.18638469855E+02 -0.10648524312E+03  0.12954451230E+03  0.00000000000E+00 0.  1.
        -11    1    3    3    0    0  0.10676310652E+03  0.96526924650E+01  0.69031476950E+02  0.12750247133E+03  0.00000000000E+00 0.  1.
         11    1    3    3    0    0  0.37107298779E+01  0.45431227885E+02  0.16263098050E+02  0.48396842268E+02  0.00000000000E+00 0. -1.
         21    1    1    2  502  501  0.35693366596E+01  0.25988712972E+02  0.17433938212E+02  0.31497548598E+02  0.00000000000E+00 0.  1.
<scales pt_clust_5="13000.00000" pt_clust_6="13000.00000" pt_clust_7="13000.00000" pt_clust_8="13000.00000" pt_clust_9="26.23268"></scales>
<clustering>
<clus scale="   26.233">  1  9  2 -1</clus>
<clus scale="   91.155">  5  6 -1 -1</clus>
<clus scale="   91.797">  7  8 -1 -1</clus>
<clus scale="  165.366">  2  5  1 -1</clus>
<clus scale="  165.366">  2  5  1 -1</clus>
</clustering>
</event>
<event>
 9    1  0.1484717E-005  0.1163046E+03  0.7546771E-02  0.1249583E+00
         -1   -1    0    0    0  501 -0.00000000000E+00  0.00000000000E+00  0.15291559229E+03  0.15291559229E+03  0.00000000000E+00 0.  1.
          1   -1    0    0  502    0  0.00000000000E+00 -0.00000000000E+00 -0.31758994815E+03  0.31758994815E+03  0.00000000000E+00 0. -1.
         23    2    1    2    0    0 -0.21219206799E+02  0.62912044839E+02  0.63067956521E+02  0.13003885323E+03  0.92327439505E+02 0.  0.
         23    2    1    2    0    0 -0.11900257565E+02 -0.71185059873E+02 -0.26525532644E+03  0.28974619903E+03  0.91561688302E+02 0.  0.
        -13    1    3    3    0    0 -0.26598802278E+02  0.30666493097E+02  0.82543816700E+02  0.91985932386E+02  0.00000000000E+00 0.  1.
         13    1    3    3    0    0  0.53795954790E+01  0.32245551742E+02 -0.19475860180E+02  0.38052920839E+02  0.00000000000E+00 0. -1.
        -13    1    4    4    0    0  0.24705739754E+02 -0.64540438677E+01 -0.17209311243E+02  0.30792672059E+02  0.00000000000E+00 0.  1.
         13    1    4    4    0    0 -0.36605997319E+02 -0.64731016006E+02 -0.24804601520E+03  0.25895352697E+03  0.00000000000E+00 0. -1.
         21    1    1    2  502  501  0.33119464364E+02  0.82730150342E+01  0.37513014065E+02  0.50720488185E+02  0.00000000000E+00 0. -1.
<scales pt_clust_5="13000.00000" pt_clust_6="13000.00000" pt_clust_7="13000.00000" pt_clust_8="13000.00000" pt_clust_9="34.13710"></scales>
<clustering>
<clus scale="   34.137">  1  9  2 -1</clus>
<clus scale="   91.562">  7  8 -1 -1</clus>
<clus scale="   92.327">  5  6 -1 -1</clus>
<clus scale="  115.698">  2  7  1 -1</clus>
<clus scale="  115.698">  2  5  1 -1</clus>
</clustering>
</event>
<event>
 9    1  0.1484717E-005  0.9972867E+02  0.7546771E-02  0.1282785E+00
          1   -1    0    0  502    0  0.00000000000E+00  0.00000000000E+00  0.38707310408E+03  0.38707310408E+03  0.00000000000E+00 0. -1.
         -1   -1    0    0    0  501 -0.00000000000E+00 -0.00000000000E+00 -0.39695640494E+02  0.39695640494E+02  0.00000000000E+00 0.  1.
         23    2    1    2    0    0 -0.13392958784E+02 -0.81392890396E+01  0.71404112255E+02  0.11979897435E+03  0.94908522468E+02 0.  0.
         23    2    1    2    0    0 -0.53212747109E+01  0.18301210541E+02  0.26425128824E+03  0.28266145998E+03  0.98516533388E+02 0.  0.
        -13    1    4    4    0    0 -0.27845388183E+02  0.52360079219E+02  0.16529941006E+03  0.17561559869E+03  0.00000000000E+00 0.  1.
         13    1    4    4    0    0  0.22524113472E+02 -0.34058868678E+02  0.98951878185E+02  0.10704586129E+03  0.00000000000E+00 0. -1.
        -13    1    3    3    0    0 -0.84991646510E+01 -0.39970280674E+02  0.76943051962E+02  0.87121136254E+02  0.00000000000E+00 0. -1.
         13    1    3    3    0    0 -0.48937941326E+01  0.31830991635E+02 -0.55389397067E+01  0.32677838095E+02  0.00000000000E+00 0.  1.
         21    1    1    2  502  501  0.18714233495E+02 -0.10161921501E+02  0.11722063094E+02  0.24308310247E+02  0.00000000000E+00 0. -1.
<scales pt_clust_5="13000.00000" pt_clust_6="13000.00000" pt_clust_7="13000.00000" pt_clust_8="13000.00000" pt_clust_9="21.29524"></scales>
<clustering>
<clus scale="   21.295">  2  9  1 -1</clus>
<clus scale="   94.909">  7  8 -1 -1</clus>
<clus scale="   96.166">  2  7  1 -1</clus>
<clus scale="   98.517">  5  6 -1 -1</clus>
<clus scale="   99.729">  1  5  2 -1</clus>
</clustering>
</event>
<event>
 9    1  0.1484717E-005  0.1421676E+03  0.7546771E-02  0.1211579E+00
         -2   -1    0    0    0  501 -0.00000000000E+00  0.00000000000E+00  0.10557222440E+03  0.10557222440E+03  0.00000000000E+00 0.  1.
          2   -1    0    0  502    0  0.00000000000E+00 -0.00000000000E+00 -0.65180369107E+03  0.65180369107E+03  0.00000000000E+00 0. -1.
         23    2    1    2    0    0  0.62208087643E+02  0.91546217661E+02 -0.31989006705E+03  0.35145708076E+03  0.94561453489E+02 0.  0.
         23    2    1    2    0    0 -0.87331890498E+02 -0.59265073421E+02 -0.29510937924E+03  0.32590438123E+03  0.89358334607E+02 0.  0.
        -11    1    3    3    0    0 -0.13365367393E+02  0.54957870874E+02 -0.17595161824E+03  0.18481875602E+03  0.00000000000E+00 0.  1.
         11    1    3    3    0    0  0.75573455036E+02  0.36588346787E+02 -0.14393844880E+03  0.16663832474E+03  0.00000000000E+00 0. -1.
        -13    1    4    4    0    0 -0.31690298949E+02  0.22870395917E+02 -0.82858638254E+02  0.91612684657E+02  0.00000000000E+00 0. -1.
         13    1    4    4    0    0 -0.55641591549E+02 -0.82135469338E+02 -0.21225074099E+03  0.23429169658E+03  0.00000000000E+00 0.  1.
         21    1    1    2  502  501  0.25123802854E+02 -0.32281144240E+02  0.68767979617E+02  0.80014453469E+02  0.00000000000E+00 0. -1.
<scales pt_clust_5="13000.00000" pt_clust_6="13000.00000" pt_clust_7="13000.00000" pt_clust_8="13000.00000" pt_clust_9="40.90572"></scales>
<clustering>
<clus scale="   40.906">  1  9  2 -1</clus>
<clus scale="   89.358">  7  8 -1 -1</clus>
<clus scale="   94.561">  5  6 -1 -1</clus>
<clus scale="  138.761">  2  7  1 -1</clus>
<clus scale="  138.761">  2  5  1 -1</clus>
</clustering>
</event>
<event>
 9    1  0.1484717E-005  0.1188651E+03  0.7546771E-02  0.1248314E+00
         -4   -1    0    0    0  501 -0.00000000000E+00  0.00000000000E+00  0.59890255908E+02  0.59890255908E+02  0.00000000000E+00 0.  1.
          4   -1    0    0  502    0  0.00000000000E+00 -0.00000000000E+00 -0.51583723190E+03  0.51583723190E+03  0.00000000000E+00 0. -1.
         23    2    1    2    0    0  0.31113570919E+02 -0.62208598677E+02 -0.79480506103E+02  0.13905483124E+03  0.90449605831E+02 0.  0.
         23    2    1    2    0    0 -0.10772401789E+03  0.41605632356E+02 -0.26358720944E+03  0.29870392734E+03  0.80064514948E+02 0.  0.
        -11    1    4    4    0    0 -0.51463354006E+02  0.30225723539E+02 -0.51004458480E+02  0.78508126674E+02  0.00000000000E+00 0. -1.
         11    1    4    4    0    0 -0.56260663883E+02  0.11379908817E+02 -0.21258275096E+03  0.22019580066E+03  0.00000000000E+00 0.  1.
        -11    1    3    3    0    0  0.59228332840E+02 -0.24328490586E+02 -0.30063987985E+02  0.70736936877E+02  0.00000000000E+00 0.  1.
         11    1    3    3    0    0 -0.28114761920E+02 -0.37880108091E+02 -0.49416518117E+02  0.68317894359E+02  0.00000000000E+00 0. -1.
         21    1    1    2  502  501  0.76610446969E+02  0.20602966321E+02 -0.11287926045E+03  0.13796872923E+03  0.00000000000E+00 0. -1.
<scales pt_clust_5="13000.00000" pt_clust_6="13000.00000" pt_clust_7="13000.00000" pt_clust_8="13000.00000" pt_clust_9="79.33248"></scales>
<clustering>
<clus scale="   79.332">  2  9  1 -1</clus>
<clus scale="   80.065">  5  6 -1 -1</clus>
<clus scale="   90.450">  7  8 -1 -1</clus>
<clus scale="  111.167">  2  5  1 -1</clus>
<clus scale="   79.332">  2  5  1 -1</clus>
</clustering>
</event>
<event>
 9    1  0.1484717E-005  0.1200976E+03  0.7546771E-02  0.1243652E+00
          1   -1    0    0  502    0  0.00000000000E+00  0.00000000000E+00  0.10603928434E+03  0.10603928434E+03  0.00000000000E+00 0. -1.
         -1   -1    0    0    0  501 -0.00000000000E+00 -0.00000000000E+00 -0.31422269795E+03  0.31422269795E+03  0.00000000000E+00 0.  1.
         23    2    1    2    0    0 -0.35396610305E+02  0.94763610135E+02 -0.20271725536E+03  0.24588343672E+03  0.95557924871E+02 0.  0.
         23    2    1    2    0    0  0.28847292760E+02 -0.60946478615E+02  0.35807548838E+02  0.12061972452E+03  0.93382534948E+02 0.  0.
        -11    1    4    4    0    0  0.46406250847E+02 -0.19110384723E+02  0.52167114582E+02  0.72388913279E+02  0.00000000000E+00 0.  1.
         11    1    4    4    0    0 -0.17558958086E+02 -0.41836093891E+02 -0.16359565744E+02  0.48230811236E+02  0.00000000000E+00 0. -1.
        -11    1    3    3    0    0 -0.29670020202E+02  0.70826155614E+00 -0.99227948299E+01  0.31293347384E+02  0.00000000000E+00 0. -1.
         11    1    3    3    0    0 -0.57265901024E+01  0.94055348579E+02 -0.19279446053E+03  0.21459008933E+03  0.00000000000E+00 0.  1.
         21    1    1    2  502  501  0.65493175445E+01 -0.33817131521E+02 -0.41273707093E+02  0.53758821060E+02  0.00000000000E+00 0. -1.
<scales pt_clust_5="13000.00000" pt_clust_6="13000.00000" pt_clust_7="13000.00000" pt_clust_8="13000.00000" pt_clust_9="34.44549"></scales>
<clustering>
<clus scale="   34.445">  2  9  1 -1</clus>
<clus scale="   93.383">  5  6 -1 -1</clus>
<clus scale="   95.558">  7  8 -1 -1</clus>
<clus scale="  118.374">  1  5  2 -1</clus>
<clus scale="  118.374">  1  5  2 -1</clus>
</clustering>
</event>
<event>
 9    1  0.1484717E-005  0.9358676E+02  0.7546771E-02  0.1294775E+00
          1   -1    0    0  502    0  0.00000000000E+00  0.00000000000E+00  0.22099364861E+03  0.22099364861E+03  0.00000000000E+00 0. -1.
         -1   -1    0    0    0  501 -0.00000000000E+00 -0.00000000000E+00 -0.89755757178E+02  0.89755757178E+02  0.00000000000E+00 0.  1.
         23    2    1    2    0    0 -0.25505188685E+02 -0.13995417939E+01 -0.19506100428E+02  0.98170516089E+02  0.92760384368E+02 0.  0.
         23    2    1    2    0    0  0.71203933271E+00 -0.27075632570E+01  0.16040828970E+03  0.18565367440E+03  0.93427134790E+02 0.  0.
        -11    1    3    3    0    0  0.39837880609E+01 -0.23909112055E+02 -0.46399984278E+02  0.52349543910E+02  0.00000000000E+00 0.  1.
         11    1    3    3    0    0 -0.29488976746E+02  0.22509570261E+02  0.26893883850E+02  0.45820972179E+02  0.00000000000E+00 0. -1.
        -13    1    4    4    0    0 -0.11175148565E+02 -0.41962820546E+02  0.42283504494E+02  0.60610700424E+02  0.00000000000E+00 0.  1.
         13    1    4    4    0    0  0.11887187898E+02  0.39255257289E+02  0.11812478520E+03  0.12504297397E+03  0.00000000000E+00 0. -1.
         21    1    1    2  502  501  0.24793149353E+02  0.41071050509E+01 -0.96642978321E+01  0.26925215307E+02  0.00000000000E+00 0. -1.
<scales pt_clust_5="13000.00000" pt_clust_6="13000.00000" pt_clust_7="13000.00000" pt_clust_8="13000.00000" pt_clust_9="25.13103"></scales>
<clustering>
<clus scale="   25.131">  2  9  1 -1</clus>
<clus scale="   92.760">  5  6 -1 -1</clus>
<clus scale="   92.921">  2  5  1 -1</clus>
<clus scale="   93.427">  7  8 -1 -1</clus>
<clus scale="   93.587">  1  5  2 -1</clus>
</clustering>
</event>
<event>
 9    1  0.1484717E-005  0.9273216E+02  0.7546771E-02  0.1297492E+00
         -1   -1    0    0    0  501 -0.00000000000E+00  0.00000000000E+00  0.38681721190E+03  0.38681721190E+03  0.00000000000E+00 0.  1.
          1   -1    0    0  502    0  0.00000000000E+00 -0.00000000000E+00 -0.43812788925E+02  0.43812788925E+02  0.00000000000E+00 0. -1.
         23    2    1    2    0    0  0.61990015592E+01 -0.17757615934E+01  0.18416112936E+03  0.20566855248E+03  0.91338113431E+02 0.  0.
         23    2    1    2    0    0  0.14473227147E+02 -0.18381716090E+02  0.36660345151E+02  0.99413298844E+02  0.89396092140E+02 0.  0.
        -11    1    3    3    0    0  0.39618687520E+02 -0.26648702141E+02  0.75910449556E+02  0.89678258672E+02  0.00000000000E+00 0.  1.
         11    1    3    3    0    0 -0.33419685961E+02  0.24872940547E+02  0.10825067980E+03  0.11599029381E+03  0.00000000000E+00 0. -1.
        -13    1    4    4    0    0 -0.15594199367E+02 -0.34873265452E+02  0.49734519624E+02  0.62712408177E+02  0.00000000000E+00 0.  1.
         13    1    4    4    0    0  0.30067426514E+02  0.16491549362E+02 -0.13074174472E+02  0.36700890666E+02  0.00000000000E+00 0. -1.
         21    1    1    2  502  501 -0.20672228706E+02  0.20157477684E+02  0.12218294847E+03  0.12554814950E+03  0.00000000000E+00 0.  1.
<scales pt_clust_5="13000.00000" pt_clust_6="13000.00000" pt_clust_7="13000.00000" pt_clust_8="13000.00000" pt_clust_9="28.87326"></scales>
<clustering>
<clus scale="   28.873">  1  9  2 -1</clus>
<clus scale="   89.396">  7  8 -1 -1</clus>
<clus scale="   90.820">  2  7  1 -1</clus>
<clus scale="   91.338">  5  6 -1 -1</clus>
<clus scale="   90.820">  2  5  1 -1</clus>
</clustering>
</event>
<event>
 9    1  0.1484717E-005  0.1262559E+03  0.7546771E-02  0.1233564E+00
         -1   -1    0    0    0  501 -0.00000000000E+00  0.00000000000E+00  0.23285593933E+03  0.23285593933E+03  0.00000000000E+00 0.  1.
          1   -1    0    0  502    0  0.00000000000E+00 -0.00000000000E+00 -0.16045749610E+03  0.16045749610E+03  0.00000000000E+00 0. -1.
         23    2    1    2    0    0 -0.87727316412E+02  0.61232670022E+02  0.12871243352E+03  0.18995770519E+03  0.89841623412E+02 0.  0.
         23    2    1    2    0    0  0.63311357910E+02 -0.54216505906E+02 -0.95748871339E+02  0.15644650479E+03  0.91432515803E+02 0.  0.
        -13    1    4    4    0    0 -0.10514182406E+02 -0.47627851803E+02 -0.46990213539E+02  0.67727693505E+02  0.00000000000E+00 0.  1.
         13    1    4    4    0    0  0.73825540316E+02 -0.65886541027E+01 -0.48758657800E+02  0.88718811287E+02  0.00000000000E+00 0. -1.
        -13    1    3    3    0    0 -0.15732992103E+02  0.47396085028E+02  0.98944161678E+02  0.11083259018E+03  0.00000000000E+00 0.  1.
         13    1    3    3    0    0 -0.71994324309E+02  0.13836584994E+02  0.29768271840E+02  0.79125115010E+02  0.00000000000E+00 0. -1.
         21    1    1    2  502  501  0.24415958502E+02 -0.70161641167E+01  0.39434881051E+02  0.46909225447E+02  0.00000000000E+00 0. -1.
<scales pt_clust_5="13000.00000" pt_clust_6="13000.00000" pt_clust_7="13000.00000" pt_clust_8="13000.00000" pt_clust_9="25.40405"></scales>
<clustering>
<clus scale="   25.404">  1  9  2 -1</clus>
<clus scale="   89.842">  7  8 -1 -1</clus>
<clus scale="   91.433">  5  6 -1 -1</clus>
<clus scale="  125.109">  1  7  2 -1</clus>
<clus scale="  126.256">  2  5  1 -1</clus>
</clustering>
</event>
<event>
 9    1  0.1484717E-005  0.1182112E+03  0.7546771E-02  0.1246116E+00
         -1   -1    0    0    0  501 -0.00000000000E+00  0.00000000000E+00  0.23379680912E+02  0.23379680912E+02  0.00000000000E+00 0.  1.
          1   -1    0    0  502    0  0.00000000000E+00 -0.00000000000E+00 -0.82722109322E+03  0.82722109322E+03  0.00000000000E+00 0. -1.
         23    2    1    2    0    0 -0.32988762574E+02 -0.61867111854E+02 -0.25348114609E+03  0.27826296982E+03  0.90894394562E+02 0.  0.
         23    2    1    2    0    0  0.57488155696E+02  0.55297245523E+02 -0.51366546683E+03  0.52772960206E+03  0.91014546422E+02 0.  0.
        -13    1    3    3    0    0 -0.64826083054E+02 -0.40127738125E+02 -0.16769420072E+03  0.18421183829E+03  0.00000000000E+00 0.  1.
         13    1    3    3    0    0  0.31837320480E+02 -0.21739373729E+02 -0.85786945368E+02  0.94051131525E+02  0.00000000000E+00 0. -1.
        -13    1    4    4    0    0 -0.15752502610E+02  0.42518387002E+02 -0.15805074216E+03  0.16442624994E+03  0.00000000000E+00 0.  1.
         13    1    4    4    0    0  0.73240658306E+02  0.12778858522E+02 -0.35561472467E+03  0.36330335212E+03  0.00000000000E+00 0. -1.
         21    1    1    2  502  501 -0.24499393121E+02  0.65698663312E+01 -0.36694799379E+02  0.44608202255E+02  0.00000000000E+00 0.  1.
<scales pt_clust_5="13000.00000" pt_clust_6="13000.00000" pt_clust_7="13000.00000" pt_clust_8="13000.00000" pt_clust_9="25.36500"></scales>
<clustering>
<clus scale="   25.365">  1  9  2 -1</clus>
<clus scale="   90.894">  5  6 -1 -1</clus>
<clus scale="   91.015">  7  8 -1 -1</clus>
<clus scale="  118.119">  1  5  2 -1</clus>
<clus scale="  118.211">  2  5  1 -1</clus>
</clustering>
</event>
<event>
 9    1  0.1484717E-005  0.1338719E+03  0.7546771E-02  0.1238329E+00
          2   -1    0    0  502    0  0.00000000000E+00  0.00000000000E+00  0.50370706830E+03  0.50370706830E+03  0.00000000000E+00 0. -1.
         -2   -1    0    0    0  501 -0.00000000000E+00 -0.00000000000E+00 -0.70281941529E+02  0.70281941529E+02  0.00000000000E+00 0.  1.
         23    2    1    2    0    0  0.10699389198E+02 -0.81402618084E+02  0.24722043997E+03  0.27597832721E+03  0.91133023589E+02 0.  0.
         23    2    1    2    0    0  0.17826399709E+02 -0.16413385041E+02  0.16999363849E+03  0.19483854885E+03  0.92070859970E+02 0.  0.
        -11    1    4    4    0    0 -0.37330147659E+02 -0.40500011476E+01  0.53580755666E+02  0.65428127066E+02  0.00000000000E+00 0.  1.
         11    1    4    4    0    0  0.55156547368E+02 -0.12363383894E+02  0.11641288283E+03  0.12941042179E+03  0.00000000000E+00 0. -1.
        -13    1    3    3    0    0  0.44025916275E+02 -0.21648282689E+02  0.14411428858E+03  0.15223619024E+03  0.00000000000E+00 0.  1.
         13    1    3    3    0    0 -0.33326527077E+02 -0.59754335395E+02  0.10310615139E+03  0.12374213697E+03  0.00000000000E+00 0. -1.
         21    1    1    2  502  501 -0.28525788907E+02  0.97816003126E+02  0.16211048313E+02  0.10317213378E+03  0.00000000000E+00 0.  1.
<scales pt_clust_5="13000.00000" pt_clust_6="13000.00000" pt_clust_7="13000.00000" pt_clust_8="13000.00000" pt_clust_9="98.06350"></scales>
<clustering>
<clus scale="   91.133">  7  8 -1 -1</clus>
<clus scale="   92.071">  5  6 -1 -1</clus>
<clus scale="   95.206">  1  5  2 -1</clus>
<clus scale="   98.064">  2  9  1 -1</clus>
<clus scale="   95.206">  1  5  2 -1</clus>
</clustering>
</event>
<event>
 9    1  0.1484717E-005  0.1013428E+03  0.7546771E-02  0.1278074E+00
          2   -1    0    0  502    0  0.00000000000E+00  0.00000000000E+00  0.15673879788E+03  0.15673879788E+03  0.00000000000E+00 0. -1.
         -2   -1    0    0    0  501 -0.00000000000E+00 -0.00000000000E+00 -0.14017939582E+03  0.14017939582E+03  0.00000000000E+00 0.  1.
         23    2    1    2    0    0 -0.27433854952E+02  0.25538106461E+02 -0.75391326616E+02  0.12510366574E+03  0.92532501175E+02 0.  0.
         23    2    1    2    0    0  0.42924913950E+02 -0.58972291343E+01  0.10314289354E+03  0.14441012092E+03  0.91315392939E+02 0.  0.
        -13    1    4    4    0    0 -0.17791737499E+02  0.25731318413E+02  0.21998018968E+02  0.38243424389E+02  0.00000000000E+00 0.  1.
         13    1    4    4    0    0  0.60716651449E+02 -0.31628547547E+02  0.81144874569E+02  0.10616669653E+03  0.00000000000E+00 0. -1.
        -13    1    3    3    0    0 -0.33908438892E+02  0.49134134180E+02 -0.17432910842E+02  0.62192055362E+02  0.00000000000E+00 0.  1.
         13    1    3    3    0    0  0.64745839403E+01 -0.23596027720E+02 -0.57958415774E+02  0.62911610378E+02  0.00000000000E+00 0. -1.
         21    1    1    2  502  501 -0.15491058998E+02 -0.19640877326E+02 -0.11192164860E+02  0.27404407041E+02  0.00000000000E+00 0. -1.
<scales pt_clust_5="13000.00000" pt_clust_6="13000.00000" pt_clust_7="13000.00000" pt_clust_8="13000.00000" pt_clust_9="25.01474"></scales>
<clustering>
<clus scale="   25.015">  2  9  1 -1</clus>
<clus scale="   91.315">  5  6 -1 -1</clus>
<clus scale="   92.533">  7  8 -1 -1</clus>
<clus scale="  100.233">  1  5  2 -1</clus>
<clus scale="  100.233">  1  5  2 -1</clus>
</clustering>
</event>
<event>
 9    1  0.1484717E-005  0.1190118E+03  0.7546771E-02  0.1250708E+00
          1   -1    0    0  502    0  0.00000000000E+00  0.00000000000E+00  0.26207912478E+03  0.26207912478E+03  0.00000000000E+00 0. -1.
         -1   -1    0    0    0  501 -0.00000000000E+00 -0.00000000000E+00 -0.82859533174E+02  0.82859533174E+02  0.00000000000E+00 0.  1.
         23    2    1    2    0    0  0.36491529861E+02 -0.31416589523E+00  0.35296947686E+01  0.99018360028E+02  0.91980685069E+02 0.  0.
         23    2    1    2    0    0 -0.57301155297E+02 -0.75150044116E+01  0.18529506099E+03  0.22170056223E+03  0.10713067711E+03 0.  0.
        -11    1    4    4    0    0 -0.82826687636E+01 -0.48636405109E+02  0.42086745249E+02  0.64849029518E+02  0.00000000000E+00 0. -1.
         11    1    4    4    0    0 -0.49018486533E+02  0.41121400697E+02  0.14320831574E+03  0.15685153272E+03  0.00000000000E+00 0.  1.
        -13    1    3    3    0    0  0.58415539838E+02 -0.10255021016E+02 -0.22619595058E+02  0.63475875978E+02  0.00000000000E+00 0.  1.
         13    1    3    3    0    0 -0.21924009977E+02  0.99408551203E+01  0.26149289827E+02  0.35542484050E+02  0.00000000000E+00 0. -1.
         21    1    1    2  502  501  0.20809625436E+02  0.78291703068E+01 -0.96051641560E+01  0.24219735691E+02  0.00000000000E+00 0. -1.
<scales pt_clust_5="13000.00000" pt_clust_6="13000.00000" pt_clust_7="13000.00000" pt_clust_8="13000.00000" pt_clust_9="22.23368"></scales>
<clustering>
<clus scale="   22.234">  2  9  1 -1</clus>
<clus scale="   91.981">  7  8 -1 -1</clus>
<clus scale="  105.581">  2  7  1 -1</clus>
<clus scale="  107.131">  5  6 -1 -1</clus>
<clus scale="  119.012">  1  5  2 -1</clus>
</clustering>
</event>
<event>
 9    1  0.1484717E-005  0.1360782E+03  0.7546771E-02  0.1218794E+00
          2   -1    0    0  502    0  0.00000000000E+00  0.00000000000E+00  0.71822924435E+03  0.71822924435E+03  0.00000000000E+00 0. -1.
         -2   -1    0    0    0  501 -0.00000000000E+00 -0.00000000000E+00 -0.54135237493E+02  0.54135237493E+02  0.00000000000E+00 0.  1.
         23    2    1    2    0    0 -0.30638955662E+02 -0.89957777858E+02  0.88812706434E+02  0.15902288566E+03  0.91484610395E+02 0.  0.
         23    2    1    2    0    0 -0.57014750609E+01  0.12892696677E+03  0.45924409818E+03  0.48565503896E+03  0.91109854454E+02 0.  0.
        -11    1    3    3    0    0  0.28396466950E+02 -0.47301817787E+02  0.57671667708E+02  0.79811293420E+02  0.00000000000E+00 0.  1.
         11    1    3    3    0    0 -0.59035422612E+02 -0.42655960071E+02  0.31141038726E+02  0.79211592242E+02  0.00000000000E+00 0. -1.
        -11    1    4    4    0    0 -0.40863570955E+02  0.29040080163E+02  0.11400419375E+03  0.12453960767E+03  0.00000000000E+00 0.  1.
         11    1    4    4    0    0  0.35162095895E+02  0.99886886607E+02  0.34523990443E+03  0.36111543129E+03  0.00000000000E+00 0. -1.
         21    1    1    2  502  501  0.36340430723E+02 -0.38969188912E+02  0.11603720225E+03  0.12768655722E+03  0.00000000000E+00 0. -1.
<scales pt_clust_5="13000.00000" pt_clust_6="13000.00000" pt_clust_7="13000.00000" pt_clust_8="13000.00000" pt_clust_9="53.28437"></scales>
<clustering>
<clus scale="   53.284">  1  9  2 -1</clus>
<clus scale="   91.110">  7  8 -1 -1</clus>
<clus scale="   91.485">  5  6 -1 -1</clus>
<clus scale="  135.827">  1  7  2 -1</clus>
<clus scale="   53.284">  1  5  2 -1</clus>
</clustering>
</event>
<event>
 9    1  0.1484717E-005  0.9581464E+02  0.7546771E-02  0.1290181E+00
          3   -1    0    0  502    0  0.00000000000E+00  0.00000000000E+00  0.12434829901E+03  0.12434829901E+03  0.00000000000E+00 0. -1.
         -3   -1    0    0    0  501 -0.00000000000E+00 -0.00000000000E+00 -0.28465614553E+03  0.28465614553E+03  0.00000000000E+00 0.  1.
         23    2    1    2    0    0 -0.43110273251E+02  0.20709686488E+02 -0.41627532904E+02  0.11209981599E+03  0.92445283687E+02 0.  0.
         23    2    1    2    0    0  0.14860946682E+02 -0.10314098859E+02  0.63432165341E+02  0.11232118485E+03  0.90913038639E+02 0.  0.
        -11    1    4    4    0    0  0.52255855101E+02 -0.80472281243E+01  0.49270220680E+02  0.72270235358E+02  0.00000000000E+00 0.  1.
         11    1    4    4    0    0 -0.37394908419E+02 -0.22668707348E+01  0.14161944662E+02  0.40050949492E+02  0.00000000000E+00 0. -1.
        -13    1    3    3    0    0 -0.54084003823E+02 -0.22042968243E+02 -0.33145931653E+02  0.67153739313E+02  0.00000000000E+00 0. -1.
         13    1    3    3    0    0  0.10973730572E+02  0.42752654731E+02 -0.84816012511E+01  0.44946076681E+02  0.00000000000E+00 0.  1.
         21    1    1    2  502  501  0.28249326569E+02 -0.10395587629E+02 -0.18211247896E+03  0.18458344369E+03  0.00000000000E+00 0.  1.
<scales pt_clust_5="13000.00000" pt_clust_6="13000.00000" pt_clust_7="13000.00000" pt_clust_8="13000.00000" pt_clust_9="30.10137"></scales>
<clustering>
<clus scale="   30.101">  2  9  1 -1</clus>
<clus scale="   90.913">  5  6 -1 -1</clus>
<clus scale="   92.445">  7  8 -1 -1</clus>
<clus scale="   94.337">  1  5  2 -1</clus>
<clus scale="   94.337">  1  5  2 -1</clus>
</clustering>
</event>
<event>
 9    1  0.1484717E-005  0.9374034E+02  0.7546771E-02  0.1294800E+00
         -1   -1    0    0    0  501 -0.00000000000E+00  0.00000000000E+00  0.16525288681E+03  0.16525288681E+03  0.00000000000E+00 0.  1.
          1   -1    0    0  502    0  0.00000000000E+00 -0.00000000000E+00 -0.10166227444E+03  0.10166227444E+03  0.00000000000E+00 0. -1.
         23    2    1    2    0    0 -0.16956607968E+02 -0.14347302744E+02  0.72713615549E+02  0.11957343794E+03  0.92288490747E+02 0.  0.
         23    2    1    2    0    0  0.16049032951E+02 -0.73766876362E+01 -0.46832954988E+02  0.10381246974E+03  0.90948975922E+02 0.  0.
        -11    1    3    3    0    0  0.20819218178E+02 -0.40001178143E+02  0.18631660670E+02  0.48792139508E+02  0.00000000000E+00 0. -1.
         11    1    3    3    0    0 -0.37775826146E+02  0.25653875399E+02  0.54081954879E+02  0.70781298431E+02  0.00000000000E+00 0.  1.
        -13    1    4    4    0    0  0.32219319597E+02  0.32491557910E+02 -0.38913299470E+02  0.60066885772E+02  0.00000000000E+00 0.  1.
         13    1    4    4    0    0 -0.16170286645E+02 -0.39868245546E+02 -0.79196555186E+01  0.43745583967E+02  0.00000000000E+00 0. -1.
         21    1    1    2  502  501  0.90757501648E+00  0.21723990381E+02  0.37709951812E+02  0.43529253568E+02  0.00000000000E+00 0.  1.
<scales pt_clust_5="13000.00000" pt_clust_6="13000.00000" pt_clust_7="13000.00000" pt_clust_8="13000.00000" pt_clust_9="21.74294"></scales>
<clustering>
<clus scale="   21.743">  1  9  2 -1</clus>
<clus scale="   90.949">  7  8 -1 -1</clus>
<clus scale="   92.288">  5  6 -1 -1</clus>
<clus scale="   92.422">  2  7  1 -1</clus>
<clus scale="   92.422">  2  5  1 -1</clus>
</clustering>
</event>
<event>
 9    1  0.1484717E-005  0.9588715E+02  0.7546771E-02  0.1290731E+00
         -1   -1    0    0    0  501 -0.00000000000E+00  0.00000000000E+00  0.30793363409E+03  0.30793363409E+03  0.00000000000E+00 0.  1.
          1   -1    0    0  502    0  0.00000000000E+00 -0.00000000000E+00 -0.38739442932E+02  0.38739442932E+02  0.00000000000E+00 0. -1.
         23    2    1    2    0    0  0.17510919390E+02 -0.17275429364E+02  0.15880119234E+03  0.18544171894E+03  0.92551281339E+02 0.  0.
         23    2    1    2    0    0  0.14708216272E+01  0.28676277649E+02  0.79774105652E+02  0.12344508475E+03  0.89723401631E+02 0.  0.
        -11    1    3    3    0    0 -0.60065275231E+01  0.34208392045E+02  0.89251076281E+02  0.95770804928E+02  0.00000000000E+00 0. -1.
         11    1    3    3    0    0  0.23517446913E+02 -0.51483821408E+02  0.69550116059E+02  0.89670914013E+02  0.00000000000E+00 0.  1.
        -13    1    4    4    0    0  0.33384499068E+02  0.29806131953E+02  0.87906214625E+01  0.45609267761E+02  0.00000000000E+00 0.  1.
         13    1    4    4    0    0 -0.31913677441E+02 -0.11298543041E+01  0.70983484189E+02  0.77835816988E+02  0.00000000000E+00 0. -1.
         21    1    1    2  502  501 -0.18981741017E+02 -0.11400848285E+02  0.30618893167E+02  0.37786273334E+02  0.00000000000E+00 0.  1.
<scales pt_clust_5="13000.00000" pt_clust_6="13000.00000" pt_clust_7="13000.00000" pt_clust_8="13000.00000" pt_clust_9="22.14240"></scales>
<clustering>
<clus scale="   22.142">  1  9  2 -1</clus>
<clus scale="   89.723">  7  8 -1 -1</clus>
<clus scale="   92.551">  5  6 -1 -1</clus>
<clus scale="   93.161">  2  7  1 -1</clus>
<clus scale="   93.161">  2  5  1 -1</clus>
</clustering>
</event>
<event>
 9    1  0.1484717E-005  0.9513654E+02  0.7546771E-02  0.1292422E+00
          1   -1    0    0  502    0  0.00000000000E+00  0.00000000000E+00  0.28651970729E+02  0.28651970729E+02  0.00000000000E+00 0. -1.
         -1   -1    0    0    0  501 -0.00000000000E+00 -0.00000000000E+00 -0.41427489859E+03  0.41427489859E+03  0.00000000000E+00 0.  1.
         23    2    1    2    0    0 -0.88912764491E+01  0.30465882851E+02 -0.22236343114E+03  0.24267954658E+03  0.91872966681E+02 0.  0.
         23    2    1    2    0    0 -0.90661397290E+01 -0.21319534564E+02 -0.11065716353E+03  0.14391678093E+03  0.89052313557E+02 0.  0.
        -13    1    3    3    0    0 -0.29952246912E+02  0.56327201925E+02 -0.14976150955E+03  0.16278329311E+03  0.00000000000E+00 0.  1.
         13    1    3    3    0    0  0.21060970463E+02 -0.25861319074E+02 -0.72601921592E+02  0.79896253478E+02  0.00000000000E+00 0. -1.
        -13    1    4    4    0    0  0.31659921250E+02 -0.34036704530E+02 -0.39749213442E+02  0.61162470830E+02  0.00000000000E+00 0. -1.
         13    1    4    4    0    0 -0.40726060979E+02  0.12717169965E+02 -0.70907950089E+02  0.82754310103E+02  0.00000000000E+00 0.  1.
         21    1    1    2  502  501  0.17957416178E+02 -0.91463482864E+01 -0.52602333191E+02  0.56330541804E+02  0.00000000000E+00 0. -1.
<scales pt_clust_5="13000.00000" pt_clust_6="13000.00000" pt_clust_7="13000.00000" pt_clust_8="13000.00000" pt_clust_9="20.15253"></scales>
<clustering>
<clus scale="   20.153">  2  9  1 -1</clus>
<clus scale="   89.052">  7  8 -1 -1</clus>
<clus scale="   91.873">  5  6 -1 -1</clus>
<clus scale="   92.416">  1  7  2 -1</clus>
<clus scale="   92.416">  1  5  2 -1</clus>
</clustering>
</event>
<event>
 9    1  0.1484717E-005  0.9500577E+02  0.7546771E-02  0.1292192E+00
         -3   -1    0    0    0  501 -0.00000000000E+00  0.00000000000E+00  0.21713034759E+02  0.21713034759E+02  0.00000000000E+00 0.  1.
          3   -1    0    0  502    0  0.00000000000E+00 -0.00000000000E+00 -0.61703866959E+03  0.61703866959E+03  0.00000000000E+00 0. -1.
         23    2    1    2    0    0 -0.59087693957E+00 -0.41210637744E+02 -0.29235981078E+03  0.30871460919E+03  0.90176411393E+02 0.  0.
         23    2    1    2    0    0 -0.37556602651E+01  0.20322109683E+02 -0.29258840439E+03  0.30631129002E+03  0.88269694044E+02 0.  0.
        -11    1    4    4    0    0  0.12762315523E+02 -0.31512473607E+02 -0.81109686423E+02  0.87947108662E+02  0.00000000000E+00 0. -1.
         11    1    4    4    0    0 -0.16517975788E+02  0.51834583290E+02 -0.21147871797E+03  0.21836418136E+03  0.00000000000E+00 0.  1.
        -13    1    3    3    0    0 -0.10180764435E+02  0.21058389821E+02 -0.25860782652E+02  0.34869525746E+02  0.00000000000E+00 0.  1.
         13    1    3    3    0    0  0.95898874958E+01 -0.62269027565E+02 -0.26649902812E+03  0.27384508345E+03  0.00000000000E+00 0. -1.
         21    1    1    2  502  501  0.43465372046E+01  0.20888528062E+02 -0.10377419659E+02  0.23725805129E+02  0.00000000000E+00 0. -1.
<scales pt_clust_5="13000.00000" pt_clust_6="13000.00000" pt_clust_7="13000.00000" pt_clust_8="13000.00000" pt_clust_9="21.33596"></scales>
<clustering>
<clus scale="   21.336">  1  9  2 -1</clus>
<clus scale="   88.270">  5  6 -1 -1</clus>
<clus scale="   90.176">  7  8 -1 -1</clus>
<clus scale="   93.198">  2  5  1 -1</clus>
<clus scale="   93.198">  2  5  1 -1</clus>
</clustering>
</event>
<event>
 9    1  0.1484717E-005  0.1072662E+03  0.7546771E-02  0.1265740E+00
          1   -1    0    0  502    0  0.00000000000E+00  0.00000000000E+00  0.12268883086E+03  0.12268883086E+03  0.00000000000E+00 0. -1.
         -1   -1    0    0    0  501 -0.00000000000E+00 -0.00000000000E+00 -0.18028153977E+03  0.18028153977E+03  0.00000000000E+00 0.  1.
         23    2    1    2    0    0  0.57079705081E+02 -0.24947815182E+02 -0.78359256009E+02  0.13554257842E+03  0.91384524664E+02 0.  0.
         23    2    1    2    0    0 -0.25139722707E+02  0.52016827049E+02  0.47096430124E+02  0.11796915679E+03  0.91437914835E+02 0.  0.
        -11    1    4    4    0    0 -0.53669240446E+02  0.13304095789E+02  0.42344957923E+02  0.69645400396E+02  0.00000000000E+00 0.  1.
         11    1    4    4    0    0  0.28529517739E+02  0.38712731261E+02  0.47514722015E+01  0.48323756395E+02  0.00000000000E+00 0. -1.
        -11    1    3    3    0    0  0.21566524230E+02 -0.57234740854E+02 -0.54596677630E+02  0.81986143562E+02  0.00000000000E+00 0.  1.
         11    1    3    3    0    0  0.35513180851E+02  0.32286925671E+02 -0.23762578379E+02  0.53556434858E+02  0.00000000000E+00 0. -1.
         21    1    1    2  502  501 -0.31939982374E+02 -0.27069011867E+02 -0.26329883028E+02  0.49458635422E+02  0.00000000000E+00 0.  1.
<scales pt_clust_5="13000.00000" pt_clust_6="13000.00000" pt_clust_7="13000.00000" pt_clust_8="13000.00000" pt_clust_9="41.86758"></scales>
<clustering>
<clus scale="   41.868">  2  9  1 -1</clus>
<clus scale="   91.385">  7  8 -1 -1</clus>
<clus scale="   91.438">  5  6 -1 -1</clus>
<clus scale="  107.221">  2  7  1 -1</clus>
<clus scale="  107.266">  1  5  2 -1</clus>
</clustering>
</event>
<event>
 9    1  0.1484717E-005  0.9317702E+02  0.7546771E-02  0.1296609E+00
         -1   -1    0    0    0  501 -0.00000000000E+00  0.00000000000E+00  0.26369029206E+03  0.26369029206E+03  0.00000000000E+00 0.  1.
          1   -1    0    0  502    0  0.00000000000E+00 -0.00000000000E+00 -0.61237115577E+02  0.61237115577E+02  0.00000000000E+00 0. -1.
         23    2    1    2    0    0 -0.94481434730E+01  0.19670382636E+02  0.56461211270E+02  0.11068670496E+03  0.92668694332E+02 0.  0.
         23    2    1    2    0    0  0.64177180426E+01  0.44202172388E+01  0.29861727410E+02  0.95599341368E+02  0.90480859195E+02 0.  0.
        -11    1    4    4    0    0 -0.61451358732E+01  0.28751625540E+02 -0.22155837138E+02  0.36814396442E+02  0.00000000000E+00 0. -1.
         11    1    4    4    0    0  0.12562853916E+02 -0.24331408301E+02  0.52017564549E+02  0.58784944926E+02  0.00000000000E+00 0.  1.
        -11    1    3    3    0    0  0.38822434425E+02  0.25628449911E+02  0.29353358097E+02  0.55005622359E+02  0.00000000000E+00 0.  1.
         11    1    3    3    0    0 -0.48270577898E+02 -0.59580672750E+01  0.27107853173E+02  0.55681082603E+02  0.00000000000E+00 0. -1.
         21    1    1    2  502  501  0.30304254305E+01 -0.24090599875E+02  0.11613023780E+03  0.11864136130E+03  0.00000000000E+00 0.  1.
<scales pt_clust_5="13000.00000" pt_clust_6="13000.00000" pt_clust_7="13000.00000" pt_clust_8="13000.00000" pt_clust_9="24.28045"></scales>
<clustering>
<clus scale="   24.280">  1  9  2 -1</clus>
<clus scale="   90.481">  5  6 -1 -1</clus>
<clus scale="   91.001">  2  5  1 -1</clus>
<clus scale="   92.669">  7  8 -1 -1</clus>
<clus scale="   91.001">  2  5  1 -1</clus>
</clustering>
</event>
<event>
 9    1  0.1484717E-005  0.1209840E+03  0.7546771E-02  0.1242229E+00
          1   -1    0    0  502    0  0.00000000000E+00  0.00000000000E+00  0.28285590503E+03  0.28285590503E+03  0.00000000000E+00 0. -1.
         -1   -1    0    0    0  501 -0.00000000000E+00 -0.00000000000E+00 -0.13613512497E+03  0.13613512497E+03  0.00000000000E+00 0.  1.
         23    2    1    2    0    0  0.57416142088E+02 -0.69572518499E+02 -0.61089068120E+02  0.14078200628E+03  0.89166980126E+02 0.  0.
         23    2    1    2    0    0 -0.29361669791E+02  0.77614403416E+01  0.18122774159E+03  0.20530997579E+03  0.91576985247E+02 0.  0.
        -11    1    4    4    0    0  0.29965186066E+02 -0.44861839660E+01  0.96564644877E+02  0.10120656531E+03  0.00000000000E+00 0.  1.
         11    1    4    4    0    0 -0.59326855857E+02  0.12247624308E+02  0.84663096714E+02  0.10410341047E+03  0.00000000000E+00 0. -1.
        -13    1    3    3    0    0  0.38588473937E+02 -0.50146947688E+02 -0.84114711560E+02  0.10525716785E+03  0.00000000000E+00 0.  1.
         13    1    3    3    0    0  0.18827668151E+02 -0.19425570811E+02  0.23025643440E+02  0.35524838426E+02  0.00000000000E+00 0. -1.
         21    1    1    2  502  501 -0.28054472297E+02  0.61811078157E+02  0.26582106595E+02  0.72899047936E+02  0.00000000000E+00 0. -1.
<scales pt_clust_5="13000.00000" pt_clust_6="13000.00000" pt_clust_7="13000.00000" pt_clust_8="13000.00000" pt_clust_9="67.87977"></scales>
<clustering>
<clus scale="   67.880">  1  9  2 -1</clus>
<clus scale="   89.167">  7  8 -1 -1</clus>
<clus scale="   91.577">  5  6 -1 -1</clus>
<clus scale="  119.170">  2  7  1 -1</clus>
<clus scale="   67.880">  1  5  2 -1</clus>
</clustering>
</event>
<event>
 9    1  0.1484717E-005  0.2064771E+03  0.7546771E-02  0.1144892E+00
         -1   -1    0    0    0  501 -0.00000000000E+00  0.00000000000E+00  0.11462740717E+03  0.11462740717E+03  0.00000000000E+00 0.  1.
          1   -1    0    0  502    0  0.00000000000E+00 -0.00000000000E+00 -0.54075619920E+03  0.54075619920E+03  0.00000000000E+00 0. -1.
         23    2    1    2    0    0  0.11726378894E+03 -0.15904078750E+03 -0.82355010343E+02  0.23244014938E+03  0.90561067952E+02 0.  0.
         23    2    1    2    0    0 -0.11704803812E+03  0.13349837850E+03 -0.34227266651E+03  0.39735606649E+03  0.96016691485E+02 0.  0.
        -11    1    4    4    0    0 -0.12588123942E+03  0.85548006138E+02 -0.27444394111E+03  0.31382164457E+03  0.00000000000E+00 0.  1.
         11    1    4    4    0    0  0.88332012949E+01  0.47950372366E+02 -0.67828725404E+02  0.83534421918E+02  0.00000000000E+00 0. -1.
        -11    1    3    3    0    0  0.88777761451E+02 -0.14537181137E+03 -0.98701181196E+02  0.19686639540E+03  0.00000000000E+00 0. -1.
         11    1    3    3    0    0  0.28486027485E+02 -0.13668976137E+02  0.16346170853E+02  0.35573753977E+02  0.00000000000E+00 0.  1.
         21    1    1    2  502  501 -0.21575081364E+00  0.25542409001E+02 -0.15011151743E+01  0.25587390503E+02  0.00000000000E+00 0. -1.
<scales pt_clust_5="13000.00000" pt_clust_6="13000.00000" pt_clust_7="13000.00000" pt_clust_8="13000.00000" pt_clust_9="25.54332"></scales>
<clustering>
<clus scale="   25.543">  1  9  2 -1</clus>
<clus scale="   90.561">  7  8 -1 -1</clus>
<clus scale="   96.017">  5  6 -1 -1</clus>
<clus scale="  203.997">  1  7  2 -1</clus>
<clus scale="  206.477">  2  5  1 -1</clus>
</clustering>
</event>
<event>
 9    1  0.1484717E-005  0.9440550E+02  0.7546771E-02  0.1293859E+00
          1   -1    0    0  502    0  0.00000000000E+00  0.00000000000E+00  0.29485744249E+03  0.29485744249E+03  0.00000000000E+00 0. -1.
         -1   -1    0    0    0  501 -0.00000000000E+00 -0.00000000000E+00 -0.45894096914E+02  0.45894096914E+02  0.00000000000E+00 0.  1.
         23    2    1    2    0    0 -0.59387173741E+01 -0.35037133568E+02  0.10575582157E+03  0.14405282547E+03  0.91126580304E+02 0.  0.
         23    2    1    2    0    0 -0.22553038616E+02  0.12721152583E+02  0.12694464323E+03  0.15702171231E+03  0.88715322335E+02 0.  0.
        -11    1    4    4    0    0 -0.25584192874E+02  0.46002297962E+02  0.47768008975E+02  0.71081256490E+02  0.00000000000E+00 0.  1.
         11    1    4    4    0    0  0.30311542581E+01 -0.33281145379E+02  0.79176634259E+02  0.85940455819E+02  0.00000000000E+00 0. -1.
        -13    1    3    3    0    0  0.12831664621E+02  0.28553232712E+02  0.29656222236E+02  0.43121111217E+02  0.00000000000E+00 0.  1.
         13    1    3    3    0    0 -0.18770381995E+02 -0.63590366280E+02  0.76099599335E+02  0.10093171426E+03  0.00000000000E+00 0. -1.
         21    1    1    2  502  501  0.28491755990E+02  0.22315980985E+02  0.16262880774E+02  0.39677001623E+02  0.00000000000E+00 0. -1.
<scales pt_clust_5="13000.00000" pt_clust_6="13000.00000" pt_clust_7="13000.00000" pt_clust_8="13000.00000" pt_clust_9="36.19093"></scales>
<clustering>
<clus scale="   36.191">  2  9  1 -1</clus>
<clus scale="   88.715">  5  6 -1 -1</clus>
<clus scale="   91.127">  7  8 -1 -1</clus>
<clus scale="   92.080">  1  5  2 -1</clus>
<clus scale="   92.080">  1  5  2 -1</clus>
</clustering>
</event>
<event>
 9    1  0.1484717E-005  0.1017370E+03  0.7546771E-02  0.1277273E+00
          1   -1    0    0  502    0  0.00000000000E+00  0.00000000000E+00  0.11196969972E+03  0.11196969972E+03  0.00000000000E+00 0. -1.
         -1   -1    0    0    0  501 -0.00000000000E+00 -0.00000000000E+00 -0.30822086486E+03  0.30822086486E+03  0.00000000000E+00 0.  1.
         23    2    1    2    0    0 -0.33253445033E+01  0.22925062783E+02 -0.22493626046E+03  0.24630616798E+03  0.97641132204E+02 0.  0.
         23    2    1    2    0    0  0.80495229053E+01 -0.69840830418E+02  0.39092181419E+02  0.12559656629E+03  0.96456012792E+02 0.  0.
        -11    1    4    4    0    0  0.19773683495E+02 -0.91605252184E+02  0.37112279412E+02  0.10079604194E+03  0.00000000000E+00 0.  1.
         11    1    4    4    0    0 -0.11724160590E+02  0.21764421767E+02  0.19799020075E+01  0.24800524356E+02  0.00000000000E+00 0. -1.
        -13    1    3    3    0    0 -0.28704938827E+02 -0.25658619067E+02 -0.14017032275E+03  0.14536181625E+03  0.00000000000E+00 0.  1.
         13    1    3    3    0    0  0.25379594324E+02  0.48583681850E+02 -0.84765937714E+02  0.10094435173E+03  0.00000000000E+00 0. -1.
         21    1    1    2  502  501 -0.47241784020E+01  0.46915767634E+02 -0.10407086098E+02  0.48287830303E+02  0.00000000000E+00 0. -1.
<scales pt_clust_5="13000.00000" pt_clust_6="13000.00000" pt_clust_7="13000.00000" pt_clust_8="13000.00000" pt_clust_9="47.15302"></scales>
<clustering>
<clus scale="   47.153">  1  9  2 -1</clus>
<clus scale="   96.456">  5  6 -1 -1</clus>
<clus scale="   97.641">  7  8 -1 -1</clus>
<clus scale="  100.600">  1  5  2 -1</clus>
<clus scale="   47.153">  1  5  2 -1</clus>
</clustering>
</event>
<event>
 9    1  0.1484717E-005  0.1320098E+03  0.7546771E-02  0.1224571E+00
          1   -1    0    0  502    0  0.00000000000E+00  0.00000000000E+00  0.74530250975E+02  0.74530250975E+02  0.00000000000E+00 0. -1.
         -1   -1    0    0    0  501 -0.00000000000E+00 -0.00000000000E+00 -0.61698277693E+03  0.61698277693E+03  0.00000000000E+00 0.  1.
         23    2    1    2    0    0  0.40285120831E+02 -0.20596455789E+02 -0.37044389996E+03  0.38405802818E+03  0.90690578572E+02 0.  0.
         23    2    1    2    0    0 -0.10785615345E+03 -0.88452611372E+00 -0.23701030725E+02  0.14307002520E+03  0.90959117359E+02 0.  0.
        -11    1    3    3    0    0  0.17182350849E+02 -0.56134726028E+02 -0.20147463433E+03  0.20985320804E+03  0.00000000000E+00 0.  1.
         11    1    3    3    0    0  0.23102769982E+02  0.35538270239E+02 -0.16896926563E+03  0.17420482014E+03  0.00000000000E+00 0. -1.
        -11    1    4    4    0    0  0.65080346476E+01 -0.19865937543E+02  0.87849746465E+01  0.22675664686E+02  0.00000000000E+00 0.  1.
         11    1    4    4    0    0 -0.11436418810E+03  0.18981411429E+02 -0.32486005371E+02  0.12039436052E+03  0.00000000000E+00 0. -1.
         21    1    1    2  502  501  0.67571032621E+02  0.21480981903E+02 -0.14830759527E+03  0.16438497452E+03  0.00000000000E+00 0.  1.
<scales pt_clust_5="13000.00000" pt_clust_6="13000.00000" pt_clust_7="13000.00000" pt_clust_8="13000.00000" pt_clust_9="70.90329"></scales>
<clustering>
<clus scale="   70.903">  2  9  1 -1</clus>
<clus scale="   90.691">  5  6 -1 -1</clus>
<clus scale="   90.959">  7  8 -1 -1</clus>
<clus scale="  131.825">  2  5  1 -1</clus>
<clus scale="  132.010">  1  5  2 -1</clus>
</clustering>
</event>
<event>
 9    1  0.1484717E-005  0.1083820E+03  0.7546771E-02  0.1263812E+00
          1   -1    0    0  502    0  0.00000000000E+00  0.00000000000E+00  0.36998276737E+03  0.36998276737E+03  0.00000000000E+00 0. -1.
         -1   -1    0    0    0  501 -0.00000000000E+00 -0.00000000000E+00 -0.49653247285E+02  0.49653247285E+02  0.00000000000E+00 0.  1.
         23    2    1    2    0    0 -0.30333146002E+02 -0.55143789449E+02  0.60467540884E+02  0.12649358655E+03  0.91560726713E+02 0.  0.
         23    2    1    2    0    0  0.76972733316E+01  0.55621884662E+02  0.23958970653E+03  0.26275202920E+03  0.92099724769E+02 0.  0.
        -11    1    4    4    0    0  0.96463337534E+01 -0.25114301468E+02  0.53088161558E+02  0.59515819668E+02  0.00000000000E+00 0.  1.
         11    1    4    4    0    0 -0.19490604218E+01  0.80736186130E+02  0.18650154497E+03  0.20323620953E+03  0.00000000000E+00 0. -1.
        -11    1    3    3    0    0 -0.49427687460E+02  0.32576046157E+01  0.23998961423E+02  0.55042333025E+02  0.00000000000E+00 0.  1.
         11    1    3    3    0    0  0.19094541457E+02 -0.58401394065E+02  0.36468579460E+02  0.71451253523E+02  0.00000000000E+00 0. -1.
         21    1    1    2  502  501  0.22635872671E+02 -0.47809521275E+00  0.20272272674E+02  0.30390398911E+02  0.00000000000E+00 0. -1.
<scales pt_clust_5="13000.00000" pt_clust_6="13000.00000" pt_clust_7="13000.00000" pt_clust_8="13000.00000" pt_clust_9="22.64092"></scales>
<clustering>
<clus scale="   22.641">  2  9  1 -1</clus>
<clus scale="   91.561">  7  8 -1 -1</clus>
<clus scale="   92.100">  5  6 -1 -1</clus>
<clus scale="  107.924">  2  7  1 -1</clus>
<clus scale="  108.382">  1  5  2 -1</clus>
</clustering>
</event>
<event>
 9    1  0.1484717E-005  0.2671630E+03  0.7546771E-02  0.1103237E+00
         -1   -1    0    0    0  501 -0.00000000000E+00  0.00000000000E+00  0.82406259133E+02  0.82406259133E+02  0.00000000000E+00 0.  1.
          1   -1    0    0  502    0  0.00000000000E+00 -0.00000000000E+00 -0.10723895797E+04  0.10723895797E+04  0.00000000000E+00 0. -1.
         23    2    1    2    0    0 -0.57568015258E+02  0.22498592535E+03 -0.27339570572E+03  0.37196156558E+03  0.98374038113E+02 0.  0.
         23    2    1    2    0    0  0.38781697357E+02 -0.25460479073E+03 -0.67565996142E+03  0.72893366342E+03  0.92196977655E+02 0.  0.
        -11    1    3    3    0    0 -0.27711513984E+02  0.21222014090E+03 -0.26020017297E+03  0.33691162970E+03  0.00000000000E+00 0.  1.
         11    1    3    3    0    0 -0.29856501274E+02  0.12765784452E+02 -0.13195532756E+02  0.35049935887E+02  0.00000000000E+00 0. -1.
        -13    1    4    4    0    0  0.40953772411E+02 -0.37207798230E+02 -0.11572057238E+03  0.12826879042E+03  0.00000000000E+00 0.  1.
         13    1    4    4    0    0 -0.21720750546E+01 -0.21739699250E+03 -0.55993938904E+03  0.60066487300E+03  0.00000000000E+00 0. -1.
         21    1    1    2  502  501  0.18786317902E+02  0.29618865374E+02 -0.40927653460E+02  0.53900609867E+02  0.00000000000E+00 0.  1.
<scales pt_clust_5="13000.00000" pt_clust_6="13000.00000" pt_clust_7="13000.00000" pt_clust_8="13000.00000" pt_clust_9="35.07425"></scales>
<clustering>
<clus scale="   35.074">  1  9  2 -1</clus>
<clus scale="   92.197">  7  8 -1 -1</clus>
<clus scale="   98.374">  5  6 -1 -1</clus>
<clus scale="  264.951">  2  7  1 -1</clus>
<clus scale="  264.951">  2  5  1 -1</clus>
</clustering>
</event>
<event>
 9    1  0.1484717E-005  0.1071357E+03  0.7546771E-02  0.1269877E+00
          1   -1    0    0  502    0  0.00000000000E+00  0.00000000000E+00  0.61064305765E+02  0.61064305765E+02  0.00000000000E+00 0. -1.
         -1   -1    0    0    0  501 -0.00000000000E+00 -0.00000000000E+00 -0.30146186172E+03  0.30146186172E+03  0.00000000000E+00 0.  1.
         23    2    1    2    0    0 -0.47810897655E+01 -0.36529733097E+02 -0.68803432309E+02  0.12768192588E+03  0.10105187618E+03 0.  0.
         23    2    1    2    0    0  0.30415218030E+02  0.25066920003E+02 -0.54723112793E+02  0.11464716263E+03  0.92714167518E+02 0.  0.
        -13    1    3    3    0    0  0.29206462347E+02  0.22327808100E+02 -0.38604157918E+02  0.53308812273E+02  0.00000000000E+00 0.  1.
         13    1    3    3    0    0 -0.33987552112E+02 -0.58857541198E+02 -0.30199274391E+02  0.74373113610E+02  0.00000000000E+00 0. -1.
        -13    1    4    4    0    0  0.46949936414E+02 -0.14601926050E+02 -0.57699995691E+01  0.49505612497E+02  0.00000000000E+00 0. -1.
         13    1    4    4    0    0 -0.16534718384E+02  0.39668846053E+02 -0.48953113224E+02  0.65141550131E+02  0.00000000000E+00 0.  1.
         21    1    1    2  502  501 -0.25634128264E+02  0.11462813095E+02 -0.11687101085E+03  0.12019707897E+03  0.00000000000E+00 0.  1.
<scales pt_clust_5="13000.00000" pt_clust_6="13000.00000" pt_clust_7="13000.00000" pt_clust_8="13000.00000" pt_clust_9="28.08032"></scales>
<clustering>
<clus scale="   28.080">  2  9  1 -1</clus>
<clus scale="   92.714">  7  8 -1 -1</clus>
<clus scale="   99.310">  1  7  2 -1</clus>
<clus scale="  101.052">  5  6 -1 -1</clus>
<clus scale="   99.310">  1  5  2 -1</clus>
</clustering>
</event>
<event>
 9    1  0.1484717E-005  0.1144287E+03  0.7546771E-02  0.1252640E+00
         -3   -1    0    0    0  501 -0.00000000000E+00  0.00000000000E+00  0.13434832515E+03  0.13434832515E+03  0.00000000000E+00 0.  1.
          3   -1    0    0  502    0  0.00000000000E+00 -0.00000000000E+00 -0.18331181649E+03  0.18331181649E+03  0.00000000000E+00 0. -1.
         23    2    1    2    0    0  0.61398780755E+02  0.47319474715E+02  0.59807213930E+02  0.13338372946E+03  0.90583516604E+02 0.  0.
         23    2    1    2    0    0 -0.21520375596E+02 -0.44215184208E+02 -0.99630205254E+02  0.14324627011E+03  0.90416851430E+02 0.  0.
        -11    1    3    3    0    0 -0.14586078019E+02  0.38849236716E+02  0.11943124788E+02  0.43181652297E+02  0.00000000000E+00 0.  1.
         11    1    3    3    0    0  0.75984858774E+02  0.84702379985E+01  0.47864089142E+02  0.90202077161E+02  0.00000000000E+00 0. -1.
        -13    1    4    4    0    0  0.32322522961E+02 -0.33574345668E+02 -0.57743401198E+02  0.74204329789E+02  0.00000000000E+00 0. -1.
         13    1    4    4    0    0 -0.53842898557E+02 -0.10640838539E+02 -0.41886804056E+02  0.69041940326E+02  0.00000000000E+00 0.  1.
         21    1    1    2  502  501 -0.39878405159E+02 -0.31042905069E+01 -0.91405000096E+01  0.41030142067E+02  0.00000000000E+00 0.  1.
<scales pt_clust_5="13000.00000" pt_clust_6="13000.00000" pt_clust_7="13000.00000" pt_clust_8="13000.00000" pt_clust_9="39.99905"></scales>
<clustering>
<clus scale="   39.999">  2  9  1 -1</clus>
<clus scale="   90.417">  7  8 -1 -1</clus>
<clus scale="   90.584">  5  6 -1 -1</clus>
<clus scale="  114.297">  2  7  1 -1</clus>
<clus scale="   39.999">  2  5  1 -1</clus>
</clustering>
</event>
<event>
 9    1  0.1484717E-005  0.9379215E+02  0.7546771E-02  0.1295278E+00
         -1   -1    0    0    0  501 -0.00000000000E+00  0.00000000000E+00  0.93361481362E+02  0.93361481362E+02  0.00000000000E+00 0.  1.
          1   -1    0    0  502    0  0.00000000000E+00 -0.00000000000E+00 -0.23077373043E+03  0.23077373043E+03  0.00000000000E+00 0. -1.
         23    2    1    2    0    0 -0.22191323928E+02 -0.80519028179E+01 -0.24746677676E+02  0.97464718242E+02  0.91267109352E+02 0.  0.
         23    2    1    2    0    0 -0.12620386545E+02 -0.10110184293E+02 -0.14665735545E+03  0.17473632390E+03  0.93610432102E+02 0.  0.
        -13    1    4    4    0    0 -0.44521798652E+02  0.22034610283E+02 -0.79012496377E+02  0.93331073011E+02  0.00000000000E+00 0. -1.
         13    1    4    4    0    0  0.31901412107E+02 -0.32144794576E+02 -0.67644859072E+02  0.81405250885E+02  0.00000000000E+00 0.  1.
        -13    1    3    3    0    0  0.19066007867E+02  0.30253582765E+02  0.50275347951E+00  0.35763734245E+02  0.00000000000E+00 0. -1.
         13    1    3    3    0    0 -0.41257331795E+02 -0.38305485583E+02 -0.25249431156E+02  0.61700983997E+02  0.00000000000E+00 0.  1.
         21    1    1    2  502  501  0.34811710473E+02  0.18162087111E+02  0.33991784058E+02  0.51934169654E+02  0.00000000000E+00 0. -1.
<scales pt_clust_5="13000.00000" pt_clust_6="13000.00000" pt_clust_7="13000.00000" pt_clust_8="13000.00000" pt_clust_9="39.26470"></scales>
<clustering>
<clus scale="   39.265">  1  9  2 -1</clus>
<clus scale="   91.267">  7  8 -1 -1</clus>
<clus scale="   91.453">  1  7  2 -1</clus>
<clus scale="   93.610">  5  6 -1 -1</clus>
<clus scale="   93.792">  2  5  1 -1</clus>
</clustering>
</event>
<event>
 9    1  0.1484717E-005  0.1097612E+03  0.7546771E-02  0.1261284E+00
         -1   -1    0    0    0  501 -0.00000000000E+00  0.00000000000E+00  0.15334395010E+03  0.15334395010E+03  0.00000000000E+00 0.  1.
          1   -1    0    0  502    0  0.00000000000E+00 -0.00000000000E+00 -0.61671973020E+03  0.61671973020E+03  0.00000000000E+00 0. -1.
         23    2    1    2    0    0  0.31780898890E+02  0.17735431301E+02 -0.24889615932E+02  0.10055186767E+03  0.90369320307E+02 0.  0.
         23    2    1    2    0    0 -0.60332479673E+02 -0.24281038528E+02 -0.54637467233E+03  0.55771750181E+03  0.91071138812E+02 0.  0.
        -11    1    4    4    0    0  0.23550232654E+02 -0.12672392116E+02 -0.11021485551E+03  0.11341303873E+03  0.00000000000E+00 0.  1.
         11    1    4    4    0    0 -0.83882712327E+02 -0.11608646412E+02 -0.43615981682E+03  0.44430446308E+03  0.00000000000E+00 0. -1.
        -13    1    3    3    0    0 -0.11559047081E+02  0.43923983437E+02 -0.20163322198E+02  0.49693937784E+02  0.00000000000E+00 0.  1.
         13    1    3    3    0    0  0.43339945971E+02 -0.26188552136E+02 -0.47262937341E+01  0.50857929886E+02  0.00000000000E+00 0. -1.
         21    1    1    2  502  501  0.28551580783E+02  0.65456072276E+01  0.10788850816E+03  0.11179431083E+03  0.00000000000E+00 0.  1.
<scales pt_clust_5="13000.00000" pt_clust_6="13000.00000" pt_clust_7="13000.00000" pt_clust_8="13000.00000" pt_clust_9="29.29228"></scales>
<clustering>
<clus scale="   29.292">  1  9  2 -1</clus>
<clus scale="   90.369">  7  8 -1 -1</clus>
<clus scale="   91.071">  5  6 -1 -1</clus>
<clus scale="  109.180">  1  7  2 -1</clus>
<clus scale="  109.761">  2  5  1 -1</clus>
</clustering>
</event>
<event>
 9    1  0.1484717E-005  0.1311705E+03  0.7546771E-02  0.1226553E+00
         -2   -1    0    0    0  501 -0.00000000000E+00  0.00000000000E+00  0.30690001665E+02  0.30690001665E+02  0.00000000000E+00 0.  1.
          2   -1    0    0  502    0  0.00000000000E+00 -0.00000000000E+00 -0.88131511287E+03  0.88131511287E+03  0.00000000000E+00 0. -1.
         23    2    1    2    0    0  0.63912822494E+02  0.69733229447E+02 -0.37562353554E+03  0.39790266250E+03  0.91027008094E+02 0.  0.
         23    2    1    2    0    0 -0.29296347658E+02 -0.94203924647E+02 -0.43916985533E+03  0.45859544856E+03  0.87789339893E+02 0.  0.
        -13    1    4    4    0    0 -0.57666832307E+02 -0.67091591669E+02 -0.35289048603E+03  0.36381099537E+03  0.00000000000E+00 0. -1.
         13    1    4    4    0    0  0.28370484649E+02 -0.27112332978E+02 -0.86279369298E+02  0.94784453183E+02  0.00000000000E+00 0.  1.
        -13    1    3    3    0    0 -0.20466988871E+02  0.13331711416E+02 -0.36516162787E+02  0.43932474405E+02  0.00000000000E+00 0. -1.
         13    1    3    3    0    0  0.84379811365E+02  0.56401518031E+02 -0.33910737275E+03  0.35397018809E+03  0.00000000000E+00 0.  1.
         21    1    1    2  502  501 -0.34616474836E+02  0.24470695200E+02 -0.35831720336E+02  0.55507003485E+02  0.00000000000E+00 0.  1.
<scales pt_clust_5="13000.00000" pt_clust_6="13000.00000" pt_clust_7="13000.00000" pt_clust_8="13000.00000" pt_clust_9="42.39240"></scales>
<clustering>
<clus scale="   42.392">  1  9  2 -1</clus>
<clus scale="   87.789">  5  6 -1 -1</clus>
<clus scale="   91.027">  7  8 -1 -1</clus>
<clus scale="  128.945">  2  5  1 -1</clus>
<clus scale="  128.945">  2  5  1 -1</clus>
</clustering>
</event>
<event>
 9    1  0.1484717E-005  0.1494581E+03  0.7546771E-02  0.1201227E+00
          2   -1    0    0  502    0  0.00000000000E+00  0.00000000000E+00  0.28614274430E+03  0.28614274430E+03  0.00000000000E+00 0. -1.
         -2   -1    0    0    0  501 -0.00000000000E+00 -0.00000000000E+00 -0.17233749878E+03  0.17233749878E+03  0.00000000000E+00 0.  1.
         23    2    1    2    0    0 -0.29917316836E+02  0.13739232513E+03 -0.76450198772E+02  0.18409843463E+03  0.90971995082E+02 0.  0.
         23    2    1    2    0    0  0.68631410500E+01 -0.11403856090E+03  0.19213685232E+03  0.24151186746E+03  0.91430388973E+02 0.  0.
        -11    1    4    4    0    0 -0.10528445379E+02 -0.52651026370E+02  0.18939001861E+02  0.56935617424E+02  0.00000000000E+00 0.  1.
         11    1    4    4    0    0  0.17391586429E+02 -0.61387534532E+02  0.17319785046E+03  0.18457625004E+03  0.00000000000E+00 0. -1.
        -13    1    3    3    0    0 -0.58637411168E+02  0.61248264134E+02 -0.27545535652E+02  0.89154093468E+02  0.00000000000E+00 0.  1.
         13    1    3    3    0    0  0.28720094332E+02  0.76144060994E+02 -0.48904663121E+02  0.94944341159E+02  0.00000000000E+00 0. -1.
         21    1    1    2  502  501  0.23054175786E+02 -0.23353764225E+02 -0.18814080298E+01  0.32869940992E+02  0.00000000000E+00 0. -1.
<scales pt_clust_5="13000.00000" pt_clust_6="13000.00000" pt_clust_7="13000.00000" pt_clust_8="13000.00000" pt_clust_9="32.81605"></scales>
<clustering>
<clus scale="   32.816">  2  9  1 -1</clus>
<clus scale="   90.972">  7  8 -1 -1</clus>
<clus scale="   91.430">  5  6 -1 -1</clus>
<clus scale="  149.178">  2  7  1 -1</clus>
<clus scale="  149.458">  1  5  2 -1</clus>
</clustering>
</event>
<event>
 9    1  0.1484717E-005  0.1202754E+03  0.7546771E-02  0.1243256E+00
          1   -1    0    0  502    0  0.00000000000E+00  0.00000000000E+00  0.36832428539E+03  0.36832428539E+03  0.00000000000E+00 0. -1.
         -1   -1    0    0    0  501 -0.00000000000E+00 -0.00000000000E+00 -0.10453913994E+03  0.10453913994E+03  0.00000000000E+00 0.  1.
         23    2    1    2    0    0 -0.32026742457E+02 -0.15698192007E+02 -0.19222094541E+02  0.10050648582E+03  0.91977819661E+02 0.  0.
         23    2    1    2    0    0  0.37044561499E+02  0.77370755092E+02  0.28324125929E+03  0.31048014006E+03  0.93881697489E+02 0.  0.
        -11    1    4    4    0    0  0.42788634172E+02  0.37501987337E+02  0.25503811375E+03  0.26130768403E+03  0.00000000000E+00 0. -1.
         11    1    4    4    0    0 -0.57440726736E+01  0.39868767755E+02  0.28203145546E+02  0.49172456028E+02  0.00000000000E+00 0.  1.
        -11    1    3    3    0    0 -0.23117520208E+02 -0.41228437798E+02  0.21256530031E+02  0.51827057536E+02  0.00000000000E+00 0. -1.
         11    1    3    3    0    0 -0.89092222485E+01  0.25530245792E+02 -0.40478624572E+02  0.48679428289E+02  0.00000000000E+00 0.  1.
         21    1    1    2  502  501 -0.50178190419E+01 -0.61672563085E+02 -0.23401929888E+00  0.61876799452E+02  0.00000000000E+00 0.  1.
<scales pt_clust_5="13000.00000" pt_clust_6="13000.00000" pt_clust_7="13000.00000" pt_clust_8="13000.00000" pt_clust_9="61.87636"></scales>
<clustering>
<clus scale="   61.876">  2  9  1 -1</clus>
<clus scale="   91.978">  7  8 -1 -1</clus>
<clus scale="   93.882">  5  6 -1 -1</clus>
<clus scale="  118.795">  2  7  1 -1</clus>
<clus scale="  120.275">  1  5  2 -1</clus>
</clustering>
</event>
<event>
 9    1  0.1484717E-005  0.2157760E+03  0.7546771E-02  0.1137358E+00
          1   -1    0    0  502    0  0.00000000000E+00  0.00000000000E+00  0.67383165008E+03  0.67383165008E+03  0.00000000000E+00 0. -1.
         -1   -1    0    0    0  501 -0.00000000000E+00 -0.00000000000E+00 -0.10892453557E+03  0.10892453557E+03  0.00000000000E+00 0.  1.
         23    2    1    2    0    0  0.41398387560E+02 -0.14360391286E+03  0.81671674992E+02  0.19368501430E+03  0.92237259217E+02 0.  0.
         23    2    1    2    0    0 -0.74605465670E+02  0.20539629165E+03  0.45683410974E+03  0.51411759687E+03  0.88689838498E+02 0.  0.
        -13    1    4    4    0    0 -0.47360294397E+01  0.13888729901E+03  0.25467474230E+03  0.29012296732E+03  0.00000000000E+00 0.  1.
         13    1    4    4    0    0 -0.69869436230E+02  0.66508992638E+02  0.20215936744E+03  0.22399462955E+03  0.00000000000E+00 0. -1.
        -13    1    3    3    0    0  0.41129443409E+02 -0.82073711081E+02  0.46986084608E+00  0.91803844881E+02  0.00000000000E+00 0.  1.
         13    1    3    3    0    0  0.26894415048E+00 -0.61530201776E+02  0.81201814145E+02  0.10188116942E+03  0.00000000000E+00 0. -1.
         21    1    1    2  502  501  0.33207078110E+02 -0.61792378790E+02  0.26401329774E+02  0.74953574477E+02  0.00000000000E+00 0.  1.
<scales pt_clust_5="13000.00000" pt_clust_6="13000.00000" pt_clust_7="13000.00000" pt_clust_8="13000.00000" pt_clust_9="70.14990"></scales>
<clustering>
<clus scale="   70.150">  2  9  1 -1</clus>
<clus scale="   88.690">  5  6 -1 -1</clus>
<clus scale="   92.237">  7  8 -1 -1</clus>
<clus scale="  214.284">  1  5  2 -1</clus>
<clus scale="  214.284">  1  5  2 -1</clus>
</clustering>
</event>
<event>
 9    1  0.1484717E-005  0.1414691E+03  0.7546771E-02  0.1212149E+00
          2   -1    0    0  502    0  0.00000000000E+00  0.00000000000E+00  0.10683175781E+04  0.10683175781E+04  0.00000000000E+00 0.  1.
         -2   -1    0    0    0  501 -0.00000000000E+00 -0.00000000000E+00 -0.32060261637E+02  0.32060261637E+02  0.00000000000E+00 0. -1.
         23    2    1    2    0    0 -0.98734908203E+02  0.10721256945E+03  0.44666775710E+03  0.47850519561E+03  0.90620195605E+02 0.  0.
         23    2    1    2    0    0  0.57603957565E+02 -0.62269065150E+02  0.48038556379E+03  0.49682390831E+03  0.94170343383E+02 0.  0.
        -11    1    4    4    0    0  0.61495907350E+02  0.10664268118E+01  0.27806078547E+03  0.28478181877E+03  0.00000000000E+00 0. -1.
         11    1    4    4    0    0 -0.38919497845E+01 -0.63335491962E+02  0.20232477832E+03  0.21204208955E+03  0.00000000000E+00 0.  1.
        -11    1    3    3    0    0 -0.40696930167E+02  0.46913661052E+02  0.32469006033E+03  0.33057641627E+03  0.00000000000E+00 0.  1.
         11    1    3    3    0    0 -0.58037978037E+02  0.60298908393E+02  0.12197769677E+03  0.14792877934E+03  0.00000000000E+00 0. -1.
         21    1    1    2  502  501  0.41130950638E+02 -0.44943504295E+02  0.10920399559E+03  0.12504873582E+03  0.00000000000E+00 0. -1.
<scales pt_clust_5="13000.00000" pt_clust_6="13000.00000" pt_clust_7="13000.00000" pt_clust_8="13000.00000" pt_clust_9="60.92351"></scales>
<clustering>
<clus scale="   60.924">  2  9  1 -1</clus>
<clus scale="   90.620">  7  8 -1 -1</clus>
<clus scale="   94.170">  5  6 -1 -1</clus>
<clus scale="  139.131">  2  7  1 -1</clus>
<clus scale="  141.469">  1  5  2 -1</clus>
</clustering>
</event>
<event>
 9    1  0.1484717E-005  0.1297610E+03  0.7546771E-02  0.1232236E+00
          2   -1    0    0  502    0  0.00000000000E+00  0.00000000000E+00  0.87153840262E+03  0.87153840262E+03  0.00000000000E+00 0. -1.
         -2   -1    0    0    0  501 -0.00000000000E+00 -0.00000000000E+00 -0.28960803739E+02  0.28960803739E+02  0.00000000000E+00 0.  1.
         23    2    1    2    0    0 -0.42781586254E+02  0.27030375836E+02  0.18951154419E+03  0.22045900537E+03  0.10063121944E+03 0.  0.
         23    2    1    2    0    0  0.62646981093E+02 -0.77067258383E+02  0.52511068191E+03  0.54122053037E+03  0.85524427439E+02 0.  0.
        -11    1    4    4    0    0  0.11172755144E+02  0.18965524942E+02  0.80743077873E+02  0.83689701985E+02  0.00000000000E+00 0.  1.
         11    1    4    4    0    0  0.51474225949E+02 -0.96032783325E+02  0.44436760403E+03  0.45753082839E+03  0.00000000000E+00 0. -1.
        -13    1    3    3    0    0 -0.68081401786E+02 -0.79108426384E+01  0.10194619143E+03  0.12284414779E+03  0.00000000000E+00 0.  1.
         13    1    3    3    0    0  0.25299815532E+02  0.34941218474E+02  0.87565352762E+02  0.97614857571E+02  0.00000000000E+00 0. -1.
         21    1    1    2  502  501 -0.19865394839E+02  0.50036882547E+02  0.12795537278E+03  0.13881967062E+03  0.00000000000E+00 0. -1.
<scales pt_clust_5="13000.00000" pt_clust_6="13000.00000" pt_clust_7="13000.00000" pt_clust_8="13000.00000" pt_clust_9="53.83608"></scales>
<clustering>
<clus scale="   53.836">  2  9  1 -1</clus>
<clus scale="   85.524">  5  6 -1 -1</clus>
<clus scale="  100.631">  7  8 -1 -1</clus>
<clus scale="  118.430">  1  5  2 -1</clus>
<clus scale="  118.430">  1  5  2 -1</clus>
</clustering>
</event>
<event>
 9    1  0.1484717E-005  0.1095495E+03  0.7546771E-02  0.1263987E+00
          1   -1    0    0  502    0  0.00000000000E+00  0.00000000000E+00  0.50422486840E+03  0.50422486840E+03  0.00000000000E+00 0. -1.
         -1   -1    0    0    0  501 -0.00000000000E+00 -0.00000000000E+00 -0.37265601362E+02  0.37265601362E+02  0.00000000000E+00 0.  1.
         23    2    1    2    0    0 -0.30315126531E+02  0.41670928288E+01  0.79814922712E+02  0.12890573335E+03  0.96487795314E+02 0.  0.
         23    2    1    2    0    0  0.59201147460E+02  0.45393201421E+01  0.33856547147E+03  0.35539985449E+03  0.90316647486E+02 0.  0.
        -11    1    3    3    0    0 -0.41301911117E+01  0.49040693982E+02  0.40948053860E+02  0.64021803003E+02  0.00000000000E+00 0. -1.
         11    1    3    3    0    0 -0.26184935420E+02 -0.44873601153E+02  0.38866868852E+02  0.64883930350E+02  0.00000000000E+00 0.  1.
        -13    1    4    4    0    0  0.43438125427E+02 -0.30283027497E+02  0.28328349690E+03  0.28818999308E+03  0.00000000000E+00 0. -1.
         13    1    4    4    0    0  0.15763022033E+02  0.34822347639E+02  0.55281974568E+02  0.67209861411E+02  0.00000000000E+00 0.  1.
         21    1    1    2  502  501 -0.28886020929E+02 -0.87064129709E+01  0.48578872853E+02  0.57184881915E+02  0.00000000000E+00 0. -1.
<scales pt_clust_5="13000.00000" pt_clust_6="13000.00000" pt_clust_7="13000.00000" pt_clust_8="13000.00000" pt_clust_9="30.16958"></scales>
<clustering>
<clus scale="   30.170">  2  9  1 -1</clus>
<clus scale="   90.317">  7  8 -1 -1</clus>
<clus scale="   96.488">  5  6 -1 -1</clus>
<clus scale="  104.155">  1  7  2 -1</clus>
<clus scale="  104.155">  1  5  2 -1</clus>
</clustering>
</event>
<event>
 9    1  0.1484717E-005  0.2431809E+03  0.7546771E-02  0.1118439E+00
         -1   -1    0    0    0  501 -0.00000000000E+00  0.00000000000E+00  0.81514616768E+02  0.81514616768E+02  0.00000000000E+00 0.  1.
          1   -1    0    0  502    0  0.00000000000E+00 -0.00000000000E+00 -0.80648685508E+03  0.80648685508E+03  0.00000000000E+00 0. -1.
         23    2    1    2    0    0 -0.13646330930E+03  0.15935390372E+03 -0.28656518203E+03  0.36981831268E+03  0.10310227653E+03 0.  0.
         23    2    1    2    0    0  0.13636640801E+03 -0.18379576097E+03 -0.42185802384E+03  0.48866563470E+03  0.91941455716E+02 0.  0.
        -11    1    4    4    0    0 -0.80592063675E+01 -0.38008076519E+02 -0.96108783372E+02  0.10366514809E+03  0.00000000000E+00 0. -1.
         11    1    4    4    0    0  0.14442561437E+03 -0.14578768445E+03 -0.32574924046E+03  0.38500048661E+03  0.00000000000E+00 0.  1.
        -11    1    3    3    0    0 -0.20608056824E+02  0.10272123097E+03 -0.13188540964E+03  0.16843427375E+03  0.00000000000E+00 0. -1.
         11    1    3    3    0    0 -0.11585525248E+03  0.56632672750E+02 -0.15467977239E+03  0.20138403893E+03  0.00000000000E+00 0.  1.
         21    1    1    2  502  501  0.96901294046E-01  0.24441857247E+02 -0.16549032444E+02  0.29517524462E+02  0.00000000000E+00 0. -1.
<scales pt_clust_5="13000.00000" pt_clust_6="13000.00000" pt_clust_7="13000.00000" pt_clust_8="13000.00000" pt_clust_9="24.44205"></scales>
<clustering>
<clus scale="   24.442">  1  9  2 -1</clus>
<clus scale="   91.941">  5  6 -1 -1</clus>
<clus scale="  103.102">  7  8 -1 -1</clus>
<clus scale="  238.663">  2  5  1 -1</clus>
<clus scale="  238.663">  2  5  1 -1</clus>
</clustering>
</event>
<event>
 9    1  0.1484717E-005  0.1375271E+03  0.7546771E-02  0.1218048E+00
         -2   -1    0    0    0  501 -0.00000000000E+00  0.00000000000E+00  0.12182008370E+03  0.12182008370E+03  0.00000000000E+00 0.  1.
          2   -1    0    0  502    0  0.00000000000E+00 -0.00000000000E+00 -0.40009588599E+03  0.40009588599E+03  0.00000000000E+00 0. -1.
         23    2    1    2    0    0  0.74015948830E+02  0.41065786526E+02 -0.13202246325E+03  0.18349728272E+03  0.95270994835E+02 0.  0.
         23    2    1    2    0    0 -0.90625573328E+02 -0.65025610503E+02 -0.21812475313E+03  0.26085933580E+03  0.89598329132E+02 0.  0.
        -13    1    4    4    0    0 -0.18276751677E+02 -0.63853581800E+02 -0.72980500880E+02  0.98678635323E+02  0.00000000000E+00 0. -1.
         13    1    4    4    0    0 -0.72348821651E+02 -0.11720287025E+01 -0.14514425225E+03  0.16218070047E+03  0.00000000000E+00 0.  1.
        -13    1    3    3    0    0  0.91822350248E+02  0.17615051668E+02 -0.11890805636E+03  0.15126387512E+03  0.00000000000E+00 0.  1.
         13    1    3    3    0    0 -0.17806401418E+02  0.23450734858E+02 -0.13114406891E+02  0.32233407591E+02  0.00000000000E+00 0. -1.
         21    1    1    2  502  501  0.16609624498E+02  0.23959823977E+02  0.71871414092E+02  0.77559351174E+02  0.00000000000E+00 0.  1.
<scales pt_clust_5="13000.00000" pt_clust_6="13000.00000" pt_clust_7="13000.00000" pt_clust_8="13000.00000" pt_clust_9="29.15395"></scales>
<clustering>
<clus scale="   29.154">  1  9  2 -1</clus>
<clus scale="   89.598">  5  6 -1 -1</clus>
<clus scale="   95.271">  7  8 -1 -1</clus>
<clus scale="  133.660">  2  5  1 -1</clus>
<clus scale="  133.660">  2  5  1 -1</clus>
</clustering>
</event>
<event>
 9    1  0.1484717E-005  0.9803597E+02  0.7546771E-02  0.1285627E+00
         -1   -1    0    0    0  501 -0.00000000000E+00  0.00000000000E+00  0.56957420204E+03  0.56957420204E+03  0.00000000000E+00 0.  1.
          1   -1    0    0  502    0  0.00000000000E+00 -0.00000000000E+00 -0.15833430233E+03  0.15833430233E+03  0.00000000000E+00 0. -1.
         23    2    1    2    0    0 -0.43264428479E+02  0.81373193239E+02  0.31714526630E+02  0.13489413545E+03  0.93258829235E+02 0.  0.
         23    2    1    2    0    0  0.62684984884E+01 -0.13585345733E+02 -0.82986120338E+02  0.12409990694E+03  0.91050727847E+02 0.  0.
        -11    1    4    4    0    0  0.71124534226E+01  0.30660248432E+02 -0.71887423532E+02  0.78475725480E+02  0.00000000000E+00 0.  1.
         11    1    4    4    0    0 -0.84395493425E+00 -0.44245594165E+02 -0.11098696806E+02  0.45624181459E+02  0.00000000000E+00 0. -1.
        -13    1    3    3    0    0  0.25692724051E+02  0.20251573377E+02 -0.93314695070E+01  0.34019385893E+02  0.00000000000E+00 0.  1.
         13    1    3    3    0    0 -0.68957152530E+02  0.61121619862E+02  0.41045996137E+02  0.10087474956E+03  0.00000000000E+00 0. -1.
         21    1    1    2  502  501  0.36995929991E+02 -0.67787847506E+02  0.46251149342E+03  0.46891446197E+03  0.00000000000E+00 0.  1.
<scales pt_clust_5="13000.00000" pt_clust_6="13000.00000" pt_clust_7="13000.00000" pt_clust_8="13000.00000" pt_clust_9="77.22623"></scales>
<clustering>
<clus scale="   77.226">  1  9  2 -1</clus>
<clus scale="   91.051">  5  6 -1 -1</clus>
<clus scale="   93.259">  7  8 -1 -1</clus>
<clus scale="   95.938">  2  5  1 -1</clus>
<clus scale="   95.938">  2  5  1 -1</clus>
</clustering>
</event>
<event>
 9    1  0.1484717E-005  0.1117715E+03  0.7546771E-02  0.1258610E+00
         -1   -1    0    0    0  501 -0.00000000000E+00  0.00000000000E+00  0.20956545473E+03  0.20956545473E+03  0.00000000000E+00 0.  1.
          1   -1    0    0  502    0  0.00000000000E+00 -0.00000000000E+00 -0.15198266127E+03  0.15198266127E+03  0.00000000000E+00 0. -1.
         23    2    1    2    0    0  0.42527366271E+00 -0.55016475856E+02  0.68517847931E+02  0.12331079015E+03  0.86509317465E+02 0.  0.
         23    2    1    2    0    0  0.22363260185E+02  0.66397031181E+02 -0.96221918615E+02  0.14922786844E+03  0.90008988113E+02 0.  0.
        -11    1    3    3    0    0  0.17619886742E+02 -0.71863020367E+02  0.34505375564E+02  0.81641748193E+02  0.00000000000E+00 0.  1.
         11    1    3    3    0    0 -0.17194613079E+02  0.16846544511E+02  0.34012472366E+02  0.41669041954E+02  0.00000000000E+00 0. -1.
        -11    1    4    4    0    0 -0.23838832519E+02  0.27313189120E+02 -0.83370032041E+00  0.36262863814E+02  0.00000000000E+00 0.  1.
         11    1    4    4    0    0  0.46202092704E+02  0.39083842061E+02 -0.95388218294E+02  0.11296500462E+03  0.00000000000E+00 0. -1.
         21    1    1    2  502  501 -0.22788533848E+02 -0.11380555325E+02  0.85286864142E+02  0.89009457416E+02  0.00000000000E+00 0.  1.
<scales pt_clust_5="13000.00000" pt_clust_6="13000.00000" pt_clust_7="13000.00000" pt_clust_8="13000.00000" pt_clust_9="25.47223"></scales>
<clustering>
<clus scale="   25.472">  1  9  2 -1</clus>
<clus scale="   86.509">  5  6 -1 -1</clus>
<clus scale="   90.009">  7  8 -1 -1</clus>
<clus scale="  108.973">  1  5  2 -1</clus>
<clus scale="  111.771">  2  5  1 -1</clus>
</clustering>
</event>
<event>
 9    1  0.1484717E-005  0.1282702E+03  0.7546771E-02  0.1230345E+00
          2   -1    0    0  502    0  0.00000000000E+00  0.00000000000E+00  0.60747067466E+03  0.60747067466E+03  0.00000000000E+00 0. -1.
         -2   -1    0    0    0  501 -0.00000000000E+00 -0.00000000000E+00 -0.47718459419E+02  0.47718459419E+02  0.00000000000E+00 0.  1.
         23    2    1    2    0    0 -0.66050656789E+02  0.53032595602E+02  0.12762800117E+03  0.17889435070E+03  0.92407448688E+02 0.  0.
         23    2    1    2    0    0  0.37316813027E+02 -0.10218452623E+03  0.33224781409E+03  0.36133026130E+03  0.91305672482E+02 0.  0.
        -11    1    4    4    0    0  0.26775023167E+02  0.91788082453E+01  0.46110642653E+02  0.54104932790E+02  0.00000000000E+00 0. -1.
         11    1    4    4    0    0  0.10541789861E+02 -0.11136333448E+03  0.28613717144E+03  0.30722532851E+03  0.00000000000E+00 0.  1.
        -11    1    3    3    0    0 -0.18026599583E+02  0.12246211924E+02 -0.12591878630E+02  0.25169096258E+02  0.00000000000E+00 0.  1.
         11    1    3    3    0    0 -0.48024057205E+02  0.40786383678E+02  0.14021987980E+03  0.15372525445E+03  0.00000000000E+00 0. -1.
         21    1    1    2  502  501  0.28733843761E+02  0.49151930633E+02  0.99876399978E+02  0.11496452207E+03  0.00000000000E+00 0. -1.
<scales pt_clust_5="13000.00000" pt_clust_6="13000.00000" pt_clust_7="13000.00000" pt_clust_8="13000.00000" pt_clust_9="56.93458"></scales>
<clustering>
<clus scale="   56.935">  1  9  2 -1</clus>
<clus scale="   91.306">  5  6 -1 -1</clus>
<clus scale="   92.407">  7  8 -1 -1</clus>
<clus scale="  127.479">  1  5  2 -1</clus>
<clus scale="   56.935">  1  5  2 -1</clus>
</clustering>
</event>
<event>
 9    1  0.1484717E-005  0.1098052E+03  0.7546771E-02  0.1261168E+00
          1   -1    0    0  502    0  0.00000000000E+00  0.00000000000E+00  0.61912173336E+02  0.61912173336E+02  0.00000000000E+00 0. -1.
         -1   -1    0    0    0  501 -0.00000000000E+00 -0.00000000000E+00 -0.41666910733E+03  0.41666910733E+03  0.00000000000E+00 0.  1.
         23    2    1    2    0    0 -0.10777607292E+03  0.20406213105E+02 -0.13944800474E+03  0.19897853655E+03  0.90081166469E+02 0.  0.
         23    2    1    2    0    0  0.33798700924E+02  0.41516940221E+01 -0.86335137174E+02  0.12890443155E+03  0.89459531712E+02 0.  0.
        -13    1    4    4    0    0 -0.19589163893E+02 -0.24748275154E+02 -0.46832554499E+02  0.56475664015E+02  0.00000000000E+00 0.  1.
         13    1    4    4    0    0  0.53387864816E+02  0.28899969176E+02 -0.39502582675E+02  0.72428767531E+02  0.00000000000E+00 0. -1.
        -13    1    3    3    0    0 -0.57195441381E+02  0.55099383329E+02 -0.91260085277E+02  0.12097794726E+03  0.00000000000E+00 0.  1.
         13    1    3    3    0    0 -0.50580631537E+02 -0.34693170224E+02 -0.48187919467E+02  0.78000589289E+02  0.00000000000E+00 0. -1.
         21    1    1    2  502  501  0.73977371994E+02 -0.24557907127E+02 -0.12897379208E+03  0.15069831258E+03  0.00000000000E+00 0. -1.
<scales pt_clust_5="13000.00000" pt_clust_6="13000.00000" pt_clust_7="13000.00000" pt_clust_8="13000.00000" pt_clust_9="77.94705"></scales>
<clustering>
<clus scale="   77.947">  2  9  1 -1</clus>
<clus scale="   89.460">  5  6 -1 -1</clus>
<clus scale="   90.081">  7  8 -1 -1</clus>
<clus scale="  109.296">  1  5  2 -1</clus>
<clus scale="  109.296">  1  5  2 -1</clus>
</clustering>
</event>
<event>
 9    1  0.1484717E-005  0.1110350E+03  0.7546771E-02  0.1267320E+00
         -2   -1    0    0    0  501 -0.00000000000E+00  0.00000000000E+00  0.37758471276E+03  0.37758471276E+03  0.00000000000E+00 0. -1.
          2   -1    0    0  502    0  0.00000000000E+00 -0.00000000000E+00 -0.12726520922E+03  0.12726520922E+03  0.00000000000E+00 0.  1.
         23    2    1    2    0    0  0.74833902834E+01 -0.82980157376E+01  0.32168294047E+03  0.33929996463E+03  0.10732983562E+03 0.  0.
         23    2    1    2    0    0  0.14083868341E+02  0.26404877732E+02 -0.91190185420E+02  0.13111008146E+03  0.89323180799E+02 0.  0.
        -11    1    3    3    0    0 -0.27077051391E+02  0.39943500438E+02  0.13157670222E+03  0.14014663216E+03  0.00000000000E+00 0.  1.
         11    1    3    3    0    0  0.34560441674E+02 -0.48241516176E+02  0.19010623826E+03  0.19915333247E+03  0.00000000000E+00 0. -1.
        -13    1    4    4    0    0 -0.14902014089E+02 -0.15801759798E+02  0.48671716131E+01  0.22258818390E+02  0.00000000000E+00 0. -1.
         13    1    4    4    0    0  0.28985882430E+02  0.42206637530E+02 -0.96057357033E+02  0.10885126307E+03  0.00000000000E+00 0.  1.
         21    1    1    2  502  501 -0.21567258624E+02 -0.18106861995E+02  0.19826748486E+02  0.34439875891E+02  0.00000000000E+00 0.  1.
<scales pt_clust_5="13000.00000" pt_clust_6="13000.00000" pt_clust_7="13000.00000" pt_clust_8="13000.00000" pt_clust_9="28.16035"></scales>
<clustering>
<clus scale="   28.160">  1  9  2 -1</clus>
<clus scale="   89.323">  7  8 -1 -1</clus>
<clus scale="   93.743">  2  7  1 -1</clus>
<clus scale="  107.330">  5  6 -1 -1</clus>
<clus scale="   93.743">  2  5  1 -1</clus>
</clustering>
</event>
<event>
 9    1  0.1484717E-005  0.1013138E+03  0.7546771E-02  0.1278402E+00
         -3   -1    0    0    0  501 -0.00000000000E+00  0.00000000000E+00  0.63791009060E+02  0.63791009060E+02  0.00000000000E+00 0.  1.
          3   -1    0    0  502    0  0.00000000000E+00 -0.00000000000E+00 -0.22769035640E+03  0.22769035640E+03  0.00000000000E+00 0. -1.
         23    2    1    2    0    0 -0.24854437194E+02  0.44714031878E+02 -0.91120543745E+02  0.14009327071E+03  0.93306394802E+02 0.  0.
         23    2    1    2    0    0  0.22585333749E+02 -0.19466736622E+02 -0.79838771513E+02  0.12507426008E+03  0.91543923674E+02 0.  0.
        -13    1    3    3    0    0 -0.10719836338E+02  0.69203411551E+02 -0.37410706995E+02  0.79395138764E+02  0.00000000000E+00 0. -1.
         13    1    3    3    0    0 -0.14134600857E+02 -0.24489379673E+02 -0.53709836749E+02  0.60698131946E+02  0.00000000000E+00 0.  1.
        -13    1    4    4    0    0 -0.33441543876E+02  0.71407726656E+01 -0.30466217423E+02  0.45798666957E+02  0.00000000000E+00 0.  1.
         13    1    4    4    0    0  0.56026877625E+02 -0.26607509288E+02 -0.49372554090E+02  0.79275593118E+02  0.00000000000E+00 0. -1.
         21    1    1    2  502  501  0.22691034453E+01 -0.25247295256E+02  0.70599679189E+01  0.26313834673E+02  0.00000000000E+00 0.  1.
<scales pt_clust_5="13000.00000" pt_clust_6="13000.00000" pt_clust_7="13000.00000" pt_clust_8="13000.00000" pt_clust_9="25.34906"></scales>
<clustering>
<clus scale="   25.349">  1  9  2 -1</clus>
<clus scale="   91.544">  7  8 -1 -1</clus>
<clus scale="   93.306">  5  6 -1 -1</clus>
<clus scale="   99.693">  2  7  1 -1</clus>
<clus scale="   99.693">  2  5  1 -1</clus>
</clustering>
</event>
<event>
 9    1  0.1484717E-005  0.1119125E+03  0.7546771E-02  0.1258837E+00
         -2   -1    0    0    0  501 -0.00000000000E+00  0.00000000000E+00  0.53802805911E+02  0.53802805911E+02  0.00000000000E+00 0.  1.
          2   -1    0    0  502    0  0.00000000000E+00 -0.00000000000E+00 -0.40548465432E+03  0.40548465432E+03  0.00000000000E+00 0. -1.
         23    2    1    2    0    0  0.61657649447E+02 -0.13525722092E+01 -0.17208894749E+03  0.20423166303E+03  0.91063006481E+02 0.  0.
         23    2    1    2    0    0 -0.52428755267E+02  0.22834889668E+02 -0.19672602699E+03  0.22606948215E+03  0.95582814875E+02 0.  0.
        -11    1    3    3    0    0  0.25202404518E+02 -0.70921037552E+01  0.20157023197E+01  0.26258754445E+02  0.00000000000E+00 0.  1.
         11    1    3    3    0    0  0.36455244929E+02  0.57395315460E+01 -0.17410464981E+03  0.17797290858E+03  0.00000000000E+00 0. -1.
        -11    1    4    4    0    0 -0.77356766807E+02  0.29528854823E+02 -0.12590974287E+03  0.15069600521E+03  0.00000000000E+00 0.  1.
         11    1    4    4    0    0  0.24928011540E+02 -0.66939651546E+01 -0.70816284123E+02  0.75373476939E+02  0.00000000000E+00 0. -1.
         21    1    1    2  502  501 -0.92288941797E+01 -0.21482317459E+02  0.17133126071E+02  0.28986315049E+02  0.00000000000E+00 0. -1.
<scales pt_clust_5="13000.00000" pt_clust_6="13000.00000" pt_clust_7="13000.00000" pt_clust_8="13000.00000" pt_clust_9="23.38081"></scales>
<clustering>
<clus scale="   23.381">  1  9  2 -1</clus>
<clus scale="   91.063">  5  6 -1 -1</clus>
<clus scale="   95.583">  7  8 -1 -1</clus>
<clus scale="  108.078">  1  5  2 -1</clus>
<clus scale="  111.912">  2  5  1 -1</clus>
</clustering>
</event>
<event>
 9    1  0.1484717E-005  0.3551110E+03  0.7546771E-02  0.1060563E+00
          1   -1    0    0  502    0  0.00000000000E+00  0.00000000000E+00  0.92016640804E+03  0.92016640804E+03  0.00000000000E+00 0. -1.
         -1   -1    0    0    0  501 -0.00000000000E+00 -0.00000000000E+00 -0.21671630985E+03  0.21671630985E+03  0.00000000000E+00 0.  1.
         23    2    1    2    0    0 -0.31727718639E+03  0.79647358972E+02  0.13642616548E+03  0.36548713613E+03  0.89220139287E+02 0.  0.
         23    2    1    2    0    0  0.38852474451E+03  0.19700152313E+02  0.45722162786E+03  0.60707063330E+03  0.90241696196E+02 0.  0.
        -11    1    4    4    0    0  0.10119158494E+03  0.41580623509E+02  0.10108742769E+03  0.14895419816E+03  0.00000000000E+00 0. -1.
         11    1    4    4    0    0  0.28733315957E+03 -0.21880471196E+02  0.35613420017E+03  0.45811643513E+03  0.00000000000E+00 0.  1.
        -13    1    3    3    0    0 -0.32128705209E+02  0.35888151013E+02  0.48513055313E+01  0.48412273722E+02  0.00000000000E+00 0.  1.
         13    1    3    3    0    0 -0.28514848118E+03  0.43759207959E+02  0.13157485994E+03  0.31707486240E+03  0.00000000000E+00 0. -1.
         21    1    1    2  502  501 -0.71247558127E+02 -0.99347511285E+02  0.10980230486E+03  0.16432494847E+03  0.00000000000E+00 0. -1.
<scales pt_clust_5="13000.00000" pt_clust_6="13000.00000" pt_clust_7="13000.00000" pt_clust_8="13000.00000" pt_clust_9="122.25442"></scales>
<clustering>
<clus scale="   89.220">  7  8 -1 -1</clus>
<clus scale="   90.242">  5  6 -1 -1</clus>
<clus scale="  122.254">  1  9  2 -1</clus>
<clus scale="  354.853">  2  7  1 -1</clus>
<clus scale="  122.254">  1  5  2 -1</clus>
</clustering>
</event>
<event>
 9    1  0.1484717E-005  0.1073201E+03  0.7546771E-02  0.1265694E+00
          1   -1    0    0  502    0  0.00000000000E+00  0.00000000000E+00  0.10410351348E+03  0.10410351348E+03  0.00000000000E+00 0. -1.
         -1   -1    0    0    0  501 -0.00000000000E+00 -0.00000000000E+00 -0.19816112800E+03  0.19816112800E+03  0.00000000000E+00 0.  1.
         23    2    1    2    0    0  0.54475924172E+02 -0.48846318430E+02 -0.10938024573E+02  0.11784161450E+03  0.91724678187E+02 0.  0.
         23    2    1    2    0    0 -0.45508627385E+02 -0.30037785358E+00 -0.20981195434E+02  0.10469229112E+03  0.91919202920E+02 0.  0.
        -13    1    3    3    0    0  0.20210691003E+02 -0.70554620920E+02 -0.20430163492E+02  0.76182794280E+02  0.00000000000E+00 0. -1.
         13    1    3    3    0    0  0.34265233169E+02  0.21708302490E+02  0.94921389187E+01  0.41658820223E+02  0.00000000000E+00 0.  1.
        -13    1    4    4    0    0 -0.15935319483E+02 -0.22531710369E+02  0.30605157023E+02  0.41210290166E+02  0.00000000000E+00 0. -1.
         13    1    4    4    0    0 -0.29573307902E+02  0.22231332516E+02 -0.51586352457E+02  0.63482000957E+02  0.00000000000E+00 0.  1.
         21    1    1    2  502  501 -0.89672967865E+01  0.49146696284E+02 -0.62138394512E+02  0.79730735854E+02  0.00000000000E+00 0.  1.
<scales pt_clust_5="13000.00000" pt_clust_6="13000.00000" pt_clust_7="13000.00000" pt_clust_8="13000.00000" pt_clust_9="49.95808"></scales>
<clustering>
<clus scale="   49.958">  2  9  1 -1</clus>
<clus scale="   91.725">  5  6 -1 -1</clus>
<clus scale="   91.919">  7  8 -1 -1</clus>
<clus scale="  107.154">  2  5  1 -1</clus>
<clus scale="  107.320">  1  5  2 -1</clus>
</clustering>
</event>
<event>
 9    1  0.1484717E-005  0.1358676E+03  0.7546771E-02  0.1220157E+00
         -1   -1    0    0    0  501 -0.00000000000E+00  0.00000000000E+00  0.13435941734E+03  0.13435941734E+03  0.00000000000E+00 0.  1.
          1   -1    0    0  502    0  0.00000000000E+00 -0.00000000000E+00 -0.27474957934E+03  0.27474957934E+03  0.00000000000E+00 0. -1.
         23    2    1    2    0    0 -0.77892021427E+02 -0.52135461649E+02  0.28339045885E+02  0.13734976405E+03  0.96315018553E+02 0.  0.
         23    2    1    2    0    0  0.48069336548E+02  0.10462882112E+03 -0.14584538001E+03  0.20719442102E+03  0.91655888552E+02 0.  0.
        -13    1    4    4    0    0 -0.18449015671E+02  0.29928301668E+02 -0.66393310098E+01  0.35779185796E+02  0.00000000000E+00 0.  1.
         13    1    4    4    0    0  0.66518352219E+02  0.74700519448E+02 -0.13920604900E+03  0.17141523522E+03  0.00000000000E+00 0. -1.
        -13    1    3    3    0    0 -0.74134684352E+02 -0.10102547468E+02  0.49926626506E+02  0.89948212453E+02  0.00000000000E+00 0.  1.
         13    1    3    3    0    0 -0.37573370747E+01 -0.42032914181E+02 -0.21587580621E+02  0.47401551594E+02  0.00000000000E+00 0. -1.
         21    1    1    2  502  501  0.29822684879E+02 -0.52493359467E+02 -0.22883827871E+02  0.64564811620E+02  0.00000000000E+00 0.  1.
<scales pt_clust_5="13000.00000" pt_clust_6="13000.00000" pt_clust_7="13000.00000" pt_clust_8="13000.00000" pt_clust_9="60.37338"></scales>
<clustering>
<clus scale="   60.373">  2  9  1 -1</clus>
<clus scale="   91.656">  5  6 -1 -1</clus>
<clus scale="   96.315">  7  8 -1 -1</clus>
<clus scale="  132.606">  2  5  1 -1</clus>
<clus scale="   60.373">  2  5  1 -1</clus>
</clustering>
</event>
<event>
 9    1  0.1484717E-005  0.9864993E+02  0.7546771E-02  0.1285390E+00
         -1   -1    0    0    0  501 -0.00000000000E+00  0.00000000000E+00  0.29426832823E+02  0.29426832823E+02  0.00000000000E+00 0.  1.
          1   -1    0    0  502    0  0.00000000000E+00 -0.00000000000E+00 -0.55536696985E+03  0.55536696985E+03  0.00000000000E+00 0. -1.
         23    2    1    2    0    0 -0.11962096895E+02  0.18241295255E+02 -0.13787901492E+03  0.16879159775E+03  0.94890168617E+02 0.  0.
         23    2    1    2    0    0 -0.34488666915E+02 -0.19695486587E+02 -0.30706640786E+03  0.32262162950E+03  0.90650739919E+02 0.  0.
        -11    1    3    3    0    0 -0.47765522749E+02  0.17881085963E+02 -0.40780536506E+02  0.65301841907E+02  0.00000000000E+00 0.  1.
         11    1    3    3    0    0  0.35803425854E+02  0.36020929257E+00 -0.97098478418E+02  0.10348975584E+03  0.00000000000E+00 0. -1.
        -11    1    4    4    0    0  0.27108772725E+02  0.26739242078E+01 -0.14964927376E+03  0.15210831853E+03  0.00000000000E+00 0. -1.
         11    1    4    4    0    0 -0.61597439640E+02 -0.22369410795E+02 -0.15741713410E+03  0.17051331097E+03  0.00000000000E+00 0.  1.
         21    1    1    2  502  501  0.46450763810E+02  0.14541913319E+01 -0.80994714246E+02  0.93380575425E+02  0.00000000000E+00 0. -1.
<scales pt_clust_5="13000.00000" pt_clust_6="13000.00000" pt_clust_7="13000.00000" pt_clust_8="13000.00000" pt_clust_9="46.47352"></scales>
<clustering>
<clus scale="   46.474">  1  9  2 -1</clus>
<clus scale="   90.651">  7  8 -1 -1</clus>
<clus scale="   94.579">  2  7  1 -1</clus>
<clus scale="   94.890">  5  6 -1 -1</clus>
<clus scale="   94.579">  2  5  1 -1</clus>
</clustering>
</event>
<event>
 9    1  0.1484717E-005  0.1098108E+03  0.7546771E-02  0.1267170E+00
         -1   -1    0    0    0  501 -0.00000000000E+00  0.00000000000E+00  0.11073789076E+03  0.11073789076E+03  0.00000000000E+00 0.  1.
          1   -1    0    0  502    0  0.00000000000E+00 -0.00000000000E+00 -0.17263791319E+03  0.17263791319E+03  0.00000000000E+00 0. -1.
         23    2    1    2    0    0  0.63471883020E+01  0.72648680194E+01  0.33237678948E+00  0.88829822825E+02  0.88303804233E+02 0.  0.
         23    2    1    2    0    0 -0.34666607884E+02 -0.55923848837E+02 -0.65886725976E+02  0.13812754404E+03  0.10202405202E+03 0.  0.
        -11    1    3    3    0    0 -0.32374745704E+02  0.28491233553E+02  0.84107497911E+01  0.43938767175E+02  0.00000000000E+00 0. -1.
         11    1    3    3    0    0  0.38721934007E+02 -0.21226365534E+02 -0.80783730016E+01  0.44891055650E+02  0.00000000000E+00 0.  1.
        -13    1    4    4    0    0  0.34708126590E+01 -0.31099203533E+02  0.22617330201E+02  0.38610239915E+02  0.00000000000E+00 0.  1.
         13    1    4    4    0    0 -0.38137420543E+02 -0.24824645304E+02 -0.88504056177E+02  0.99517304123E+02  0.00000000000E+00 0. -1.
         21    1    1    2  502  501  0.28319419582E+02  0.48658980818E+02  0.36543267608E+01  0.56418437091E+02  0.00000000000E+00 0.  1.
<scales pt_clust_5="13000.00000" pt_clust_6="13000.00000" pt_clust_7="13000.00000" pt_clust_8="13000.00000" pt_clust_9="56.29996"></scales>
<clustering>
<clus scale="   56.300">  1  9  2 -1</clus>
<clus scale="   88.304">  5  6 -1 -1</clus>
<clus scale="   97.196">  1  5  2 -1</clus>
<clus scale="  102.024">  7  8 -1 -1</clus>
<clus scale="  109.811">  2  5  1 -1</clus>
</clustering>
</event>
<event>
 9    1  0.1484717E-005  0.1102388E+03  0.7546771E-02  0.1260828E+00
          3   -1    0    0  502    0  0.00000000000E+00  0.00000000000E+00  0.41318035805E+02  0.41318035805E+02  0.00000000000E+00 0. -1.
         -3   -1    0    0    0  501 -0.00000000000E+00 -0.00000000000E+00 -0.36830250139E+03  0.36830250139E+03  0.00000000000E+00 0.  1.
         23    2    1    2    0    0  0.68914753153E+02  0.27566797619E+02 -0.15309017958E+03  0.19328535511E+03  0.91724881495E+02 0.  0.
         23    2    1    2    0    0 -0.46319997678E+02 -0.19524883977E+02 -0.12579830337E+03  0.16259116943E+03  0.89910577613E+02 0.  0.
        -11    1    4    4    0    0  0.15831133433E+02  0.17101891042E+02 -0.62188624880E+02  0.66411780035E+02  0.00000000000E+00 0.  1.
         11    1    4    4    0    0 -0.62151131111E+02 -0.36626775018E+02 -0.63609678485E+02  0.96179389391E+02  0.00000000000E+00 0. -1.
        -13    1    3    3    0    0  0.73670411632E+01  0.37279329954E+02 -0.13340138319E+02  0.40273825590E+02  0.00000000000E+00 0.  1.
         13    1    3    3    0    0  0.61547711989E+02 -0.97125323349E+01 -0.13975004126E+03  0.15301152952E+03  0.00000000000E+00 0. -1.
         21    1    1    2  502  501 -0.22594755475E+02 -0.80419136419E+01 -0.48095982645E+02  0.53744012658E+02  0.00000000000E+00 0. -1.
<scales pt_clust_5="13000.00000" pt_clust_6="13000.00000" pt_clust_7="13000.00000" pt_clust_8="13000.00000" pt_clust_9="23.98323"></scales>
<clustering>
<clus scale="   23.983">  2  9  1 -1</clus>
<clus scale="   89.911">  5  6 -1 -1</clus>
<clus scale="   91.725">  7  8 -1 -1</clus>
<clus scale="  108.734">  1  5  2 -1</clus>
<clus scale="  108.734">  1  5  2 -1</clus>
</clustering>
</event>
<event>
 9    1  0.1484717E-005  0.1056310E+03  0.7546771E-02  0.1270539E+00
          1   -1    0    0  502    0  0.00000000000E+00  0.00000000000E+00  0.24354093960E+03  0.24354093960E+03  0.00000000000E+00 0. -1.
         -1   -1    0    0    0  501 -0.00000000000E+00 -0.00000000000E+00 -0.99875135727E+02  0.99875135727E+02  0.00000000000E+00 0.  1.
         23    2    1    2    0    0 -0.29997189887E+02  0.51370684374E+02 -0.14982217288E+02  0.11089950920E+03  0.92387529952E+02 0.  0.
         23    2    1    2    0    0  0.53059805256E+02 -0.80017857340E+01  0.15056900021E+03  0.18273688980E+03  0.88557188071E+02 0.  0.
        -13    1    4    4    0    0 -0.15287228607E+02 -0.20220021716E+02  0.79240378775E+02  0.83196071212E+02  0.00000000000E+00 0.  1.
         13    1    4    4    0    0  0.68347033863E+02  0.12218235982E+02  0.71328621435E+02  0.99540818583E+02  0.00000000000E+00 0. -1.
        -13    1    3    3    0    0 -0.60063490755E+02  0.50088976151E+02 -0.19150076368E+02  0.80518655469E+02  0.00000000000E+00 0.  1.
         13    1    3    3    0    0  0.30066300868E+02  0.12817082233E+01  0.41678590805E+01  0.30380853727E+02  0.00000000000E+00 0. -1.
         21    1    1    2  502  501 -0.23062615368E+02 -0.43368898640E+02  0.80790209536E+01  0.49779676340E+02  0.00000000000E+00 0.  1.
<scales pt_clust_5="13000.00000" pt_clust_6="13000.00000" pt_clust_7="13000.00000" pt_clust_8="13000.00000" pt_clust_9="49.11971"></scales>
<clustering>
<clus scale="   49.120">  2  9  1 -1</clus>
<clus scale="   88.557">  5  6 -1 -1</clus>
<clus scale="   92.388">  7  8 -1 -1</clus>
<clus scale="  102.298">  1  5  2 -1</clus>
<clus scale="  102.298">  1  5  2 -1</clus>
</clustering>
</event>
<event>
 9    1  0.1484717E-005  0.1021197E+03  0.7546771E-02  0.1279429E+00
         -2   -1    0    0    0  501 -0.00000000000E+00  0.00000000000E+00  0.39597921593E+02  0.39597921593E+02  0.00000000000E+00 0.  1.
          2   -1    0    0  502    0  0.00000000000E+00 -0.00000000000E+00 -0.51390536587E+03  0.51390536587E+03  0.00000000000E+00 0. -1.
         23    2    1    2    0    0 -0.23482264160E+02  0.30208813278E+02 -0.11481220544E+03  0.15360858270E+03  0.94603197795E+02 0.  0.
         23    2    1    2    0    0 -0.23233509375E+02  0.20744514763E+02 -0.21390602253E+03  0.23872763293E+03  0.10131616554E+03 0.  0.
        -13    1    3    3    0    0 -0.53148042282E+02  0.40372231077E+02 -0.96381475734E+02  0.11723489372E+03  0.00000000000E+00 0.  1.
         13    1    3    3    0    0  0.29665778122E+02 -0.10163417799E+02 -0.18430729702E+02  0.36373688984E+02  0.00000000000E+00 0. -1.
        -13    1    4    4    0    0  0.29225645860E+02 -0.17859069877E+02 -0.38034962773E+02  0.51183426478E+02  0.00000000000E+00 0. -1.
         13    1    4    4    0    0 -0.52459155236E+02  0.38603584641E+02 -0.17587105975E+03  0.18754420645E+03  0.00000000000E+00 0.  1.
         21    1    1    2  502  501  0.46715773536E+02 -0.50953328041E+02 -0.14558921631E+03  0.16116707183E+03  0.00000000000E+00 0. -1.
<scales pt_clust_5="13000.00000" pt_clust_6="13000.00000" pt_clust_7="13000.00000" pt_clust_8="13000.00000" pt_clust_9="69.12746"></scales>
<clustering>
<clus scale="   69.127">  2  9  1 -1</clus>
<clus scale="   94.603">  5  6 -1 -1</clus>
<clus scale="   95.463">  1  5  2 -1</clus>
<clus scale="  101.316">  7  8 -1 -1</clus>
<clus scale="   69.127">  2  5  1 -1</clus>
</clustering>
</event>
<event>
 9    1  0.1484717E-005  0.1217226E+03  0.7546771E-02  0.1242306E+00
          2   -1    0    0  502    0  0.00000000000E+00  0.00000000000E+00  0.31338257227E+03  0.31338257227E+03  0.00000000000E+00 0. -1.
         -2   -1    0    0    0  501 -0.00000000000E+00 -0.00000000000E+00 -0.16539958042E+03  0.16539958042E+03  0.00000000000E+00 0.  1.
         23    2    1    2    0    0  0.18581263030E+02  0.11065707801E+03  0.16007510492E+03  0.21741607620E+03  0.95160174038E+02 0.  0.
         23    2    1    2    0    0 -0.60196060487E+01 -0.47638760480E+02  0.93596753017E+02  0.13767597993E+03  0.88817994328E+02 0.  0.
        -11    1    3    3    0    0  0.49116184991E+02  0.10518904786E+03  0.12749613918E+03  0.17243085838E+03  0.00000000000E+00 0. -1.
         11    1    3    3    0    0 -0.30534921961E+02  0.54680301583E+01  0.32578965747E+02  0.44985217818E+02  0.00000000000E+00 0.  1.
        -11    1    4    4    0    0  0.28185009870E+02 -0.28482644806E+02  0.89744206355E+02  0.98283662991E+02  0.00000000000E+00 0. -1.
         11    1    4    4    0    0 -0.34204615918E+02 -0.19156115674E+02  0.38525466618E+01  0.39392316937E+02  0.00000000000E+00 0.  1.
         21    1    1    2  502  501 -0.12561656981E+02 -0.63018317534E+02 -0.10568886610E+03  0.12369009656E+03  0.00000000000E+00 0. -1.
<scales pt_clust_5="13000.00000" pt_clust_6="13000.00000" pt_clust_7="13000.00000" pt_clust_8="13000.00000" pt_clust_9="64.25810"></scales>
<clustering>
<clus scale="   64.258">  2  9  1 -1</clus>
<clus scale="   88.818">  7  8 -1 -1</clus>
<clus scale="   95.160">  5  6 -1 -1</clus>
<clus scale="  116.831">  1  7  2 -1</clus>
<clus scale="  116.831">  1  5  2 -1</clus>
</clustering>
</event>
<event>
 9    1  0.1484717E-005  0.1545406E+03  0.7546771E-02  0.1195041E+00
          2   -1    0    0  502    0  0.00000000000E+00  0.00000000000E+00  0.28246298967E+03  0.28246298967E+03  0.00000000000E+00 0. -1.
         -2   -1    0    0    0  501 -0.00000000000E+00 -0.00000000000E+00 -0.22386700226E+03  0.22386700226E+03  0.00000000000E+00 0.  1.
         23    2    1    2    0    0  0.11186763525E+02  0.12263540957E+03 -0.15611716931E+03  0.21899958045E+03  0.91780489911E+02 0.  0.
         23    2    1    2    0    0  0.93383809674E+01 -0.13435058398E+03  0.20491996933E+03  0.26174851578E+03  0.91557669839E+02 0.  0.
        -13    1    4    4    0    0  0.26853149660E+02 -0.11862057700E+03  0.11011614077E+03  0.16406552774E+03  0.00000000000E+00 0. -1.
         13    1    4    4    0    0 -0.17514768693E+02 -0.15730006980E+02  0.94803828562E+02  0.97682988037E+02  0.00000000000E+00 0.  1.
        -13    1    3    3    0    0 -0.15943389404E+02  0.58947009765E+02 -0.13243372776E+03  0.14583426852E+03  0.00000000000E+00 0.  1.
         13    1    3    3    0    0  0.27130152929E+02  0.63688399800E+02 -0.23683441550E+02  0.73165311936E+02  0.00000000000E+00 0. -1.
         21    1    1    2  502  501 -0.20525144493E+02  0.11715174419E+02  0.97931873871E+01  0.25581895694E+02  0.00000000000E+00 0.  1.
<scales pt_clust_5="13000.00000" pt_clust_6="13000.00000" pt_clust_7="13000.00000" pt_clust_8="13000.00000" pt_clust_9="23.63317"></scales>
<clustering>
<clus scale="   23.633">  1  9  2 -1</clus>
<clus scale="   91.558">  5  6 -1 -1</clus>
<clus scale="   91.780">  7  8 -1 -1</clus>
<clus scale="  154.408">  1  5  2 -1</clus>
<clus scale="   23.633">  1  5  2 -1</clus>
</clustering>
</event>
<event>
 9    1  0.1484717E-005  0.1392334E+03  0.7546771E-02  0.1214728E+00
         -1   -1    0    0    0  501 -0.00000000000E+00  0.00000000000E+00  0.54394450511E+02  0.54394450511E+02  0.00000000000E+00 0.  1.
          1   -1    0    0  502    0  0.00000000000E+00 -0.00000000000E+00 -0.58240415736E+03  0.58240415736E+03  0.00000000000E+00 0. -1.
         23    2    1    2    0    0  0.51436235670E+02 -0.69334355815E+02 -0.76912045553E+02  0.14701875626E+03  0.90808109239E+02 0.  0.
         23    2    1    2    0    0 -0.68032886938E+02  0.86344884191E+02 -0.44128579021E+03  0.46406838096E+03  0.92425109371E+02 0.  0.
        -11    1    3    3    0    0  0.38786727592E+02 -0.29601080701E+01  0.67476456837E+01  0.39480415390E+02  0.00000000000E+00 0.  1.
         11    1    3    3    0    0  0.12649508078E+02 -0.66374247745E+02 -0.83659691237E+02  0.10753834087E+03  0.00000000000E+00 0. -1.
        -11    1    4    4    0    0 -0.20668365062E+01  0.76883273585E+02 -0.24345277221E+03  0.25531267471E+03  0.00000000000E+00 0.  1.
         11    1    4    4    0    0 -0.65966050432E+02  0.94616106057E+01 -0.19783301800E+03  0.20875570626E+03  0.00000000000E+00 0. -1.
         21    1    1    2  502  501  0.16596651268E+02 -0.17010528376E+02 -0.98118710943E+01  0.25711470656E+02  0.00000000000E+00 0. -1.
<scales pt_clust_5="13000.00000" pt_clust_6="13000.00000" pt_clust_7="13000.00000" pt_clust_8="13000.00000" pt_clust_9="23.76567"></scales>
<clustering>
<clus scale="   23.766">  1  9  2 -1</clus>
<clus scale="   90.808">  5  6 -1 -1</clus>
<clus scale="   92.425">  7  8 -1 -1</clus>
<clus scale="  138.165">  1  5  2 -1</clus>
<clus scale="  139.233">  2  5  1 -1</clus>
</clustering>
</event>
<event>
 9    1  0.1484717E-005  0.1046143E+03  0.7546771E-02  0.1271466E+00
          1   -1    0    0  502    0  0.00000000000E+00  0.00000000000E+00  0.20300469676E+03  0.20300469676E+03  0.00000000000E+00 0. -1.
         -1   -1    0    0    0  501 -0.00000000000E+00 -0.00000000000E+00 -0.84517273378E+02  0.84517273378E+02  0.00000000000E+00 0.  1.
         23    2    1    2    0    0  0.43831909828E+02  0.49059025881E+02  0.73295578044E+02  0.13395161892E+03  0.90789702671E+02 0.  0.
         23    2    1    2    0    0 -0.40359285033E+01 -0.43397648335E+02  0.52842714823E+02  0.11265205300E+03  0.89434266004E+02 0.  0.
        -11    1    3    3    0    0  0.37459733792E+02  0.18810525897E+02  0.89660177263E+02  0.98974819662E+02  0.00000000000E+00 0. -1.
         11    1    3    3    0    0  0.63721760368E+01  0.30248499985E+02 -0.16364599219E+02  0.34976799259E+02  0.00000000000E+00 0.  1.
        -13    1    4    4    0    0 -0.29414203955E+02  0.16486134612E+02  0.11697157320E+02  0.35690496188E+02  0.00000000000E+00 0.  1.
         13    1    4    4    0    0  0.25378275452E+02 -0.59883782947E+02  0.41145557503E+02  0.76961556814E+02  0.00000000000E+00 0. -1.
         21    1    1    2  502  501 -0.39795981325E+02 -0.56613775463E+01 -0.76508694819E+01  0.40918298219E+02  0.00000000000E+00 0.  1.
<scales pt_clust_5="13000.00000" pt_clust_6="13000.00000" pt_clust_7="13000.00000" pt_clust_8="13000.00000" pt_clust_9="40.19666"></scales>
<clustering>
<clus scale="   40.197">  2  9  1 -1</clus>
<clus scale="   89.434">  7  8 -1 -1</clus>
<clus scale="   90.790">  5  6 -1 -1</clus>
<clus scale="  103.440">  1  7  2 -1</clus>
<clus scale="  103.440">  1  5  2 -1</clus>
</clustering>
</event>
<event>
 9    1  0.1484717E-005  0.1423961E+03  0.7546771E-02  0.1211874E+00
          3   -1    0    0  502    0  0.00000000000E+00  0.00000000000E+00  0.20203070814E+03  0.20203070814E+03  0.00000000000E+00 0. -1.
         -3   -1    0    0    0  501 -0.00000000000E+00 -0.00000000000E+00 -0.19945305888E+03  0.19945305888E+03  0.00000000000E+00 0.  1.
         23    2    1    2    0    0 -0.52375203416E+02 -0.79292000485E+02 -0.26644951971E+02  0.13654986658E+03  0.94369112122E+02 0.  0.
         23    2    1    2    0    0  0.44400407659E+02  0.10281315897E+03  0.11079675904E+03  0.17966265390E+03  0.86375954620E+02 0.  0.
        -11    1    3    3    0    0 -0.20641919991E+02 -0.86794479648E+02  0.72586055943E+01  0.89510099505E+02  0.00000000000E+00 0. -1.
         11    1    3    3    0    0 -0.31733283425E+02  0.75024791631E+01 -0.33903557565E+02  0.47039767071E+02  0.00000000000E+00 0.  1.
        -11    1    4    4    0    0  0.47130372966E+02  0.18759958862E+02  0.69306707397E+02  0.85887297097E+02  0.00000000000E+00 0. -1.
         11    1    4    4    0    0 -0.27299653067E+01  0.84053200107E+02  0.41490051640E+02  0.93775356805E+02  0.00000000000E+00 0.  1.
         21    1    1    2  502  501  0.79747957561E+01 -0.23521158485E+02 -0.81574157813E+02  0.85271246541E+02  0.00000000000E+00 0.  1.
<scales pt_clust_5="13000.00000" pt_clust_6="13000.00000" pt_clust_7="13000.00000" pt_clust_8="13000.00000" pt_clust_9="24.83631"></scales>
<clustering>
<clus scale="   24.836">  2  9  1 -1</clus>
<clus scale="   86.376">  7  8 -1 -1</clus>
<clus scale="   94.369">  5  6 -1 -1</clus>
<clus scale="  137.229">  1  7  2 -1</clus>
<clus scale="  137.229">  1  5  2 -1</clus>
</clustering>
</event>
<event>
 9    1  0.1484717E-005  0.1477626E+03  0.7546771E-02  0.1203551E+00
          1   -1    0    0  502    0  0.00000000000E+00  0.00000000000E+00  0.44109937656E+03  0.44109937656E+03  0.00000000000E+00 0. -1.
         -1   -1    0    0    0  501 -0.00000000000E+00 -0.00000000000E+00 -0.11975436652E+03  0.11975436652E+03  0.00000000000E+00 0.  1.
         23    2    1    2    0    0 -0.75882842136E+02 -0.18713739455E+02  0.37680175072E+02  0.12490569307E+03  0.89851136847E+02 0.  0.
         23    2    1    2    0    0  0.13157474929E+03 -0.60417877770E+02  0.29321250430E+03  0.33871349156E+03  0.88266766566E+02 0.  0.
        -11    1    4    4    0    0  0.67487949277E+02 -0.47247513257E+02  0.76804407801E+02  0.11263155803E+03  0.00000000000E+00 0.  1.
         11    1    4    4    0    0  0.64086800016E+02 -0.13170364513E+02  0.21640809650E+03  0.22608193353E+03  0.00000000000E+00 0. -1.
        -13    1    3    3    0    0 -0.22887370849E+02 -0.47695147567E+02 -0.14744076635E+01  0.52922894136E+02  0.00000000000E+00 0. -1.
         13    1    3    3    0    0 -0.52995471287E+02  0.28981408112E+02  0.39154582736E+02  0.71982798933E+02  0.00000000000E+00 0.  1.
         21    1    1    2  502  501 -0.55691907157E+02  0.79131617225E+02 -0.95476693306E+01  0.97234558451E+02  0.00000000000E+00 0. -1.
<scales pt_clust_5="13000.00000" pt_clust_6="13000.00000" pt_clust_7="13000.00000" pt_clust_8="13000.00000" pt_clust_9="96.76467"></scales>
<clustering>
<clus scale="   88.267">  5  6 -1 -1</clus>
<clus scale="   89.851">  7  8 -1 -1</clus>
<clus scale="   96.765">  2  9  1 -1</clus>
<clus scale="  146.805">  1  5  2 -1</clus>
<clus scale="  146.805">  1  5  2 -1</clus>
</clustering>
</event>
<event>
 9    1  0.1484717E-005  0.9262060E+02  0.7546771E-02  0.1296635E+00
          2   -1    0    0  502    0  0.00000000000E+00  0.00000000000E+00  0.18341355631E+03  0.18341355631E+03  0.00000000000E+00 0. -1.
         -2   -1    0    0    0  501 -0.00000000000E+00 -0.00000000000E+00 -0.14014580824E+03  0.14014580824E+03  0.00000000000E+00 0.  1.
         23    2    1    2    0    0 -0.99493375357E+01 -0.13526219134E+02 -0.56891965330E+02  0.10830499204E+03  0.90616376341E+02 0.  0.
         23    2    1    2    0    0  0.19650808013E+02 -0.89377846412E+01  0.14019798559E+03  0.16833088974E+03  0.90629879327E+02 0.  0.
        -11    1    4    4    0    0 -0.14344778681E+02 -0.41656221445E+02  0.50780181561E+02  0.67228270094E+02  0.00000000000E+00 0. -1.
         11    1    4    4    0    0  0.33995586695E+02  0.32718436804E+02  0.89417804027E+02  0.10110261964E+03  0.00000000000E+00 0.  1.
        -11    1    3    3    0    0  0.30379319706E+02 -0.41911084868E+01  0.76704459454E+01  0.31611773078E+02  0.00000000000E+00 0. -1.
         11    1    3    3    0    0 -0.40328657242E+02 -0.93351106477E+01 -0.64562411276E+02  0.76693218967E+02  0.00000000000E+00 0.  1.
         21    1    1    2  502  501 -0.97014704773E+01  0.22464003776E+02 -0.40038272188E+02  0.46923482765E+02  0.00000000000E+00 0.  1.
<scales pt_clust_5="13000.00000" pt_clust_6="13000.00000" pt_clust_7="13000.00000" pt_clust_8="13000.00000" pt_clust_9="24.46937"></scales>
<clustering>
<clus scale="   24.469">  2  9  1 -1</clus>
<clus scale="   90.616">  7  8 -1 -1</clus>
<clus scale="   90.630">  5  6 -1 -1</clus>
<clus scale="   92.607">  2  7  1 -1</clus>
<clus scale="   92.621">  1  5  2 -1</clus>
</clustering>
</event>
<event>
 9    1  0.1484717E-005  0.1778777E+03  0.7546771E-02  0.1169912E+00
         -3   -1    0    0    0  501 -0.00000000000E+00  0.00000000000E+00  0.73194185698E+02  0.73194185698E+02  0.00000000000E+00 0.  1.
          3   -1    0    0  502    0  0.00000000000E+00 -0.00000000000E+00 -0.68771166035E+03  0.68771166035E+03  0.00000000000E+00 0. -1.
         23    2    1    2    0    0 -0.12213358769E+03 -0.72198767236E+02 -0.20435488960E+03  0.26532060800E+03  0.92221629197E+02 0.  0.
         23    2    1    2    0    0  0.12959862303E+03  0.91365680657E+02 -0.42973807284E+03  0.46718986791E+03  0.91913387126E+02 0.  0.
        -11    1    3    3    0    0 -0.12932499214E+03 -0.41429758850E+02 -0.17970479788E+03  0.22524473999E+03  0.00000000000E+00 0.  1.
         11    1    3    3    0    0  0.71914044496E+01 -0.30769008385E+02 -0.24650091724E+02  0.40075868013E+02  0.00000000000E+00 0. -1.
        -11    1    4    4    0    0  0.11157888550E+03  0.50799641538E+02 -0.21133208976E+03  0.24431885608E+03  0.00000000000E+00 0.  1.
         11    1    4    4    0    0  0.18019737523E+02  0.40566039119E+02 -0.21840598308E+03  0.22287101183E+03  0.00000000000E+00 0. -1.
         21    1    1    2  502  501 -0.74650353312E+01 -0.19166913421E+02  0.19575487798E+02  0.28395370135E+02  0.00000000000E+00 0.  1.
<scales pt_clust_5="13000.00000" pt_clust_6="13000.00000" pt_clust_7="13000.00000" pt_clust_8="13000.00000" pt_clust_9="20.56933"></scales>
<clustering>
<clus scale="   20.569">  1  9  2 -1</clus>
<clus scale="   91.913">  7  8 -1 -1</clus>
<clus scale="   92.222">  5  6 -1 -1</clus>
<clus scale="  177.718">  2  7  1 -1</clus>
<clus scale="  177.718">  2  5  1 -1</clus>
</clustering>
</event>
<event>
 9    1  0.1484717E-005  0.1402638E+03  0.7546771E-02  0.1214225E+00
         -1   -1    0    0    0  501 -0.00000000000E+00  0.00000000000E+00  0.95891424820E+03  0.95891424820E+03  0.00000000000E+00 0.  1.
          1   -1    0    0  502    0  0.00000000000E+00 -0.00000000000E+00 -0.63471377218E+02  0.63471377218E+02  0.00000000000E+00 0. -1.
         23    2    1    2    0    0  0.90689143278E+02  0.54537691907E+02  0.52741024763E+03  0.54630714362E+03  0.95346973329E+02 0.  0.
         23    2    1    2    0    0 -0.58823742796E+02 -0.85450511482E+02  0.37083165931E+02  0.14216449657E+03  0.89852992494E+02 0.  0.
        -11    1    4    4    0    0 -0.10928448947E+02 -0.71546462165E+02 -0.10619553794E+02  0.73151228065E+02  0.00000000000E+00 0. -1.
         11    1    4    4    0    0 -0.47895293849E+02 -0.13904049318E+02  0.47702719726E+02  0.69013268504E+02  0.00000000000E+00 0.  1.
        -13    1    3    3    0    0  0.72090027125E+02 -0.12237478029E+02  0.26861157226E+03  0.27838625080E+03  0.00000000000E+00 0. -1.
         13    1    3    3    0    0  0.18599116153E+02  0.66775169936E+02  0.25879867536E+03  0.26792089283E+03  0.00000000000E+00 0.  1.
         21    1    1    2  502  501 -0.31865400482E+02  0.30912819576E+02  0.33094945742E+03  0.33391398522E+03  0.00000000000E+00 0.  1.
<scales pt_clust_5="13000.00000" pt_clust_6="13000.00000" pt_clust_7="13000.00000" pt_clust_8="13000.00000" pt_clust_9="44.39602"></scales>
<clustering>
<clus scale="   44.396">  1  9  2 -1</clus>
<clus scale="   89.853">  5  6 -1 -1</clus>
<clus scale="   95.347">  7  8 -1 -1</clus>
<clus scale="  136.589">  2  5  1 -1</clus>
<clus scale="  136.589">  2  5  1 -1</clus>
</clustering>
</event>
<event>
 9    1  0.1484717E-005  0.9995988E+02  0.7546771E-02  0.1282545E+00
         -2   -1    0    0    0  501 -0.00000000000E+00  0.00000000000E+00  0.60020250210E+02  0.60020250210E+02  0.00000000000E+00 0.  1.
          2   -1    0    0  502    0  0.00000000000E+00 -0.00000000000E+00 -0.33128902420E+03  0.33128902420E+03  0.00000000000E+00 0. -1.
         23    2    1    2    0    0 -0.43060036128E+02 -0.19393899158E+02 -0.37133889762E+02  0.10912569201E+03  0.91099949788E+02 0.  0.
         23    2    1    2    0    0  0.23233645930E+02  0.10337754598E+02 -0.24010352003E+03  0.25958437631E+03  0.95329306199E+02 0.  0.
        -11    1    4    4    0    0 -0.49204340320E+01  0.34479956380E+02 -0.29215927508E+02  0.45460405665E+02  0.00000000000E+00 0.  1.
         11    1    4    4    0    0  0.28154079962E+02 -0.24142201782E+02 -0.21088759253E+03  0.21412397065E+03  0.00000000000E+00 0. -1.
        -13    1    3    3    0    0 -0.43582536815E+02  0.29333470813E+02 -0.10435749146E+02  0.53561132227E+02  0.00000000000E+00 0.  1.
         13    1    3    3    0    0  0.52250068679E+00 -0.48727369971E+02 -0.26698140617E+02  0.55564559781E+02  0.00000000000E+00 0. -1.
         21    1    1    2  502  501  0.19826390198E+02  0.90561445605E+01  0.59686358033E+01  0.22599206091E+02  0.00000000000E+00 0.  1.
<scales pt_clust_5="13000.00000" pt_clust_6="13000.00000" pt_clust_7="13000.00000" pt_clust_8="13000.00000" pt_clust_9="21.79678"></scales>
<clustering>
<clus scale="   21.797">  1  9  2 -1</clus>
<clus scale="   91.100">  7  8 -1 -1</clus>
<clus scale="   95.329">  5  6 -1 -1</clus>
<clus scale="   95.935">  1  7  2 -1</clus>
<clus scale="   99.960">  2  5  1 -1</clus>
</clustering>
</event>
<event>
 9    1  0.1484717E-005  0.1305993E+03  0.7546771E-02  0.1227816E+00
          2   -1    0    0  502    0  0.00000000000E+00  0.00000000000E+00  0.41066571134E+03  0.41066571134E+03  0.00000000000E+00 0. -1.
         -2   -1    0    0    0  501 -0.00000000000E+00 -0.00000000000E+00 -0.55831622489E+02  0.55831622489E+02  0.00000000000E+00 0.  1.
         23    2    1    2    0    0 -0.51781046835E+02 -0.54686200929E+02  0.94307557360E+02  0.14981418088E+03  0.88761005145E+02 0.  0.
         23    2    1    2    0    0  0.77859448943E+02  0.65168054198E+02  0.25199169017E+03  0.28730976668E+03  0.93477917377E+02 0.  0.
        -11    1    3    3    0    0 -0.55547263414E+02  0.56689113893E+01  0.42209949808E+02  0.69995106200E+02  0.00000000000E+00 0. -1.
         11    1    3    3    0    0  0.37662165787E+01 -0.60355112319E+02  0.52097607552E+02  0.79819074681E+02  0.00000000000E+00 0.  1.
        -11    1    4    4    0    0  0.71259207185E+02  0.43514592575E+02  0.25114099563E+03  0.26465674762E+03  0.00000000000E+00 0. -1.
         11    1    4    4    0    0  0.66002417585E+01  0.21653461623E+02  0.85069454678E+00  0.22653019064E+02  0.00000000000E+00 0.  1.
         21    1    1    2  502  501 -0.26078402108E+02 -0.10481853269E+02  0.85348413180E+01  0.29373386267E+02  0.00000000000E+00 0.  1.
<scales pt_clust_5="13000.00000" pt_clust_6="13000.00000" pt_clust_7="13000.00000" pt_clust_8="13000.00000" pt_clust_9="28.10609"></scales>
<clustering>
<clus scale="   28.106">  2  9  1 -1</clus>
<clus scale="   88.761">  5  6 -1 -1</clus>
<clus scale="   93.478">  7  8 -1 -1</clus>
<clus scale="  127.266">  2  5  1 -1</clus>
<clus scale="  130.599">  1  5  2 -1</clus>
</clustering>
</event>
<event>
 9    1  0.1484717E-005  0.1013365E+03  0.7546771E-02  0.1278137E+00
         -2   -1    0    0    0  501 -0.00000000000E+00  0.00000000000E+00  0.71666016643E+02  0.71666016643E+02  0.00000000000E+00 0.  1.
          2   -1    0    0  502    0  0.00000000000E+00 -0.00000000000E+00 -0.29974632593E+03  0.29974632593E+03  0.00000000000E+00 0. -1.
         23    2    1    2    0    0  0.42435992624E+02  0.27044934603E+02 -0.10578042299E+03  0.14973692513E+03  0.93270611137E+02 0.  0.
         23    2    1    2    0    0 -0.34837661648E+01 -0.39591827780E+02 -0.14394964727E+03  0.17537841296E+03  0.91958889340E+02 0.  0.
        -11    1    3    3    0    0  0.65446025599E+02  0.39512993649E+02 -0.93649555232E+02  0.12089126573E+03  0.00000000000E+00 0.  1.
         11    1    3    3    0    0 -0.23010032975E+02 -0.12468059046E+02 -0.12130867761E+02  0.28845659405E+02  0.00000000000E+00 0. -1.
        -11    1    4    4    0    0 -0.98047276009E+01  0.28514192705E+02 -0.30388514182E+02  0.42809504355E+02  0.00000000000E+00 0.  1.
         11    1    4    4    0    0  0.63209614361E+01 -0.68106020485E+02 -0.11356113309E+03  0.13256890860E+03  0.00000000000E+00 0. -1.
         21    1    1    2  502  501 -0.38952226460E+02  0.12546893177E+02  0.21649760971E+02  0.46297004489E+02  0.00000000000E+00 0.  1.
<scales pt_clust_5="13000.00000" pt_clust_6="13000.00000" pt_clust_7="13000.00000" pt_clust_8="13000.00000" pt_clust_9="40.92310"></scales>
<clustering>
<clus scale="   40.923">  1  9  2 -1</clus>
<clus scale="   91.959">  7  8 -1 -1</clus>
<clus scale="   93.271">  5  6 -1 -1</clus>
<clus scale="  100.131">  2  7  1 -1</clus>
<clus scale="  100.131">  2  5  1 -1</clus>
</clustering>
</event>
<event>
 9    1  0.1484717E-005  0.1073598E+03  0.7546771E-02  0.1265599E+00
         -2   -1    0    0    0  501 -0.00000000000E+00  0.00000000000E+00  0.36570259341E+02  0.36570259341E+02  0.00000000000E+00 0.  1.
          2   -1    0    0  502    0  0.00000000000E+00 -0.00000000000E+00 -0.65818136425E+03  0.65818136425E+03  0.00000000000E+00 0. -1.
         23    2    1    2    0    0  0.40373912539E+02  0.64868549637E+02 -0.22269315204E+03  0.25045458485E+03  0.85424104088E+02 0.  0.
         23    2    1    2    0    0 -0.74667334915E+02  0.52704702554E+01 -0.27814084633E+03  0.30048246927E+03  0.85582680377E+02 0.  0.
        -11    1    4    4    0    0 -0.63462086336E+02 -0.33892805149E+02 -0.19619671113E+03  0.20897202708E+03  0.00000000000E+00 0. -1.
         11    1    4    4    0    0 -0.11205248578E+02  0.39163275404E+02 -0.81944135201E+02  0.91510442191E+02  0.00000000000E+00 0.  1.
        -13    1    3    3    0    0  0.12008131737E+02  0.80966817405E+02 -0.15351114611E+03  0.17396980407E+03  0.00000000000E+00 0.  1.
         13    1    3    3    0    0  0.28365780803E+02 -0.16098267768E+02 -0.69182005933E+02  0.76484780778E+02  0.00000000000E+00 0. -1.
         21    1    1    2  502  501  0.34293422375E+02 -0.70139019893E+02 -0.12077710654E+03  0.14381456947E+03  0.00000000000E+00 0. -1.
<scales pt_clust_5="13000.00000" pt_clust_6="13000.00000" pt_clust_7="13000.00000" pt_clust_8="13000.00000" pt_clust_9="78.07382"></scales>
<clustering>
<clus scale="   78.074">  1  9  2 -1</clus>
<clus scale="   85.424">  7  8 -1 -1</clus>
<clus scale="   85.583">  5  6 -1 -1</clus>
<clus scale="  107.233">  1  7  2 -1</clus>
<clus scale="  107.360">  2  5  1 -1</clus>
</clustering>
</event>
<event>
 9    1  0.1484717E-005  0.1024785E+03  0.7546771E-02  0.1276937E+00
          1   -1    0    0  502    0  0.00000000000E+00  0.00000000000E+00  0.27717633541E+03  0.27717633541E+03  0.00000000000E+00 0. -1.
         -1   -1    0    0    0  501 -0.00000000000E+00 -0.00000000000E+00 -0.76283925427E+02  0.76283925427E+02  0.00000000000E+00 0.  1.
         23    2    1    2    0    0 -0.87421974698E+01 -0.49984798309E+02  0.16763374140E+02  0.10644894817E+03  0.92062271185E+02 0.  0.
         23    2    1    2    0    0  0.28104637832E+02  0.34896724429E+02  0.19613079792E+03  0.21968739707E+03  0.88247439029E+02 0.  0.
        -13    1    4    4    0    0  0.47129740851E+02 -0.83062494272E+01  0.68120511743E+02  0.83250287521E+02  0.00000000000E+00 0.  1.
         13    1    4    4    0    0 -0.19025103019E+02  0.43202973856E+02  0.12801028618E+03  0.13643710955E+03  0.00000000000E+00 0. -1.
        -13    1    3    3    0    0  0.38662713728E+02 -0.41915922048E+02  0.83665989002E+01  0.57634624411E+02  0.00000000000E+00 0.  1.
         13    1    3    3    0    0 -0.47404911198E+02 -0.80688762618E+01  0.83967752402E+01  0.48814323761E+02  0.00000000000E+00 0. -1.
         21    1    1    2  502  501 -0.19362440362E+02  0.15088073880E+02 -0.12001762081E+02  0.27323915591E+02  0.00000000000E+00 0.  1.
<scales pt_clust_5="13000.00000" pt_clust_6="13000.00000" pt_clust_7="13000.00000" pt_clust_8="13000.00000" pt_clust_9="24.54698"></scales>
<clustering>
<clus scale="   24.547">  2  9  1 -1</clus>
<clus scale="   88.247">  5  6 -1 -1</clus>
<clus scale="   92.062">  7  8 -1 -1</clus>
<clus scale="   99.066">  1  5  2 -1</clus>
<clus scale="   99.066">  1  5  2 -1</clus>
</clustering>
</event>
<event>
 9    1  0.1484717E-005  0.9624144E+02  0.7546771E-02  0.1290907E+00
          3   -1    0    0  502    0  0.00000000000E+00  0.00000000000E+00  0.20055019773E+03  0.20055019773E+03  0.00000000000E+00 0. -1.
         -3   -1    0    0    0  501 -0.00000000000E+00 -0.00000000000E+00 -0.82764966870E+02  0.82764966870E+02  0.00000000000E+00 0.  1.
         23    2    1    2    0    0  0.39037301075E+01 -0.29231162574E+02  0.26503782109E+02  0.10131191104E+03  0.93230643455E+02 0.  0.
         23    2    1    2    0    0 -0.34117618686E+02 -0.93841469771E+01  0.92535688032E+02  0.13295639524E+03  0.88670600289E+02 0.  0.
        -11    1    4    4    0    0  0.29900885099E+02 -0.12251047846E+01  0.38650284895E+02  0.48881574585E+02  0.00000000000E+00 0.  1.
         11    1    4    4    0    0 -0.64018503785E+02 -0.81590421926E+01  0.53885403137E+02  0.84074820652E+02  0.00000000000E+00 0. -1.
        -11    1    3    3    0    0  0.20614776707E+02 -0.17979685194E+02 -0.30430993029E+02  0.40918008689E+02  0.00000000000E+00 0.  1.
         11    1    3    3    0    0 -0.16711046600E+02 -0.11251477380E+02  0.56934775138E+02  0.60393902355E+02  0.00000000000E+00 0. -1.
         21    1    1    2  502  501  0.30213888578E+02  0.38615309551E+02 -0.12542392826E+01  0.49046858318E+02  0.00000000000E+00 0.  1.
<scales pt_clust_5="13000.00000" pt_clust_6="13000.00000" pt_clust_7="13000.00000" pt_clust_8="13000.00000" pt_clust_9="49.03082"></scales>
<clustering>
<clus scale="   49.031">  2  9  1 -1</clus>
<clus scale="   88.671">  5  6 -1 -1</clus>
<clus scale="   91.831">  1  5  2 -1</clus>
<clus scale="   93.231">  7  8 -1 -1</clus>
<clus scale="   91.831">  1  5  2 -1</clus>
</clustering>
</event>
<event>
 9    1  0.1484717E-005  0.1890554E+03  0.7546771E-02  0.1159345E+00
          1   -1    0    0  502    0  0.00000000000E+00  0.00000000000E+00  0.45191122826E+03  0.45191122826E+03  0.00000000000E+00 0. -1.
         -1   -1    0    0    0  501 -0.00000000000E+00 -0.00000000000E+00 -0.28486910365E+03  0.28486910365E+03  0.00000000000E+00 0.  1.
         23    2    1    2    0    0 -0.91361135115E+02  0.13037041667E+03 -0.82107533927E+01  0.18364875632E+03  0.91192909131E+02 0.  0.
         23    2    1    2    0    0  0.11148967476E+03 -0.12501109927E+03  0.33854989344E+03  0.38851141996E+03  0.90925082224E+02 0.  0.
        -11    1    3    3    0    0 -0.28219058254E+02  0.11388905221E+03 -0.13851648831E+02  0.11814778728E+03  0.00000000000E+00 0. -1.
         11    1    3    3    0    0 -0.63142076861E+02  0.16481364453E+02  0.56408954386E+01  0.65500969045E+02  0.00000000000E+00 0.  1.
        -11    1    4    4    0    0  0.22914753356E+02 -0.77856754192E+02  0.94079269702E+02  0.12424841682E+03  0.00000000000E+00 0.  1.
         11    1    4    4    0    0  0.88574921400E+02 -0.47154345081E+02  0.24447062374E+03  0.26426300314E+03  0.00000000000E+00 0. -1.
         21    1    1    2  502  501 -0.20128539641E+02 -0.53593173926E+01 -0.16329701543E+03  0.16462015563E+03  0.00000000000E+00 0. -1.
<scales pt_clust_5="13000.00000" pt_clust_6="13000.00000" pt_clust_7="13000.00000" pt_clust_8="13000.00000" pt_clust_9="20.82980"></scales>
<clustering>
<clus scale="   20.830">  2  9  1 -1</clus>
<clus scale="   90.925">  7  8 -1 -1</clus>
<clus scale="   91.193">  5  6 -1 -1</clus>
<clus scale="  188.926">  1  7  2 -1</clus>
<clus scale="  188.926">  1  5  2 -1</clus>
</clustering>
</event>
<event>
 9    1  0.1484717E-005  0.1571235E+03  0.7546771E-02  0.1193587E+00
         -2   -1    0    0    0  501 -0.00000000000E+00  0.00000000000E+00  0.48142855336E+02  0.48142855336E+02  0.00000000000E+00 0.  1.
          2   -1    0    0  502    0  0.00000000000E+00 -0.00000000000E+00 -0.71629621917E+03  0.71629621917E+03  0.00000000000E+00 0. -1.
         23    2    1    2    0    0  0.30983575407E+02 -0.11568489073E+03 -0.13973605806E+03  0.20038842897E+03  0.79286699106E+02 0.  0.
         23    2    1    2    0    0 -0.56944673481E+02  0.12113599386E+03 -0.49967466199E+03  0.52493756958E+03  0.89263986471E+02 0.  0.
        -13    1    4    4    0    0 -0.62887169607E+02  0.35382099900E+02 -0.18045536451E+03  0.19434718335E+03  0.00000000000E+00 0.  1.
         13    1    4    4    0    0  0.59424961255E+01  0.85753893960E+02 -0.31921929747E+03  0.33059038623E+03  0.00000000000E+00 0. -1.
        -13    1    3    3    0    0 -0.22971070545E+02 -0.27519501620E+02 -0.16269847742E+02  0.39366241844E+02  0.00000000000E+00 0. -1.
         13    1    3    3    0    0  0.53954645952E+02 -0.88165389107E+02 -0.12346621032E+03  0.16102218713E+03  0.00000000000E+00 0.  1.
         21    1    1    2  502  501  0.25961098075E+02 -0.54511031337E+01 -0.28742643780E+02  0.39113075948E+02  0.00000000000E+00 0.  1.
<scales pt_clust_5="13000.00000" pt_clust_6="13000.00000" pt_clust_7="13000.00000" pt_clust_8="13000.00000" pt_clust_9="26.52722"></scales>
<clustering>
<clus scale="   26.527">  1  9  2 -1</clus>
<clus scale="   79.287">  7  8 -1 -1</clus>
<clus scale="   89.264">  5  6 -1 -1</clus>
<clus scale="  151.678">  1  7  2 -1</clus>
<clus scale="  157.124">  2  5  1 -1</clus>
</clustering>
</event>
<event>
 9    1  0.1484717E-005  0.2005544E+03  0.7546771E-02  0.1151836E+00
         -1   -1    0    0    0  501 -0.00000000000E+00  0.00000000000E+00  0.91351640004E+02  0.91351640004E+02  0.00000000000E+00 0.  1.
          1   -1    0    0  502    0  0.00000000000E+00 -0.00000000000E+00 -0.76351483952E+03  0.76351483952E+03  0.00000000000E+00 0. -1.
         23    2    1    2    0    0  0.23585739954E+02  0.13321634521E+03 -0.72474897122E+02  0.18648528458E+03  0.10593049085E+03 0.  0.
         23    2    1    2    0    0 -0.11258429156E+02 -0.18015604739E+03 -0.58511322591E+03  0.61770841047E+03  0.81383288132E+02 0.  0.
        -11    1    4    4    0    0 -0.25511205808E+02 -0.22284807849E+02 -0.56861825800E+02  0.66186868153E+02  0.00000000000E+00 0. -1.
         11    1    4    4    0    0  0.14252776652E+02 -0.15787123954E+03 -0.52825140011E+03  0.55152154231E+03  0.00000000000E+00 0.  1.
        -13    1    3    3    0    0  0.19282019184E+02  0.11013688303E+03 -0.16003482705E+01  0.11182347867E+03  0.00000000000E+00 0.  1.
         13    1    3    3    0    0  0.43037207697E+01  0.23079462184E+02 -0.70874548852E+02  0.74661805912E+02  0.00000000000E+00 0. -1.
         21    1    1    2  502  501 -0.12327310798E+02  0.46939702182E+02 -0.14575076486E+02  0.50672784481E+02  0.00000000000E+00 0. -1.
<scales pt_clust_5="13000.00000" pt_clust_6="13000.00000" pt_clust_7="13000.00000" pt_clust_8="13000.00000" pt_clust_9="48.53141"></scales>
<clustering>
<clus scale="   48.531">  1  9  2 -1</clus>
<clus scale="   81.383">  5  6 -1 -1</clus>
<clus scale="  105.930">  7  8 -1 -1</clus>
<clus scale="  188.743">  2  5  1 -1</clus>
<clus scale="  188.743">  2  5  1 -1</clus>
</clustering>
</event>
<event>
 9    1  0.1484717E-005  0.1121429E+03  0.7546771E-02  0.1257759E+00
         -1   -1    0    0    0  501 -0.00000000000E+00  0.00000000000E+00  0.35294894151E+03  0.35294894151E+03  0.00000000000E+00 0.  1.
          1   -1    0    0  502    0  0.00000000000E+00 -0.00000000000E+00 -0.14964724229E+03  0.14964724229E+03  0.00000000000E+00 0. -1.
         23    2    1    2    0    0  0.71150857882E+02 -0.91465762365E+02  0.17506473097E+03  0.22766696769E+03  0.88069051806E+02 0.  0.
         23    2    1    2    0    0 -0.60734377461E+02  0.11352920503E+02 -0.82722312516E+02  0.13767568252E+03  0.91071725357E+02 0.  0.
        -13    1    4    4    0    0  0.78220439839E+01 -0.20430709376E+02 -0.51425207908E+02  0.55885152465E+02  0.00000000000E+00 0.  1.
         13    1    4    4    0    0 -0.68556421444E+02  0.31783629879E+02 -0.31297104608E+02  0.81790530053E+02  0.00000000000E+00 0. -1.
        -13    1    3    3    0    0  0.77554945856E+02 -0.33402116104E+02  0.81456464762E+02  0.11732700729E+03  0.00000000000E+00 0. -1.
         13    1    3    3    0    0 -0.64040879745E+01 -0.58063646262E+02  0.93608266211E+02  0.11033996041E+03  0.00000000000E+00 0.  1.
         21    1    1    2  502  501 -0.10416480421E+02  0.80112841862E+02  0.11095928076E+03  0.13725353359E+03  0.00000000000E+00 0. -1.
<scales pt_clust_5="13000.00000" pt_clust_6="13000.00000" pt_clust_7="13000.00000" pt_clust_8="13000.00000" pt_clust_9="80.78719"></scales>
<clustering>
<clus scale="   80.787">  1  9  2 -1</clus>
<clus scale="   88.069">  7  8 -1 -1</clus>
<clus scale="   91.072">  5  6 -1 -1</clus>
<clus scale="  109.718">  1  7  2 -1</clus>
<clus scale="  112.143">  2  5  1 -1</clus>
</clustering>
</event>
<event>
 9    1  0.1484717E-005  0.1302219E+03  0.7546771E-02  0.1232448E+00
          1   -1    0    0  502    0  0.00000000000E+00  0.00000000000E+00  0.43952717148E+03  0.43952717148E+03  0.00000000000E+00 0. -1.
         -1   -1    0    0    0  501 -0.00000000000E+00 -0.00000000000E+00 -0.49217575708E+02  0.49217575708E+02  0.00000000000E+00 0.  1.
         23    2    1    2    0    0 -0.47655038113E+01 -0.54752253982E+02  0.16601117217E+03  0.20534415144E+03  0.10763824555E+03 0.  0.
         23    2    1    2    0    0 -0.17978709469E+02  0.89646694296E+02  0.14604772399E+03  0.19475470925E+03  0.90772767386E+02 0.  0.
        -11    1    3    3    0    0 -0.31130040083E+02  0.15868139859E+02  0.97160495219E+02  0.10325230791E+03  0.00000000000E+00 0. -1.
         11    1    3    3    0    0  0.26364536271E+02 -0.70620393841E+02  0.68850676947E+02  0.10209184353E+03  0.00000000000E+00 0.  1.
        -11    1    4    4    0    0 -0.59675748433E+01  0.37638134214E+02 -0.12037326983E+01  0.38127287722E+02  0.00000000000E+00 0.  1.
         11    1    4    4    0    0 -0.12011134625E+02  0.52008560082E+02  0.14725145669E+03  0.15662742153E+03  0.00000000000E+00 0. -1.
         21    1    1    2  502  501  0.22744213280E+02 -0.34894440314E+02  0.78250699616E+02  0.88645886497E+02  0.00000000000E+00 0.  1.
<scales pt_clust_5="13000.00000" pt_clust_6="13000.00000" pt_clust_7="13000.00000" pt_clust_8="13000.00000" pt_clust_9="41.65239"></scales>
<clustering>
<clus scale="   41.652">  1  9  2 -1</clus>
<clus scale="   90.773">  7  8 -1 -1</clus>
<clus scale="  107.638">  5  6 -1 -1</clus>
<clus scale="  116.668">  1  7  2 -1</clus>
<clus scale="   41.652">  1  5  2 -1</clus>
</clustering>
</event>
<event>
 9    1  0.1484717E-005  0.1010816E+03  0.7546771E-02  0.1278375E+00
         -1   -1    0    0    0  501 -0.00000000000E+00  0.00000000000E+00  0.20393603910E+03  0.20393603910E+03  0.00000000000E+00 0.  1.
          1   -1    0    0  502    0  0.00000000000E+00 -0.00000000000E+00 -0.17936935880E+03  0.17936935880E+03  0.00000000000E+00 0. -1.
         23    2    1    2    0    0  0.45582531246E+02 -0.37034105309E+02  0.96738849530E+02  0.14538908404E+03  0.91270414911E+02 0.  0.
         23    2    1    2    0    0 -0.15035569069E+02  0.37552472138E+02 -0.13485978122E+03  0.16818022350E+03  0.91984620913E+02 0.  0.
        -13    1    3    3    0    0  0.69677619212E+02 -0.32953353038E+02  0.92801275250E+02  0.12063569448E+03  0.00000000000E+00 0.  1.
         13    1    3    3    0    0 -0.24095087966E+02 -0.40807522712E+01  0.39375742802E+01  0.24753389554E+02  0.00000000000E+00 0. -1.
        -13    1    4    4    0    0 -0.53368369034E+02  0.15695017397E+02 -0.85150115204E+02  0.10171066072E+03  0.00000000000E+00 0. -1.
         13    1    4    4    0    0  0.38332799965E+02  0.21857454741E+02 -0.49709666020E+02  0.66469562784E+02  0.00000000000E+00 0.  1.
         21    1    1    2  502  501 -0.30546962177E+02 -0.51836682917E+00  0.62687611987E+02  0.69736090362E+02  0.00000000000E+00 0. -1.
<scales pt_clust_5="13000.00000" pt_clust_6="13000.00000" pt_clust_7="13000.00000" pt_clust_8="13000.00000" pt_clust_9="30.55136"></scales>
<clustering>
<clus scale="   30.551">  1  9  2 -1</clus>
<clus scale="   91.270">  5  6 -1 -1</clus>
<clus scale="   91.985">  7  8 -1 -1</clus>
<clus scale="  100.432">  1  5  2 -1</clus>
<clus scale="  101.082">  2  5  1 -1</clus>
</clustering>
</event>
<event>
 9    1  0.1484717E-005  0.1400250E+03  0.7546771E-02  0.1231005E+00
         -2   -1    0    0    0  501 -0.00000000000E+00  0.00000000000E+00  0.42770171718E+02  0.42770171718E+02  0.00000000000E+00 0.  1.
          2   -1    0    0  502    0  0.00000000000E+00 -0.00000000000E+00 -0.91381076468E+03  0.91381076468E+03  0.00000000000E+00 0. -1.
         23    2    1    2    0    0  0.22612691131E+02 -0.11108915376E+03 -0.49012864493E+03  0.51126604376E+03  0.91185223777E+02 0.  0.
         23    2    1    2    0    0  0.18604742619E+02  0.14428637554E+02 -0.29226206040E+03  0.30783422194E+03  0.93757528866E+02 0.  0.
        -11    1    3    3    0    0  0.32707500886E+02 -0.22987030493E+01 -0.72276666329E+02  0.79366120893E+02  0.00000000000E+00 0.  1.
         11    1    3    3    0    0 -0.10094809755E+02 -0.10879045071E+03 -0.41785197860E+03  0.43189992287E+03  0.00000000000E+00 0. -1.
        -13    1    4    4    0    0 -0.20674610992E+02 -0.29458669210E+02 -0.83568141994E+02  0.90988389851E+02  0.00000000000E+00 0. -1.
         13    1    4    4    0    0  0.39279353611E+02  0.43887306765E+02 -0.20869391841E+03  0.21684583209E+03  0.00000000000E+00 0.  1.
         21    1    1    2  502  501 -0.41217433750E+02  0.96660516206E+02 -0.88649887623E+02  0.13748067069E+03  0.00000000000E+00 0.  1.
<scales pt_clust_5="13000.00000" pt_clust_6="13000.00000" pt_clust_7="13000.00000" pt_clust_8="13000.00000" pt_clust_9="106.26505"></scales>
<clustering>
<clus scale="   91.185">  5  6 -1 -1</clus>
<clus scale="   93.758">  7  8 -1 -1</clus>
<clus scale="   96.668">  2  7  1 -1</clus>
<clus scale="  106.265">  1  9  2 -1</clus>
<clus scale="   96.668">  2  5  1 -1</clus>
</clustering>
</event>
<event>
 9    1  0.1484717E-005  0.9419024E+02  0.7546771E-02  0.1293266E+00
         -1   -1    0    0    0  501 -0.00000000000E+00  0.00000000000E+00  0.87531627464E+03  0.87531627464E+03  0.00000000000E+00 0.  1.
          1   -1    0    0  502    0  0.00000000000E+00 -0.00000000000E+00 -0.15743219637E+02  0.15743219637E+02  0.00000000000E+00 0. -1.
         23    2    1    2    0    0  0.23956465852E+02 -0.17750167039E+02  0.36489500815E+03  0.37727208336E+03  0.91087195724E+02 0.  0.
         23    2    1    2    0    0  0.15565988976E+02  0.29060023627E+02  0.31311764586E+03  0.32763124932E+03  0.90624447009E+02 0.  0.
        -11    1    3    3    0    0  0.40944292697E+02  0.26121632884E+02  0.19838734861E+03  0.20424572186E+03  0.00000000000E+00 0.  1.
         11    1    3    3    0    0 -0.16987826845E+02 -0.43871799923E+02  0.16650765954E+03  0.17302636150E+03  0.00000000000E+00 0. -1.
        -13    1    4    4    0    0 -0.22071305620E+02 -0.23160078999E+02  0.98090501434E+02  0.10317595777E+03  0.00000000000E+00 0. -1.
         13    1    4    4    0    0  0.37637294596E+02  0.52220102626E+02  0.21502714442E+03  0.22445529154E+03  0.00000000000E+00 0.  1.
         21    1    1    2  502  501 -0.39522454828E+02 -0.11309856588E+02  0.18156040100E+03  0.18615616160E+03  0.00000000000E+00 0.  1.
<scales pt_clust_5="13000.00000" pt_clust_6="13000.00000" pt_clust_7="13000.00000" pt_clust_8="13000.00000" pt_clust_9="41.10885"></scales>
<clustering>
<clus scale="   41.109">  1  9  2 -1</clus>
<clus scale="   90.624">  7  8 -1 -1</clus>
<clus scale="   91.087">  5  6 -1 -1</clus>
<clus scale="   93.743">  2  7  1 -1</clus>
<clus scale="   93.743">  2  5  1 -1</clus>
</clustering>
</event>
<event>
 9    1  0.1484717E-005  0.2510162E+03  0.7546771E-02  0.1112827E+00
         -1   -1    0    0    0  501 -0.00000000000E+00  0.00000000000E+00  0.12085103114E+04  0.12085103114E+04  0.00000000000E+00 0.  1.
          1   -1    0    0  502    0  0.00000000000E+00 -0.00000000000E+00 -0.62361328258E+02  0.62361328258E+02  0.00000000000E+00 0. -1.
         23    2    1    2    0    0 -0.13846765009E+03 -0.19736967418E+03  0.55169318810E+03  0.60912944100E+03  0.92440379104E+02 0.  0.
         23    2    1    2    0    0  0.11369957738E+03  0.19728368650E+03  0.42436462389E+03  0.48985714601E+03  0.89589299768E+02 0.  0.
        -11    1    4    4    0    0  0.61270011476E+02  0.17893934594E+03  0.32974007952E+03  0.38013395517E+03  0.00000000000E+00 0. -1.
         11    1    4    4    0    0  0.52429565901E+02  0.18344340567E+02  0.94624544367E+02  0.10972319084E+03  0.00000000000E+00 0.  1.
        -13    1    3    3    0    0 -0.11887088391E+03 -0.17133551982E+03  0.37161290868E+03  0.42612474851E+03  0.00000000000E+00 0.  1.
         13    1    3    3    0    0 -0.19596766177E+02 -0.26034154361E+02  0.18008027942E+03  0.18300469249E+03  0.00000000000E+00 0. -1.
         21    1    1    2  502  501  0.24768072710E+02  0.85987677045E-01  0.17009117113E+03  0.17188505263E+03  0.00000000000E+00 0. -1.
<scales pt_clust_5="13000.00000" pt_clust_6="13000.00000" pt_clust_7="13000.00000" pt_clust_8="13000.00000" pt_clust_9="24.76822"></scales>
<clustering>
<clus scale="   24.768">  1  9  2 -1</clus>
<clus scale="   89.589">  5  6 -1 -1</clus>
<clus scale="   92.440">  7  8 -1 -1</clus>
<clus scale="  249.980">  2  5  1 -1</clus>
<clus scale="  249.980">  2  5  1 -1</clus>
</clustering>
</event>
<event>
 9    1  0.1484717E-005  0.1220268E+03  0.7546771E-02  0.1241179E+00
          3   -1    0    0  502    0  0.00000000000E+00  0.00000000000E+00  0.70499547896E+02  0.70499547896E+02  0.00000000000E+00 0. -1.
         -3   -1    0    0    0  501 -0.00000000000E+00 -0.00000000000E+00 -0.34706226005E+03  0.34706226005E+03  0.00000000000E+00 0.  1.
         23    2    1    2    0    0  0.47473992056E+01 -0.64836903564E+02 -0.18861316769E+03  0.22218238018E+03  0.97794279875E+02 0.  0.
         23    2    1    2    0    0 -0.39528582564E+02  0.67035295003E+02 -0.26180419340E+02  0.12445701622E+03  0.93530181828E+02 0.  0.
        -13    1    4    4    0    0 -0.63168734810E+02  0.44684186600E+02 -0.42263114833E+02  0.88165392672E+02  0.00000000000E+00 0. -1.
         13    1    4    4    0    0  0.23640152246E+02  0.22351108404E+02  0.16082695493E+02  0.36291623544E+02  0.00000000000E+00 0.  1.
        -13    1    3    3    0    0  0.46370424190E+02 -0.23140543527E+02 -0.12583357248E+03  0.13608743130E+03  0.00000000000E+00 0.  1.
         13    1    3    3    0    0 -0.41623024984E+02 -0.41696360037E+02 -0.62779595203E+02  0.86094948882E+02  0.00000000000E+00 0. -1.
         21    1    1    2  502  501  0.34781183358E+02 -0.21983914393E+01 -0.61769125129E+02  0.70922411549E+02  0.00000000000E+00 0.  1.
<scales pt_clust_5="13000.00000" pt_clust_6="13000.00000" pt_clust_7="13000.00000" pt_clust_8="13000.00000" pt_clust_9="34.85059"></scales>
<clustering>
<clus scale="   34.851">  2  9  1 -1</clus>
<clus scale="   93.530">  5  6 -1 -1</clus>
<clus scale="   97.794">  7  8 -1 -1</clus>
<clus scale="  118.637">  1  5  2 -1</clus>
<clus scale="  118.637">  1  5  2 -1</clus>
</clustering>
</event>
<event>
 9    1  0.1484717E-005  0.1144099E+03  0.7546771E-02  0.1257869E+00
          2   -1    0    0  502    0  0.00000000000E+00  0.00000000000E+00  0.20563732998E+03  0.20563732998E+03  0.00000000000E+00 0. -1.
         -2   -1    0    0    0  501 -0.00000000000E+00 -0.00000000000E+00 -0.97861536511E+02  0.97861536511E+02  0.00000000000E+00 0.  1.
         23    2    1    2    0    0 -0.31834539045E+01  0.51044410050E+02 -0.14672891208E+02  0.11722833466E+03  0.10445823345E+03 0.  0.
         23    2    1    2    0    0 -0.17544192010E+02 -0.43082105256E+02  0.12706757512E+03  0.16359085476E+03  0.91934393184E+02 0.  0.
        -11    1    4    4    0    0 -0.20745372175E+02  0.14786185783E+02  0.17681946116E+01  0.25536802245E+02  0.00000000000E+00 0.  1.
         11    1    4    4    0    0  0.32011801649E+01 -0.57868291040E+02  0.12529938050E+03  0.13805405252E+03  0.00000000000E+00 0. -1.
        -13    1    3    3    0    0  0.33107333055E+02  0.59847087286E+02  0.14410638338E+02  0.69895892983E+02  0.00000000000E+00 0.  1.
         13    1    3    3    0    0 -0.36290786959E+02 -0.88026772360E+01 -0.29083529546E+02  0.47332441681E+02  0.00000000000E+00 0. -1.
         21    1    1    2  502  501  0.20727645915E+02 -0.79623047936E+01 -0.46188904377E+01  0.22679677063E+02  0.00000000000E+00 0. -1.
<scales pt_clust_5="13000.00000" pt_clust_6="13000.00000" pt_clust_7="13000.00000" pt_clust_8="13000.00000" pt_clust_9="22.20436"></scales>
<clustering>
<clus scale="   22.204">  2  9  1 -1</clus>
<clus scale="   91.934">  5  6 -1 -1</clus>
<clus scale="  103.102">  1  5  2 -1</clus>
<clus scale="  104.458">  7  8 -1 -1</clus>
<clus scale="  103.102">  1  5  2 -1</clus>
</clustering>
</event>
<event>
 9    1  0.1484717E-005  0.1611846E+03  0.7546771E-02  0.1205040E+00
         -1   -1    0    0    0  501 -0.00000000000E+00  0.00000000000E+00  0.11255386660E+03  0.11255386660E+03  0.00000000000E+00 0.  1.
          1   -1    0    0  502    0  0.00000000000E+00 -0.00000000000E+00 -0.39675368179E+03  0.39675368179E+03  0.00000000000E+00 0. -1.
         23    2    1    2    0    0 -0.15465627215E+02  0.15264460609E+03 -0.11515824053E+03  0.21240678044E+03  0.91190233144E+02 0.  0.
         23    2    1    2    0    0 -0.41479599617E+02 -0.41397592374E+02 -0.12047962489E+03  0.16282273140E+03  0.92528827985E+02 0.  0.
        -11    1    4    4    0    0 -0.67633805089E+02 -0.11721256534E+02 -0.88224844037E+02  0.11178256819E+03  0.00000000000E+00 0.  1.
         11    1    4    4    0    0  0.26154205472E+02 -0.29676335840E+02 -0.32254780851E+02  0.51040163210E+02  0.00000000000E+00 0. -1.
        -13    1    3    3    0    0 -0.46655438861E+02  0.13439626237E+03 -0.94361398802E+02  0.17071367520E+03  0.00000000000E+00 0.  1.
         13    1    3    3    0    0  0.31189811646E+02  0.18248343718E+02 -0.20796841731E+02  0.41693105244E+02  0.00000000000E+00 0. -1.
         21    1    1    2  502  501  0.56945226832E+02 -0.11124701372E+03 -0.48561949766E+02  0.13407803655E+03  0.00000000000E+00 0. -1.
<scales pt_clust_5="13000.00000" pt_clust_6="13000.00000" pt_clust_7="13000.00000" pt_clust_8="13000.00000" pt_clust_9="132.90910"></scales>
<clustering>
<clus scale="   91.190">  7  8 -1 -1</clus>
<clus scale="   92.529">  5  6 -1 -1</clus>
<clus scale="  109.526">  2  5  1 -1</clus>
<clus scale="  132.909">  1  9  2 -1</clus>
<clus scale="  109.526">  2  5  1 -1</clus>
</clustering>
</event>
<event>
 9    1  0.1484717E-005  0.1475073E+03  0.7546771E-02  0.1204093E+00
          1   -1    0    0  502    0  0.00000000000E+00  0.00000000000E+00  0.25958240946E+03  0.25958240946E+03  0.00000000000E+00 0. -1.
         -1   -1    0    0    0  501 -0.00000000000E+00 -0.00000000000E+00 -0.15262946033E+03  0.15262946033E+03  0.00000000000E+00 0.  1.
         23    2    1    2    0    0  0.10367523100E+03 -0.49903840231E+02  0.34258151018E+02  0.15115877452E+03  0.91849917872E+02 0.  0.
         23    2    1    2    0    0 -0.73914652106E+02  0.95034365972E+02  0.11784957902E+03  0.19061581360E+03  0.89168147947E+02 0.  0.
        -11    1    4    4    0    0 -0.31750193736E+02  0.97561609713E+02  0.59567815669E+02  0.11863670240E+03  0.00000000000E+00 0.  1.
         11    1    4    4    0    0 -0.42164458369E+02 -0.25272437412E+01  0.58281763350E+02  0.71979111204E+02  0.00000000000E+00 0. -1.
        -13    1    3    3    0    0  0.14274312755E+02 -0.54931632468E+02  0.21595563183E+02  0.60725683194E+02  0.00000000000E+00 0. -1.
         13    1    3    3    0    0  0.89400918240E+02  0.50277922370E+01  0.12662587835E+02  0.90433091331E+02  0.00000000000E+00 0.  1.
         21    1    1    2  502  501 -0.29760578890E+02 -0.45130525741E+02 -0.45154780912E+02  0.70437281668E+02  0.00000000000E+00 0. -1.
<scales pt_clust_5="13000.00000" pt_clust_6="13000.00000" pt_clust_7="13000.00000" pt_clust_8="13000.00000" pt_clust_9="54.05975"></scales>
<clustering>
<clus scale="   54.060">  2  9  1 -1</clus>
<clus scale="   89.168">  5  6 -1 -1</clus>
<clus scale="   91.850">  7  8 -1 -1</clus>
<clus scale="  145.853">  1  5  2 -1</clus>
<clus scale="  145.853">  1  5  2 -1</clus>
</clustering>
</event>
<event>
 9    1  0.1484717E-005  0.9814198E+02  0.7546771E-02  0.1285407E+00
         -1   -1    0    0    0  501 -0.00000000000E+00  0.00000000000E+00  0.62652260221E+02  0.62652260221E+02  0.00000000000E+00 0.  1.
          1   -1    0    0  502    0  0.00000000000E+00 -0.00000000000E+00 -0.25832742907E+03  0.25832742907E+03  0.00000000000E+00 0. -1.
         23    2    1    2    0    0 -0.33760931756E+02 -0.46542873750E+02 -0.81989085982E+02  0.13512085194E+03  0.90716011808E+02 0.  0.
         23    2    1    2    0    0  0.94423884929E+01  0.10438758822E+02 -0.10594944199E+03  0.14164623425E+03  0.92952918374E+02 0.  0.
        -11    1    3    3    0    0 -0.55211720682E+02 -0.69245015925E+01 -0.68169120646E+02  0.87996089871E+02  0.00000000000E+00 0. -1.
         11    1    3    3    0    0  0.21450788926E+02 -0.39618372157E+02 -0.13819965336E+02  0.47124762067E+02  0.00000000000E+00 0.  1.
        -11    1    4    4    0    0 -0.27435674429E+02  0.82315079382E+01  0.83042730424E+00  0.28655951629E+02  0.00000000000E+00 0.  1.
         11    1    4    4    0    0  0.36878062921E+02  0.22072508836E+01 -0.10677986929E+03  0.11299028262E+03  0.00000000000E+00 0. -1.
         21    1    1    2  502  501  0.24318543263E+02  0.36104114928E+02 -0.77366408851E+01  0.44212603105E+02  0.00000000000E+00 0. -1.
<scales pt_clust_5="13000.00000" pt_clust_6="13000.00000" pt_clust_7="13000.00000" pt_clust_8="13000.00000" pt_clust_9="43.53043"></scales>
<clustering>
<clus scale="   43.530">  1  9  2 -1</clus>
<clus scale="   90.716">  5  6 -1 -1</clus>
<clus scale="   92.953">  7  8 -1 -1</clus>
<clus scale="   96.026">  1  5  2 -1</clus>
<clus scale="   98.142">  2  5  1 -1</clus>
</clustering>
</event>
<event>
 9    1  0.1484717E-005  0.2023450E+03  0.7546771E-02  0.1147855E+00
         -1   -1    0    0    0  501 -0.00000000000E+00  0.00000000000E+00  0.10548621146E+03  0.10548621146E+03  0.00000000000E+00 0.  1.
          1   -1    0    0  502    0  0.00000000000E+00 -0.00000000000E+00 -0.99610277144E+03  0.99610277144E+03  0.00000000000E+00 0. -1.
         23    2    1    2    0    0  0.66375904221E+02  0.19949783780E+03 -0.57720315879E+03  0.62114116585E+03  0.91911443536E+02 0.  0.
         23    2    1    2    0    0 -0.36915904585E+02 -0.14788656120E+03 -0.36231805587E+03  0.40348496433E+03  0.91063295727E+02 0.  0.
        -13    1    4    4    0    0 -0.26293989071E+02 -0.19144400058E+02 -0.16123872464E+03  0.16448649865E+03  0.00000000000E+00 0.  1.
         13    1    4    4    0    0 -0.10621915515E+02 -0.12874216115E+03 -0.20107933124E+03  0.23899846568E+03  0.00000000000E+00 0. -1.
        -13    1    3    3    0    0  0.55078602181E+02  0.11641605214E+03 -0.22650144862E+03  0.26055566745E+03  0.00000000000E+00 0.  1.
         13    1    3    3    0    0  0.11297302040E+02  0.83081785661E+02 -0.35070171017E+03  0.36058549840E+03  0.00000000000E+00 0. -1.
         21    1    1    2  502  501 -0.29459999635E+02 -0.51611276598E+02  0.48904654683E+02  0.76962852729E+02  0.00000000000E+00 0.  1.
<scales pt_clust_5="13000.00000" pt_clust_6="13000.00000" pt_clust_7="13000.00000" pt_clust_8="13000.00000" pt_clust_9="59.42740"></scales>
<clustering>
<clus scale="   59.427">  1  9  2 -1</clus>
<clus scale="   91.063">  5  6 -1 -1</clus>
<clus scale="   91.911">  7  8 -1 -1</clus>
<clus scale="  201.961">  2  5  1 -1</clus>
<clus scale="  201.961">  2  5  1 -1</clus>
</clustering>
</event>
<event>
 9    1  0.1484717E-005  0.9421290E+02  0.7546771E-02  0.1293902E+00
          1   -1    0    0  502    0  0.00000000000E+00  0.00000000000E+00  0.33739906095E+03  0.33739906095E+03  0.00000000000E+00 0. -1.
         -1   -1    0    0    0  501 -0.00000000000E+00 -0.00000000000E+00 -0.54432457037E+02  0.54432457037E+02  0.00000000000E+00 0.  1.
         23    2    1    2    0    0 -0.35419817687E+01 -0.15955567551E+02  0.15535736988E+02  0.95377830803E+02  0.92673867483E+02 0.  0.
         23    2    1    2    0    0 -0.17924080727E+02  0.78335171087E+01  0.25240345409E+03  0.26902044678E+03  0.91004727842E+02 0.  0.
        -11    1    3    3    0    0 -0.94814643646E+01  0.37104679248E+02 -0.40426839122E+01  0.38509721913E+02  0.00000000000E+00 0.  1.
         11    1    3    3    0    0  0.59394825960E+01 -0.53060246799E+02  0.19578420900E+02  0.56868108891E+02  0.00000000000E+00 0. -1.
        -13    1    4    4    0    0  0.27833538711E+02 -0.21285392203E+02  0.63984136883E+02  0.72950281502E+02  0.00000000000E+00 0.  1.
         13    1    4    4    0    0 -0.45757619439E+02  0.29118909312E+02  0.18841931720E+03  0.19607016528E+03  0.00000000000E+00 0. -1.
         21    1    1    2  502  501  0.21466062496E+02  0.81220504423E+01  0.15027412835E+02  0.27433240402E+02  0.00000000000E+00 0.  1.
<scales pt_clust_5="13000.00000" pt_clust_6="13000.00000" pt_clust_7="13000.00000" pt_clust_8="13000.00000" pt_clust_9="22.95124"></scales>
<clustering>
<clus scale="   22.951">  2  9  1 -1</clus>
<clus scale="   91.005">  7  8 -1 -1</clus>
<clus scale="   92.572">  1  7  2 -1</clus>
<clus scale="   92.674">  5  6 -1 -1</clus>
<clus scale="   92.572">  1  5  2 -1</clus>
</clustering>
</event>
<event>
 9    1  0.1484717E-005  0.9904864E+02  0.7546771E-02  0.1284893E+00
          1   -1    0    0  502    0  0.00000000000E+00  0.00000000000E+00  0.13264084724E+03  0.13264084724E+03  0.00000000000E+00 0. -1.
         -1   -1    0    0    0  501 -0.00000000000E+00 -0.00000000000E+00 -0.22017827719E+03  0.22017827719E+03  0.00000000000E+00 0.  1.
         23    2    1    2    0    0  0.10139309236E+02  0.13868681987E+02 -0.74041307167E+02  0.11778081738E+03  0.89972550507E+02 0.  0.
         23    2    1    2    0    0 -0.31589491837E+02  0.12488675153E+02  0.84359315588E+02  0.13145014446E+03  0.94914610841E+02 0.  0.
        -13    1    4    4    0    0  0.31983846311E+02  0.10752405096E+02  0.46447456358E+02  0.57410337417E+02  0.00000000000E+00 0.  1.
         13    1    4    4    0    0 -0.63573338148E+02  0.17362700564E+01  0.37911859230E+02  0.74039807045E+02  0.00000000000E+00 0. -1.
        -13    1    3    3    0    0  0.21540044911E+02 -0.18767746517E+02 -0.77921105165E+02  0.82993376086E+02  0.00000000000E+00 0.  1.
         13    1    3    3    0    0 -0.11400735675E+02  0.32636428505E+02  0.38797979982E+01  0.34787441297E+02  0.00000000000E+00 0. -1.
         21    1    1    2  502  501  0.21450182601E+02 -0.26357357140E+02 -0.97855438370E+02  0.10358816258E+03  0.00000000000E+00 0.  1.
<scales pt_clust_5="13000.00000" pt_clust_6="13000.00000" pt_clust_7="13000.00000" pt_clust_8="13000.00000" pt_clust_9="33.98265"></scales>
<clustering>
<clus scale="   33.983">  2  9  1 -1</clus>
<clus scale="   89.973">  7  8 -1 -1</clus>
<clus scale="   94.323">  2  7  1 -1</clus>
<clus scale="   94.915">  5  6 -1 -1</clus>
<clus scale="   99.049">  1  5  2 -1</clus>
</clustering>
</event>
<event>
 9    1  0.1484717E-005  0.1529120E+03  0.7546771E-02  0.1197004E+00
          2   -1    0    0  502    0  0.00000000000E+00  0.00000000000E+00  0.10132988565E+04  0.10132988565E+04  0.00000000000E+00 0. -1.
         -2   -1    0    0    0  501 -0.00000000000E+00 -0.00000000000E+00 -0.34346126563E+02  0.34346126563E+02  0.00000000000E+00 0.  1.
         23    2    1    2    0    0 -0.11083386858E+03  0.18397599527E+02  0.31050622142E+03  0.34258343451E+03  0.91250632673E+02 0.  0.
         23    2    1    2    0    0  0.12094437363E+03 -0.47028044697E+02  0.65108888088E+03  0.67008710158E+03  0.90889022459E+02 0.  0.
        -11    1    4    4    0    0  0.10783451453E+03 -0.67109686353E+01  0.54925806531E+03  0.55978365637E+03  0.00000000000E+00 0. -1.
         11    1    4    4    0    0  0.13109859091E+02 -0.40317076061E+02  0.10183081557E+03  0.11030344522E+03  0.00000000000E+00 0.  1.
        -13    1    3    3    0    0 -0.75133909506E+02 -0.32951899897E+02  0.18403784902E+03  0.20149655564E+03  0.00000000000E+00 0.  1.
         13    1    3    3    0    0 -0.35699959070E+02  0.51349499423E+02  0.12646837241E+03  0.14108687887E+03  0.00000000000E+00 0. -1.
         21    1    1    2  502  501 -0.10110505050E+02  0.28630445170E+02  0.17357627605E+02  0.34974446944E+02  0.00000000000E+00 0.  1.
<scales pt_clust_5="13000.00000" pt_clust_6="13000.00000" pt_clust_7="13000.00000" pt_clust_8="13000.00000" pt_clust_9="30.36321"></scales>
<clustering>
<clus scale="   30.363">  2  9  1 -1</clus>
<clus scale="   90.889">  5  6 -1 -1</clus>
<clus scale="   91.251">  7  8 -1 -1</clus>
<clus scale="  152.696">  1  5  2 -1</clus>
<clus scale="  152.696">  1  5  2 -1</clus>
</clustering>
</event>
<event>
 9    1  0.1484717E-005  0.1132169E+03  0.7546771E-02  0.1254749E+00
          2   -1    0    0  502    0  0.00000000000E+00  0.00000000000E+00  0.57000682574E+03  0.57000682574E+03  0.00000000000E+00 0. -1.
         -2   -1    0    0    0  501 -0.00000000000E+00 -0.00000000000E+00 -0.36206469742E+02  0.36206469742E+02  0.00000000000E+00 0.  1.
         23    2    1    2    0    0  0.55666749172E+01 -0.44835963319E+02  0.86565100964E+02  0.13339342017E+03  0.90879240550E+02 0.  0.
         23    2    1    2    0    0 -0.19175639850E+01  0.75821443039E+02  0.39064192843E+03  0.40819619095E+03  0.90941991323E+02 0.  0.
        -11    1    3    3    0    0 -0.22619921191E+02  0.34671481610E+00 -0.87132026316E+01  0.24242544131E+02  0.00000000000E+00 0.  1.
         11    1    3    3    0    0  0.28186596109E+02 -0.45182678135E+02  0.95278303595E+02  0.10915087604E+03  0.00000000000E+00 0. -1.
        -13    1    4    4    0    0  0.32962979369E+02 -0.14178435814E+01  0.90862527780E+02  0.96667301834E+02  0.00000000000E+00 0.  1.
         13    1    4    4    0    0 -0.34880543354E+02  0.77239286621E+02  0.29977940065E+03  0.31152888912E+03  0.00000000000E+00 0. -1.
         21    1    1    2  502  501 -0.36491109321E+01 -0.30985479720E+02  0.56593326605E+02  0.64623684360E+02  0.00000000000E+00 0.  1.
<scales pt_clust_5="13000.00000" pt_clust_6="13000.00000" pt_clust_7="13000.00000" pt_clust_8="13000.00000" pt_clust_9="31.19961"></scales>
<clustering>
<clus scale="   31.200">  2  9  1 -1</clus>
<clus scale="   90.879">  5  6 -1 -1</clus>
<clus scale="   90.942">  7  8 -1 -1</clus>
<clus scale="  113.166">  2  5  1 -1</clus>
<clus scale="  113.217">  1  5  2 -1</clus>
</clustering>
</event>
<event>
 9    1  0.1484717E-005  0.9604341E+02  0.7546771E-02  0.1288890E+00
          1   -1    0    0  502    0  0.00000000000E+00  0.00000000000E+00  0.18258542211E+03  0.18258542211E+03  0.00000000000E+00 0. -1.
         -1   -1    0    0    0  501 -0.00000000000E+00 -0.00000000000E+00 -0.11736704683E+03  0.11736704683E+03  0.00000000000E+00 0.  1.
         23    2    1    2    0    0 -0.16357249449E+02 -0.31850057038E+02 -0.62051350231E+02  0.11591745468E+03  0.91129032092E+02 0.  0.
         23    2    1    2    0    0 -0.97120338084E+01  0.73913712457E+01  0.11252391066E+03  0.14536624269E+03  0.91218189370E+02 0.  0.
        -11    1    4    4    0    0 -0.56476793756E+01  0.39447182890E+02  0.10483262016E+03  0.11215103552E+03  0.00000000000E+00 0. -1.
         11    1    4    4    0    0 -0.40643544329E+01 -0.32055811644E+02  0.76912905071E+01  0.33215207161E+02  0.00000000000E+00 0.  1.
        -13    1    3    3    0    0 -0.31452000781E+01 -0.62041068697E+02 -0.53216431225E+02  0.81798380430E+02  0.00000000000E+00 0.  1.
         13    1    3    3    0    0 -0.13212049371E+02  0.30191011659E+02 -0.88349190063E+01  0.34119074246E+02  0.00000000000E+00 0. -1.
         21    1    1    2  502  501  0.26069283257E+02  0.24458685792E+02  0.14745814847E+02  0.38668771583E+02  0.00000000000E+00 0. -1.
<scales pt_clust_5="13000.00000" pt_clust_6="13000.00000" pt_clust_7="13000.00000" pt_clust_8="13000.00000" pt_clust_9="35.74682"></scales>
<clustering>
<clus scale="   35.747">  1  9  2 -1</clus>
<clus scale="   91.129">  7  8 -1 -1</clus>
<clus scale="   91.218">  5  6 -1 -1</clus>
<clus scale="   95.959">  2  7  1 -1</clus>
<clus scale="   35.747">  1  5  2 -1</clus>
</clustering>
</event>
<event>
 9    1  0.1484717E-005  0.1149057E+03  0.7546771E-02  0.1252175E+00
         -1   -1    0    0    0  501 -0.00000000000E+00  0.00000000000E+00  0.83446753026E+02  0.83446753026E+02  0.00000000000E+00 0.  1.
          1   -1    0    0  502    0  0.00000000000E+00 -0.00000000000E+00 -0.30808812087E+03  0.30808812087E+03  0.00000000000E+00 0. -1.
         23    2    1    2    0    0 -0.44875464763E+02  0.31170033043E+02  0.11744721798E+02  0.10540265335E+03  0.89366674693E+02 0.  0.
         23    2    1    2    0    0  0.69429060511E+02 -0.27744053293E+02 -0.23322539047E+03  0.26114009337E+03  0.90608711899E+02 0.  0.
        -11    1    4    4    0    0  0.38578899960E+01  0.23698987783E+02 -0.17030981217E+02  0.29437725089E+02  0.00000000000E+00 0.  1.
         11    1    4    4    0    0  0.65571170515E+02 -0.51443041077E+02 -0.21619440925E+03  0.23170236828E+03  0.00000000000E+00 0. -1.
        -13    1    3    3    0    0 -0.39584974665E+02  0.54391883139E+02  0.31666869889E+02  0.74352120475E+02  0.00000000000E+00 0.  1.
         13    1    3    3    0    0 -0.52904900981E+01 -0.23221850096E+02 -0.19922148090E+02  0.31050532876E+02  0.00000000000E+00 0. -1.
         21    1    1    2  502  501 -0.24553595748E+02 -0.34259797499E+01 -0.31606991786E+01  0.24992127174E+02  0.00000000000E+00 0.  1.
<scales pt_clust_5="13000.00000" pt_clust_6="13000.00000" pt_clust_7="13000.00000" pt_clust_8="13000.00000" pt_clust_9="24.79146"></scales>
<clustering>
<clus scale="   24.791">  1  9  2 -1</clus>
<clus scale="   89.367">  7  8 -1 -1</clus>
<clus scale="   90.609">  5  6 -1 -1</clus>
<clus scale="  113.929">  1  7  2 -1</clus>
<clus scale="  114.906">  2  5  1 -1</clus>
</clustering>
</event>
<event>
 9    1  0.1484717E-005  0.1638794E+03  0.7546771E-02  0.1210451E+00
         -1   -1    0    0    0  501 -0.00000000000E+00  0.00000000000E+00  0.62869539569E+02  0.62869539569E+02  0.00000000000E+00 0.  1.
          1   -1    0    0  502    0  0.00000000000E+00 -0.00000000000E+00 -0.72151757699E+03  0.72151757699E+03  0.00000000000E+00 0. -1.
         23    2    1    2    0    0 -0.62788224671E+02  0.12136647086E+03 -0.15448925573E+03  0.22607118799E+03  0.92569274044E+02 0.  0.
         23    2    1    2    0    0 -0.14381181236E+02 -0.11538587949E+02 -0.29965506565E+03  0.31369571078E+03  0.90949893937E+02 0.  0.
        -11    1    3    3    0    0 -0.85556002531E+02  0.10476312057E+03 -0.11488162715E+03  0.17746247282E+03  0.00000000000E+00 0.  1.
         11    1    3    3    0    0  0.22767777860E+02  0.16603350294E+02 -0.39607628572E+02  0.48608715173E+02  0.00000000000E+00 0. -1.
        -13    1    4    4    0    0 -0.46914683760E+02 -0.26239147860E+02 -0.21886162692E+03  0.22536612916E+03  0.00000000000E+00 0. -1.
         13    1    4    4    0    0  0.32533502524E+02  0.14700559911E+02 -0.80793438729E+02  0.88329581624E+02  0.00000000000E+00 0.  1.
         21    1    1    2  502  501  0.77169405907E+02 -0.10982788292E+03 -0.20450371604E+03  0.24462021778E+03  0.00000000000E+00 0. -1.
<scales pt_clust_5="13000.00000" pt_clust_6="13000.00000" pt_clust_7="13000.00000" pt_clust_8="13000.00000" pt_clust_9="135.23085"></scales>
<clustering>
<clus scale="   90.950">  7  8 -1 -1</clus>
<clus scale="   92.569">  5  6 -1 -1</clus>
<clus scale="   92.800">  2  7  1 -1</clus>
<clus scale="  135.231">  2  9  1 -1</clus>
<clus scale="   92.800">  2  5  1 -1</clus>
</clustering>
</event>
<event>
 9    1  0.1484717E-005  0.1235494E+03  0.7546771E-02  0.1237653E+00
         -1   -1    0    0    0  501 -0.00000000000E+00  0.00000000000E+00  0.45607946725E+03  0.45607946725E+03  0.00000000000E+00 0.  1.
          1   -1    0    0  502    0  0.00000000000E+00 -0.00000000000E+00 -0.72753801110E+02  0.72753801110E+02  0.00000000000E+00 0. -1.
         23    2    1    2    0    0  0.36641787054E+02 -0.93728339846E+02  0.26910962384E+03  0.30136402700E+03  0.90954191101E+02 0.  0.
         23    2    1    2    0    0 -0.45044721975E+02  0.66250064073E+02  0.11705626531E+02  0.12100774458E+03  0.89931944206E+02 0.  0.
        -11    1    3    3    0    0 -0.22357688867E+01 -0.84794437693E+02  0.23145367190E+03  0.24650739859E+03  0.00000000000E+00 0.  1.
         11    1    3    3    0    0  0.38877555941E+02 -0.89339021526E+01  0.37655951938E+02  0.54856628406E+02  0.00000000000E+00 0. -1.
        -11    1    4    4    0    0 -0.52610525930E+02 -0.42729226223E+00  0.11723111456E+02  0.53902517191E+02  0.00000000000E+00 0.  1.
         11    1    4    4    0    0  0.75658039557E+01  0.66677356335E+02 -0.17484924836E-01  0.67105227390E+02  0.00000000000E+00 0. -1.
         21    1    1    2  502  501  0.84029349203E+01  0.27478275773E+02  0.10251041577E+03  0.10646149678E+03  0.00000000000E+00 0.  1.
<scales pt_clust_5="13000.00000" pt_clust_6="13000.00000" pt_clust_7="13000.00000" pt_clust_8="13000.00000" pt_clust_9="28.73439"></scales>
<clustering>
<clus scale="   28.734">  1  9  2 -1</clus>
<clus scale="   89.932">  7  8 -1 -1</clus>
<clus scale="   90.954">  5  6 -1 -1</clus>
<clus scale="  122.799">  2  7  1 -1</clus>
<clus scale="  122.799">  2  5  1 -1</clus>
</clustering>
</event>
<event>
 9    1  0.1484717E-005  0.2041936E+03  0.7546771E-02  0.1146615E+00
          2   -1    0    0  502    0  0.00000000000E+00  0.00000000000E+00  0.78158788578E+03  0.78158788578E+03  0.00000000000E+00 0. -1.
         -2   -1    0    0    0  501 -0.00000000000E+00 -0.00000000000E+00 -0.87380284196E+02  0.87380284196E+02  0.00000000000E+00 0.  1.
         23    2    1    2    0    0 -0.18098798124E+03  0.40065490694E+02  0.10675833832E+03  0.23159178511E+03  0.88744122255E+02 0.  0.
         23    2    1    2    0    0  0.18066749422E+03 -0.15357996365E+02  0.57439808550E+03  0.60943186431E+03  0.92722300925E+02 0.  0.
        -13    1    4    4    0    0  0.11187371641E+02 -0.30065502586E+02  0.12065790834E+03  0.12484959982E+03  0.00000000000E+00 0. -1.
         13    1    4    4    0    0  0.16948012258E+03  0.14707506221E+02  0.45374017716E+03  0.48458226449E+03  0.00000000000E+00 0.  1.
        -13    1    3    3    0    0 -0.21417044867E+01  0.21429474830E+02 -0.16947694303E+01  0.21602813081E+02  0.00000000000E+00 0.  1.
         13    1    3    3    0    0 -0.17884627675E+03  0.18636015864E+02  0.10845310775E+03  0.20998897203E+03  0.00000000000E+00 0. -1.
         21    1    1    2  502  501  0.32048701649E+00 -0.24707494329E+02  0.13051177766E+02  0.27944520555E+02  0.00000000000E+00 0.  1.
<scales pt_clust_5="13000.00000" pt_clust_6="13000.00000" pt_clust_7="13000.00000" pt_clust_8="13000.00000" pt_clust_9="24.70957"></scales>
<clustering>
<clus scale="   24.710">  2  9  1 -1</clus>
<clus scale="   88.744">  7  8 -1 -1</clus>
<clus scale="   92.722">  5  6 -1 -1</clus>
<clus scale="  202.418">  2  7  1 -1</clus>
<clus scale="  204.194">  1  5  2 -1</clus>
</clustering>
</event>
<event>
 9    1  0.1484717E-005  0.1291060E+03  0.7546771E-02  0.1230230E+00
          2   -1    0    0  502    0  0.00000000000E+00  0.00000000000E+00  0.32242172980E+03  0.32242172980E+03  0.00000000000E+00 0. -1.
         -2   -1    0    0    0  501 -0.00000000000E+00 -0.00000000000E+00 -0.64969447274E+02  0.64969447274E+02  0.00000000000E+00 0.  1.
         23    2    1    2    0    0  0.35517903918E+02 -0.87363167614E+02  0.66487947852E+02  0.14664548541E+03  0.90500865336E+02 0.  0.
         23    2    1    2    0    0 -0.16631663316E+02  0.73423549910E+02  0.14666578876E+03  0.19061222784E+03  0.95679349397E+02 0.  0.
        -11    1    4    4    0    0  0.30507509597E+01  0.42389987557E+02  0.33180644972E+01  0.42628953523E+02  0.00000000000E+00 0.  1.
         11    1    4    4    0    0 -0.19682414276E+02  0.31033562353E+02  0.14334772427E+03  0.14798327431E+03  0.00000000000E+00 0. -1.
        -11    1    3    3    0    0  0.46995013881E+01 -0.55583318245E+02  0.82484132736E+02  0.99575211442E+02  0.00000000000E+00 0. -1.
         11    1    3    3    0    0  0.30818402530E+02 -0.31779849369E+02 -0.15996184883E+02  0.47070273966E+02  0.00000000000E+00 0.  1.
         21    1    1    2  502  501 -0.18886240602E+02  0.13939617703E+02  0.44298545908E+02  0.50133463827E+02  0.00000000000E+00 0. -1.
<scales pt_clust_5="13000.00000" pt_clust_6="13000.00000" pt_clust_7="13000.00000" pt_clust_8="13000.00000" pt_clust_9="23.47345"></scales>
<clustering>
<clus scale="   23.473">  1  9  2 -1</clus>
<clus scale="   90.501">  7  8 -1 -1</clus>
<clus scale="   95.679">  5  6 -1 -1</clus>
<clus scale="  125.317">  2  7  1 -1</clus>
<clus scale="   23.473">  1  5  2 -1</clus>
</clustering>
</event>
<event>
 9    1  0.1484717E-005  0.9771257E+02  0.7546771E-02  0.1285737E+00
         -1   -1    0    0    0  501 -0.00000000000E+00  0.00000000000E+00  0.10519583388E+03  0.10519583388E+03  0.00000000000E+00 0.  1.
          1   -1    0    0  502    0  0.00000000000E+00 -0.00000000000E+00 -0.16619097733E+03  0.16619097733E+03  0.00000000000E+00 0. -1.
         23    2    1    2    0    0  0.26943901599E+02  0.48861534721E+02 -0.12626757949E+02  0.10815952379E+03  0.91791198718E+02 0.  0.
         23    2    1    2    0    0  0.53272699221E+01 -0.25241360792E+02 -0.70295078078E+02  0.11761894415E+03  0.90704530878E+02 0.  0.
        -11    1    3    3    0    0 -0.23002056492E+02 -0.13177146957E+02  0.39657383248E+01  0.26804083369E+02  0.00000000000E+00 0. -1.
         11    1    3    3    0    0  0.49945958091E+02  0.62038681678E+02 -0.16592496274E+02  0.81355440424E+02  0.00000000000E+00 0.  1.
        -13    1    4    4    0    0  0.32886091139E+02 -0.46118814679E+02 -0.28599608928E+02  0.63453744480E+02  0.00000000000E+00 0. -1.
         13    1    4    4    0    0 -0.27558821217E+02  0.20877453887E+02 -0.41695469151E+02  0.54165199671E+02  0.00000000000E+00 0.  1.
         21    1    1    2  502  501 -0.32271171521E+02 -0.23620173928E+02  0.21926692581E+02  0.45608343264E+02  0.00000000000E+00 0. -1.
<scales pt_clust_5="13000.00000" pt_clust_6="13000.00000" pt_clust_7="13000.00000" pt_clust_8="13000.00000" pt_clust_9="39.99176"></scales>
<clustering>
<clus scale="   39.992">  1  9  2 -1</clus>
<clus scale="   90.705">  7  8 -1 -1</clus>
<clus scale="   91.791">  5  6 -1 -1</clus>
<clus scale="   96.692">  2  7  1 -1</clus>
<clus scale="   96.692">  2  5  1 -1</clus>
</clustering>
</event>
<event>
 9    1  0.1484717E-005  0.1154207E+03  0.7546771E-02  0.1252232E+00
          1   -1    0    0  502    0  0.00000000000E+00  0.00000000000E+00  0.54803777432E+03  0.54803777432E+03  0.00000000000E+00 0. -1.
         -1   -1    0    0    0  501 -0.00000000000E+00 -0.00000000000E+00 -0.38378379066E+02  0.38378379066E+02  0.00000000000E+00 0.  1.
         23    2    1    2    0    0  0.78184089415E+02 -0.42920563638E+02  0.17653144229E+03  0.21684327965E+03  0.88897307004E+02 0.  0.
         23    2    1    2    0    0 -0.54776997105E+02  0.22420816678E+02  0.31471950450E+03  0.33342038322E+03  0.92830883866E+02 0.  0.
        -13    1    3    3    0    0  0.28014520142E+02 -0.13243277548E+02  0.52571865461E-01  0.30987102201E+02  0.00000000000E+00 0. -1.
         13    1    3    3    0    0  0.50169569273E+02 -0.29677286090E+02  0.17647887042E+03  0.18585617745E+03  0.00000000000E+00 0.  1.
        -13    1    4    4    0    0 -0.14760937376E+02 -0.29493867598E+02  0.44649520368E+02  0.55509937554E+02  0.00000000000E+00 0.  1.
         13    1    4    4    0    0 -0.40016059729E+02  0.51914684276E+02  0.27006998414E+03  0.27791044567E+03  0.00000000000E+00 0. -1.
         21    1    1    2  502  501 -0.23407092310E+02  0.20499746959E+02  0.18408448466E+02  0.36152490519E+02  0.00000000000E+00 0.  1.
<scales pt_clust_5="13000.00000" pt_clust_6="13000.00000" pt_clust_7="13000.00000" pt_clust_8="13000.00000" pt_clust_9="31.11481"></scales>
<clustering>
<clus scale="   31.115">  2  9  1 -1</clus>
<clus scale="   88.897">  5  6 -1 -1</clus>
<clus scale="   92.831">  7  8 -1 -1</clus>
<clus scale="  112.281">  2  5  1 -1</clus>
<clus scale="  115.421">  1  5  2 -1</clus>
</clustering>
</event>
<event>
 9    1  0.1484717E-005  0.1543679E+03  0.7546771E-02  0.1196274E+00
         -2   -1    0    0    0  501 -0.00000000000E+00  0.00000000000E+00  0.15143428806E+03  0.15143428806E+03  0.00000000000E+00 0.  1.
          2   -1    0    0  502    0  0.00000000000E+00 -0.00000000000E+00 -0.41357488635E+03  0.41357488635E+03  0.00000000000E+00 0. -1.
         23    2    1    2    0    0 -0.13336819225E+03  0.60397906284E+02  0.16249752291E+02  0.17562945194E+03  0.95638214909E+02 0.  0.
         23    2    1    2    0    0  0.11494562599E+03 -0.23216764839E+02 -0.30583768357E+03  0.33962849821E+03  0.89773676540E+02 0.  0.
        -13    1    4    4    0    0  0.77234924327E+02  0.26312466677E+02 -0.13428820272E+03  0.15713338547E+03  0.00000000000E+00 0.  1.
         13    1    4    4    0    0  0.37710701663E+02 -0.49529231516E+02 -0.17154948085E+03  0.18249511274E+03  0.00000000000E+00 0. -1.
        -13    1    3    3    0    0 -0.10637295605E+03  0.32736865757E+02  0.52122376120E+02  0.12289690904E+03  0.00000000000E+00 0.  1.
         13    1    3    3    0    0 -0.26995236203E+02  0.27661040527E+02 -0.35872623829E+02  0.52732542903E+02  0.00000000000E+00 0. -1.
         21    1    1    2  502  501  0.18422566262E+02 -0.37181141445E+02  0.27447332994E+02  0.49751224259E+02  0.00000000000E+00 0. -1.
<scales pt_clust_5="13000.00000" pt_clust_6="13000.00000" pt_clust_7="13000.00000" pt_clust_8="13000.00000" pt_clust_9="41.49492"></scales>
<clustering>
<clus scale="   41.495">  1  9  2 -1</clus>
<clus scale="   89.774">  5  6 -1 -1</clus>
<clus scale="   95.638">  7  8 -1 -1</clus>
<clus scale="  150.805">  2  5  1 -1</clus>
<clus scale="  150.805">  2  5  1 -1</clus>
</clustering>
</event>
<event>
 9    1  0.1484717E-005  0.1295662E+03  0.7546771E-02  0.1228482E+00
          1   -1    0    0  502    0  0.00000000000E+00  0.00000000000E+00  0.75206817626E+03  0.75206817626E+03  0.00000000000E+00 0. -1.
         -1   -1    0    0    0  501 -0.00000000000E+00 -0.00000000000E+00 -0.27314073511E+02  0.27314073511E+02  0.00000000000E+00 0.  1.
         23    2    1    2    0    0  0.25211582387E+02  0.79376870508E+02  0.30910275352E+03  0.33271988701E+03  0.90673587749E+02 0.  0.
         23    2    1    2    0    0 -0.48890557377E+02 -0.91125774644E+02  0.33423347459E+03  0.36106095556E+03  0.89212133086E+02 0.  0.
        -13    1    4    4    0    0 -0.34392153803E+02 -0.10798971582E+03  0.29403037641E+03  0.31511658353E+03  0.00000000000E+00 0.  1.
         13    1    4    4    0    0 -0.14498403574E+02  0.16863941171E+02  0.40203098182E+02  0.45944372032E+02  0.00000000000E+00 0. -1.
        -13    1    3    3    0    0  0.11600229057E+02 -0.19743200833E+02  0.51050365337E+02  0.55950863214E+02  0.00000000000E+00 0.  1.
         13    1    3    3    0    0  0.13611353330E+02  0.99120071341E+02  0.25805238819E+03  0.27676902379E+03  0.00000000000E+00 0. -1.
         21    1    1    2  502  501  0.23678974989E+02  0.11748904137E+02  0.81417874636E+02  0.85601407203E+02  0.00000000000E+00 0.  1.
<scales pt_clust_5="13000.00000" pt_clust_6="13000.00000" pt_clust_7="13000.00000" pt_clust_8="13000.00000" pt_clust_9="26.43351"></scales>
<clustering>
<clus scale="   26.434">  1  9  2 -1</clus>
<clus scale="   89.212">  5  6 -1 -1</clus>
<clus scale="   90.674">  7  8 -1 -1</clus>
<clus scale="  128.548">  1  5  2 -1</clus>
<clus scale="   26.434">  1  5  2 -1</clus>
</clustering>
</event>
<event>
 9    1  0.1484717E-005  0.1982773E+03  0.7546771E-02  0.1151247E+00
         -1   -1    0    0    0  501 -0.00000000000E+00  0.00000000000E+00  0.10913751284E+03  0.10913751284E+03  0.00000000000E+00 0.  1.
          1   -1    0    0  502    0  0.00000000000E+00 -0.00000000000E+00 -0.47984858695E+03  0.47984858695E+03  0.00000000000E+00 0. -1.
         23    2    1    2    0    0 -0.18093666996E+03  0.78215274391E+02 -0.19094865739E+03  0.28949455694E+03  0.92141201728E+02 0.  0.
         23    2    1    2    0    0  0.15433640884E+03 -0.36635784677E+02 -0.16760979126E+03  0.24865735984E+03  0.92604171968E+02 0.  0.
        -11    1    4    4    0    0  0.10795180344E+03  0.58604450883E+01 -0.14696863255E+03  0.18244921385E+03  0.00000000000E+00 0.  1.
         11    1    4    4    0    0  0.46384605399E+02 -0.42496229765E+02 -0.20641158709E+02  0.66208145988E+02  0.00000000000E+00 0. -1.
        -13    1    3    3    0    0 -0.16241536806E+02  0.28918723561E+02 -0.75355347817E+02  0.82331698239E+02  0.00000000000E+00 0. -1.
         13    1    3    3    0    0 -0.16469513315E+03  0.49296550829E+02 -0.11559330957E+03  0.20716285870E+03  0.00000000000E+00 0.  1.
         21    1    1    2  502  501  0.26600261119E+02 -0.41579489714E+02 -0.12152625469E+02  0.50834183010E+02  0.00000000000E+00 0. -1.
<scales pt_clust_5="13000.00000" pt_clust_6="13000.00000" pt_clust_7="13000.00000" pt_clust_8="13000.00000" pt_clust_9="49.36018"></scales>
<clustering>
<clus scale="   49.360">  1  9  2 -1</clus>
<clus scale="   92.141">  7  8 -1 -1</clus>
<clus scale="   92.604">  5  6 -1 -1</clus>
<clus scale="  198.062">  1  7  2 -1</clus>
<clus scale="  198.277">  2  5  1 -1</clus>
</clustering>
</event>
<event>
 9    1  0.1484717E-005  0.1085153E+03  0.7546771E-02  0.1264954E+00
         -2   -1    0    0    0  501 -0.00000000000E+00  0.00000000000E+00  0.78007648541E+02  0.78007648541E+02  0.00000000000E+00 0.  1.
          2   -1    0    0  502    0  0.00000000000E+00 -0.00000000000E+00 -0.51594052775E+03  0.51594052775E+03  0.00000000000E+00 0. -1.
         23    2    1    2    0    0  0.12731613950E+02 -0.20680740973E+02  0.29181282740E+02  0.99409264460E+02  0.91874194185E+02 0.  0.
         23    2    1    2    0    0 -0.16810045198E+02  0.51373270531E+02 -0.43955489851E+03  0.45308800143E+03  0.95699726679E+02 0.  0.
        -13    1    4    4    0    0  0.39107630353E+02  0.10045832401E+02 -0.16083225550E+03  0.16582321885E+03  0.00000000000E+00 0.  1.
         13    1    4    4    0    0 -0.55917675551E+02  0.41327438131E+02 -0.27872264301E+03  0.28726478258E+03  0.00000000000E+00 0. -1.
        -13    1    3    3    0    0  0.52055815797E+02 -0.19622642671E+02  0.15352383168E+02  0.57710932523E+02  0.00000000000E+00 0.  1.
         13    1    3    3    0    0 -0.39324201848E+02 -0.10580983024E+01  0.13828899573E+02  0.41698331937E+02  0.00000000000E+00 0. -1.
         21    1    1    2  502  501  0.40784312479E+01 -0.30692529558E+02 -0.27559263437E+02  0.41450910404E+02  0.00000000000E+00 0. -1.
<scales pt_clust_5="13000.00000" pt_clust_6="13000.00000" pt_clust_7="13000.00000" pt_clust_8="13000.00000" pt_clust_9="30.96232"></scales>
<clustering>
<clus scale="   30.962">  1  9  2 -1</clus>
<clus scale="   91.874">  7  8 -1 -1</clus>
<clus scale="   95.700">  5  6 -1 -1</clus>
<clus scale="  105.157">  1  7  2 -1</clus>
<clus scale="  108.515">  2  5  1 -1</clus>
</clustering>
</event>
<event>
 9    1  0.1484717E-005  0.1357551E+03  0.7546771E-02  0.1219948E+00
         -1   -1    0    0    0  501 -0.00000000000E+00  0.00000000000E+00  0.82086038468E+02  0.82086038468E+02  0.00000000000E+00 0.  1.
          1   -1    0    0  502    0  0.00000000000E+00 -0.00000000000E+00 -0.32518596016E+03  0.32518596016E+03  0.00000000000E+00 0. -1.
         23    2    1    2    0    0  0.95521362096E+02  0.25691869197E+02 -0.34562339329E+02  0.13908717038E+03  0.91467387108E+02 0.  0.
         23    2    1    2    0    0 -0.80475018006E+02 -0.54782454692E+02 -0.17080153083E+03  0.21821819718E+03  0.94703076948E+02 0.  0.
        -11    1    3    3    0    0  0.27329461739E+02  0.34415397823E+02  0.22838227498E+02  0.49526798014E+02  0.00000000000E+00 0. -1.
         11    1    3    3    0    0  0.68191900357E+02 -0.87235286258E+01 -0.57400566826E+02  0.89560372364E+02  0.00000000000E+00 0.  1.
        -13    1    4    4    0    0 -0.31720759396E+02 -0.76046483818E+02 -0.10992638453E+03  0.13737934450E+03  0.00000000000E+00 0. -1.
         13    1    4    4    0    0 -0.48754258610E+02  0.21264029126E+02 -0.60875146296E+02  0.80838852688E+02  0.00000000000E+00 0.  1.
         21    1    1    2  502  501 -0.15046344090E+02  0.29090585495E+02 -0.37736051537E+02  0.49966631070E+02  0.00000000000E+00 0.  1.
<scales pt_clust_5="13000.00000" pt_clust_6="13000.00000" pt_clust_7="13000.00000" pt_clust_8="13000.00000" pt_clust_9="32.75141"></scales>
<clustering>
<clus scale="   32.751">  2  9  1 -1</clus>
<clus scale="   91.467">  5  6 -1 -1</clus>
<clus scale="   94.703">  7  8 -1 -1</clus>
<clus scale="  133.518">  1  5  2 -1</clus>
<clus scale="   32.751">  2  5  1 -1</clus>
</clustering>
</event>
<event>
 9    1  0.1484717E-005  0.1049703E+03  0.7546771E-02  0.1270180E+00
         -1   -1    0    0    0  501 -0.00000000000E+00  0.00000000000E+00  0.47358009956E+02  0.47358009956E+02  0.00000000000E+00 0.  1.
          1   -1    0    0  502    0  0.00000000000E+00 -0.00000000000E+00 -0.33797017024E+03  0.33797017024E+03  0.00000000000E+00 0. -1.
         23    2    1    2    0    0 -0.11245519039E+02 -0.56796809478E+02 -0.12627124996E+03  0.16735189565E+03  0.93326786853E+02 0.  0.
         23    2    1    2    0    0  0.18351932165E+02  0.37620061086E+02 -0.16848996281E+03  0.19710852418E+03  0.93331882690E+02 0.  0.
        -11    1    4    4    0    0  0.38401069238E+02 -0.15156703281E+02 -0.43566097014E+02  0.60019768261E+02  0.00000000000E+00 0.  1.
         11    1    4    4    0    0 -0.20049137073E+02  0.52776764366E+02 -0.12492386579E+03  0.13708875592E+03  0.00000000000E+00 0. -1.
        -13    1    3    3    0    0 -0.22031458366E+02  0.31254945010E+01 -0.97507164953E+02  0.10001400447E+03  0.00000000000E+00 0. -1.
         13    1    3    3    0    0  0.10785939327E+02 -0.59922303979E+02 -0.28764085010E+02  0.67337891174E+02  0.00000000000E+00 0.  1.
         21    1    1    2  502  501 -0.71064131264E+01  0.19176748392E+02  0.41490524841E+01  0.20867760372E+02  0.00000000000E+00 0. -1.
<scales pt_clust_5="13000.00000" pt_clust_6="13000.00000" pt_clust_7="13000.00000" pt_clust_8="13000.00000" pt_clust_9="20.45113"></scales>
<clustering>
<clus scale="   20.451">  1  9  2 -1</clus>
<clus scale="   93.327">  7  8 -1 -1</clus>
<clus scale="   93.332">  5  6 -1 -1</clus>
<clus scale="  104.966">  1  7  2 -1</clus>
<clus scale="  104.970">  2  5  1 -1</clus>
</clustering>
</event>
<event>
 9    1  0.1484717E-005  0.9823323E+02  0.7546771E-02  0.1285711E+00
         -2   -1    0    0    0  501 -0.00000000000E+00  0.00000000000E+00  0.75758868432E+02  0.75758868432E+02  0.00000000000E+00 0.  1.
          2   -1    0    0  502    0  0.00000000000E+00 -0.00000000000E+00 -0.15661411501E+03  0.15661411501E+03  0.00000000000E+00 0. -1.
         23    2    1    2    0    0 -0.48351721954E+02 -0.58818414185E+01 -0.39876778975E+02  0.11060841494E+03  0.90948220867E+02 0.  0.
         23    2    1    2    0    0  0.27291044764E+02  0.12676510755E+01 -0.40045288840E+02  0.10018416770E+03  0.87674592878E+02 0.  0.
        -11    1    3    3    0    0 -0.23715521630E+01  0.26624953117E+02  0.16103662856E+02  0.31206415134E+02  0.00000000000E+00 0.  1.
         11    1    3    3    0    0 -0.45980169791E+02 -0.32506794535E+02 -0.55980441831E+02  0.79401999802E+02  0.00000000000E+00 0. -1.
        -11    1    4    4    0    0  0.46148697134E+02  0.31698207203E+02 -0.25975246378E+02  0.61718652055E+02  0.00000000000E+00 0.  1.
         11    1    4    4    0    0 -0.18857652370E+02 -0.30430556128E+02 -0.14070042462E+02  0.38465515647E+02  0.00000000000E+00 0. -1.
         21    1    1    2  502  501  0.21060677190E+02  0.46141903429E+01 -0.93317876294E+00  0.21580400803E+02  0.00000000000E+00 0.  1.
<scales pt_clust_5="13000.00000" pt_clust_6="13000.00000" pt_clust_7="13000.00000" pt_clust_8="13000.00000" pt_clust_9="21.56022"></scales>
<clustering>
<clus scale="   21.560">  1  9  2 -1</clus>
<clus scale="   87.675">  7  8 -1 -1</clus>
<clus scale="   90.948">  5  6 -1 -1</clus>
<clus scale="   95.210">  2  7  1 -1</clus>
<clus scale="   95.210">  2  5  1 -1</clus>
</clustering>
</event>
<event>
 9    1  0.1484717E-005  0.1075367E+03  0.7546771E-02  0.1266134E+00
          1   -1    0    0  502    0  0.00000000000E+00  0.00000000000E+00  0.17228083734E+03  0.17228083734E+03  0.00000000000E+00 0. -1.
         -1   -1    0    0    0  501 -0.00000000000E+00 -0.00000000000E+00 -0.10301962991E+03  0.10301962991E+03  0.00000000000E+00 0.  1.
         23    2    1    2    0    0 -0.56846487153E+02 -0.52407682474E+02  0.29912406592E+02  0.12150680785E+03  0.88831661036E+02 0.  0.
         23    2    1    2    0    0  0.37894039630E+02  0.22916945593E+02  0.55135970801E+02  0.11534715678E+03  0.91125444666E+02 0.  0.
        -13    1    3    3    0    0 -0.45033338990E+01  0.23384946589E+02  0.15138857140E+02  0.28219155528E+02  0.00000000000E+00 0. -1.
         13    1    3    3    0    0 -0.52343153254E+02 -0.75792629063E+02  0.14773549452E+02  0.93287652324E+02  0.00000000000E+00 0.  1.
        -13    1    4    4    0    0  0.59458959090E+01  0.48126402007E+02  0.56715523911E+02  0.74620070362E+02  0.00000000000E+00 0. -1.
         13    1    4    4    0    0  0.31948143721E+02 -0.25209456414E+02 -0.15795531090E+01  0.40727086416E+02  0.00000000000E+00 0.  1.
         21    1    1    2  502  501  0.18952447523E+02  0.29490736881E+02 -0.15787169963E+02  0.38446502628E+02  0.00000000000E+00 0.  1.
<scales pt_clust_5="13000.00000" pt_clust_6="13000.00000" pt_clust_7="13000.00000" pt_clust_8="13000.00000" pt_clust_9="35.05565"></scales>
<clustering>
<clus scale="   35.056">  2  9  1 -1</clus>
<clus scale="   88.832">  5  6 -1 -1</clus>
<clus scale="   91.125">  7  8 -1 -1</clus>
<clus scale="  105.600">  2  5  1 -1</clus>
<clus scale="  107.537">  1  5  2 -1</clus>
</clustering>
</event>
<event>
 9    1  0.1484717E-005  0.1544759E+03  0.7546771E-02  0.1195409E+00
          1   -1    0    0  502    0  0.00000000000E+00  0.00000000000E+00  0.72535246889E+03  0.72535246889E+03  0.00000000000E+00 0. -1.
         -1   -1    0    0    0  501 -0.00000000000E+00 -0.00000000000E+00 -0.78240446062E+02  0.78240446062E+02  0.00000000000E+00 0.  1.
         23    2    1    2    0    0  0.13353965944E+03 -0.52855416129E+02  0.64907840079E+02  0.18389562837E+03  0.94752513290E+02 0.  0.
         23    2    1    2    0    0 -0.11879299425E+03  0.85373914017E+01  0.52247330749E+03  0.54387295731E+03  0.92923485285E+02 0.  0.
        -11    1    3    3    0    0  0.13415705901E+03 -0.23878689984E+02  0.31863166860E+02  0.13994130813E+03  0.00000000000E+00 0.  1.
         11    1    3    3    0    0 -0.61739957377E+00 -0.28976726145E+02  0.33044673220E+02  0.43954320248E+02  0.00000000000E+00 0. -1.
        -11    1    4    4    0    0 -0.75503514758E+02  0.44320517961E+02  0.23093114912E+03  0.24697021012E+03  0.00000000000E+00 0. -1.
         11    1    4    4    0    0 -0.43289479495E+02 -0.35783126559E+02  0.29154215837E+03  0.29690274719E+03  0.00000000000E+00 0.  1.
         21    1    1    2  502  501 -0.14746665184E+02  0.44318024727E+02  0.59730875263E+02  0.75824329272E+02  0.00000000000E+00 0.  1.
<scales pt_clust_5="13000.00000" pt_clust_6="13000.00000" pt_clust_7="13000.00000" pt_clust_8="13000.00000" pt_clust_9="46.70708"></scales>
<clustering>
<clus scale="   46.707">  2  9  1 -1</clus>
<clus scale="   92.923">  7  8 -1 -1</clus>
<clus scale="   94.753">  5  6 -1 -1</clus>
<clus scale="  153.361">  1  7  2 -1</clus>
<clus scale="  153.361">  1  5  2 -1</clus>
</clustering>
</event>
<event>
 9    1  0.1484717E-005  0.1584527E+03  0.7546771E-02  0.1201276E+00
         -2   -1    0    0    0  501 -0.00000000000E+00  0.00000000000E+00  0.15282624100E+03  0.15282624100E+03  0.00000000000E+00 0.  1.
          2   -1    0    0  502    0  0.00000000000E+00 -0.00000000000E+00 -0.29628378636E+03  0.29628378636E+03  0.00000000000E+00 0. -1.
         23    2    1    2    0    0 -0.92473156342E+02 -0.56155907877E+02 -0.80142174091E+02  0.16333375131E+03  0.92468241124E+02 0.  0.
         23    2    1    2    0    0 -0.58761628747E+02  0.61988027021E+02 -0.46819079871E+02  0.13353271637E+03  0.91342846436E+02 0.  0.
        -11    1    3    3    0    0 -0.89874260707E+02 -0.30633444347E+02 -0.18733764964E+02  0.96781943563E+02  0.00000000000E+00 0. -1.
         11    1    3    3    0    0 -0.25988956350E+01 -0.25522463530E+02 -0.61408409127E+02  0.66551807750E+02  0.00000000000E+00 0.  1.
        -11    1    4    4    0    0 -0.21482248005E+02 -0.10758909071E+02  0.17330351539E+02  0.29624013708E+02  0.00000000000E+00 0.  1.
         11    1    4    4    0    0 -0.37279380742E+02  0.72746936092E+02 -0.64149431410E+02  0.10390870266E+03  0.00000000000E+00 0. -1.
         21    1    1    2  502  501  0.15123478509E+03 -0.58321191446E+01 -0.16496291398E+02  0.15224355968E+03  0.00000000000E+00 0.  1.
<scales pt_clust_5="13000.00000" pt_clust_6="13000.00000" pt_clust_7="13000.00000" pt_clust_8="13000.00000" pt_clust_9="128.67350"></scales>
<clustering>
<clus scale="   91.343">  7  8 -1 -1</clus>
<clus scale="   92.468">  5  6 -1 -1</clus>
<clus scale="  125.056">  2  7  1 -1</clus>
<clus scale="  128.674">  1  9  2 -1</clus>
<clus scale="  125.056">  2  5  1 -1</clus>
</clustering>
</event>
<event>
 9    1  0.1484717E-005  0.1557772E+03  0.7546771E-02  0.1193861E+00
          1   -1    0    0  502    0  0.00000000000E+00  0.00000000000E+00  0.94284719695E+03  0.94284719695E+03  0.00000000000E+00 0. -1.
         -1   -1    0    0    0  501 -0.00000000000E+00 -0.00000000000E+00 -0.53503975247E+02  0.53503975247E+02  0.00000000000E+00 0.  1.
         23    2    1    2    0    0 -0.50601105557E+02 -0.71224178983E+02  0.15018930712E+03  0.19551099992E+03  0.89634633707E+02 0.  0.
         23    2    1    2    0    0  0.56894311257E+02  0.13219755531E+03  0.71483861404E+03  0.73489632571E+03  0.91461517291E+02 0.  0.
        -13    1    4    4    0    0 -0.13800756245E+02  0.77036225675E+02  0.39755436237E+03  0.40518454065E+03  0.00000000000E+00 0.  1.
         13    1    4    4    0    0  0.70695067502E+02  0.55161329638E+02  0.31728425166E+03  0.32971178506E+03  0.00000000000E+00 0. -1.
        -13    1    3    3    0    0  0.22384069246E+01 -0.48496622632E+02  0.12230560244E+03  0.13158872771E+03  0.00000000000E+00 0. -1.
         13    1    3    3    0    0 -0.52839512482E+02 -0.22727556351E+02  0.27883704676E+02  0.63922272202E+02  0.00000000000E+00 0.  1.
         21    1    1    2  502  501 -0.62932056997E+01 -0.60973376330E+02  0.24315300544E+02  0.65943846563E+02  0.00000000000E+00 0.  1.
<scales pt_clust_5="13000.00000" pt_clust_6="13000.00000" pt_clust_7="13000.00000" pt_clust_8="13000.00000" pt_clust_9="61.29728"></scales>
<clustering>
<clus scale="   61.297">  2  9  1 -1</clus>
<clus scale="   89.635">  7  8 -1 -1</clus>
<clus scale="   91.462">  5  6 -1 -1</clus>
<clus scale="  154.712">  2  7  1 -1</clus>
<clus scale="  155.777">  1  5  2 -1</clus>
</clustering>
</event>
<event>
 9    1  0.1484717E-005  0.9711556E+02  0.7546771E-02  0.1287083E+00
         -3   -1    0    0    0  501 -0.00000000000E+00  0.00000000000E+00  0.20948186036E+02  0.20948186036E+02  0.00000000000E+00 0.  1.
          3   -1    0    0  502    0  0.00000000000E+00 -0.00000000000E+00 -0.69734797238E+03  0.69734797238E+03  0.00000000000E+00 0. -1.
         23    2    1    2    0    0  0.35796011045E+02  0.44675116567E+01 -0.27415057207E+03  0.29145853981E+03  0.92131597145E+02 0.  0.
         23    2    1    2    0    0 -0.17576991386E+02 -0.26994913697E+02 -0.37444126596E+03  0.38667920094E+03  0.90977287256E+02 0.  0.
        -11    1    4    4    0    0  0.29274386672E+02 -0.34058174249E+02 -0.23916947580E+03  0.24334951634E+03  0.00000000000E+00 0.  1.
         11    1    4    4    0    0 -0.46851378058E+02  0.70632605514E+01 -0.13527179016E+03  0.14332968461E+03  0.00000000000E+00 0. -1.
        -11    1    3    3    0    0  0.76603632858E+01  0.46843233891E+02 -0.14855447246E+03  0.15595320136E+03  0.00000000000E+00 0. -1.
         11    1    3    3    0    0  0.28135647759E+02 -0.42375722235E+02 -0.12559609961E+03  0.13550533844E+03  0.00000000000E+00 0.  1.
         21    1    1    2  502  501 -0.18219019659E+02  0.22527402041E+02 -0.27807948314E+02  0.40158417666E+02  0.00000000000E+00 0.  1.
<scales pt_clust_5="13000.00000" pt_clust_6="13000.00000" pt_clust_7="13000.00000" pt_clust_8="13000.00000" pt_clust_9="28.97269"></scales>
<clustering>
<clus scale="   28.973">  1  9  2 -1</clus>
<clus scale="   90.977">  5  6 -1 -1</clus>
<clus scale="   92.132">  7  8 -1 -1</clus>
<clus scale="   96.021">  2  5  1 -1</clus>
<clus scale="   96.021">  2  5  1 -1</clus>
</clustering>
</event>
<event>
 9    1  0.1484717E-005  0.1114048E+03  0.7546771E-02  0.1268318E+00
          4   -1    0    0  502    0  0.00000000000E+00  0.00000000000E+00  0.34140226963E+02  0.34140226963E+02  0.00000000000E+00 0. -1.
         -4   -1    0    0    0  501 -0.00000000000E+00 -0.00000000000E+00 -0.48912829830E+03  0.48912829830E+03  0.00000000000E+00 0.  1.
         23    2    1    2    0    0 -0.12884037234E+02  0.79688878404E+01 -0.23586273395E+03  0.25279351358E+03  0.89687399642E+02 0.  0.
         23    2    1    2    0    0 -0.38298971782E+01 -0.19370575213E+02 -0.10173266082E+03  0.15135156902E+03  0.11030809522E+03 0.  0.
        -13    1    3    3    0    0 -0.25833706098E+02 -0.24003262687E+02 -0.37586990944E+02  0.51539488536E+02  0.00000000000E+00 0.  1.
         13    1    3    3    0    0  0.12949668864E+02  0.31972150527E+02 -0.19827574300E+03  0.20125402504E+03  0.00000000000E+00 0. -1.
        -13    1    4    4    0    0  0.21994285863E+02  0.25617968373E+02  0.35828666113E+01  0.33953878237E+02  0.00000000000E+00 0. -1.
         13    1    4    4    0    0 -0.25824183042E+02 -0.44988543586E+02 -0.10531552743E+03  0.11739769079E+03  0.00000000000E+00 0.  1.
         21    1    1    2  502  501  0.16713934412E+02  0.11401687373E+02 -0.11739267657E+03  0.11912344266E+03  0.00000000000E+00 0. -1.
<scales pt_clust_5="13000.00000" pt_clust_6="13000.00000" pt_clust_7="13000.00000" pt_clust_8="13000.00000" pt_clust_9="20.23250"></scales>
<clustering>
<clus scale="   20.233">  2  9  1 -1</clus>
<clus scale="   89.687">  5  6 -1 -1</clus>
<clus scale="   91.033">  2  5  1 -1</clus>
<clus scale="  110.308">  7  8 -1 -1</clus>
<clus scale="  111.405">  1  5  2 -1</clus>
</clustering>
</event>
<event>
 9    1  0.1484717E-005  0.1131953E+03  0.7546771E-02  0.1256353E+00
         -2   -1    0    0    0  501 -0.00000000000E+00  0.00000000000E+00  0.39463946123E+02  0.39463946123E+02  0.00000000000E+00 0.  1.
          2   -1    0    0  502    0  0.00000000000E+00 -0.00000000000E+00 -0.44503362962E+03  0.44503362962E+03  0.00000000000E+00 0. -1.
         23    2    1    2    0    0  0.30064078775E+02 -0.60365501080E+02 -0.15026731354E+03  0.18841093650E+03  0.91490835183E+02 0.  0.
         23    2    1    2    0    0 -0.42678022468E+02  0.38939935650E+02 -0.24478832557E+03  0.26909198127E+03  0.95663147860E+02 0.  0.
        -11    1    3    3    0    0  0.69563564468E+01 -0.39677190893E+02 -0.15209738656E+03  0.15734130218E+03  0.00000000000E+00 0. -1.
         11    1    3    3    0    0  0.23107722328E+02 -0.20688310188E+02  0.18300730269E+01  0.31069634322E+02  0.00000000000E+00 0.  1.
        -13    1    4    4    0    0 -0.19306522224E+01  0.58719326795E+02 -0.87365310738E+02  0.10528240251E+03  0.00000000000E+00 0.  1.
         13    1    4    4    0    0 -0.40747370246E+02 -0.19779391145E+02 -0.15742301483E+03  0.16380957876E+03  0.00000000000E+00 0. -1.
         21    1    1    2  502  501  0.12613943693E+02  0.21425565431E+02 -0.10514044390E+02  0.26994657971E+02  0.00000000000E+00 0.  1.
<scales pt_clust_5="13000.00000" pt_clust_6="13000.00000" pt_clust_7="13000.00000" pt_clust_8="13000.00000" pt_clust_9="24.86295"></scales>
<clustering>
<clus scale="   24.863">  1  9  2 -1</clus>
<clus scale="   91.491">  5  6 -1 -1</clus>
<clus scale="   95.663">  7  8 -1 -1</clus>
<clus scale="  109.692">  1  5  2 -1</clus>
<clus scale="  113.195">  2  5  1 -1</clus>
</clustering>
</event>
<event>
 9    1  0.1484717E-005  0.2028950E+03  0.7546771E-02  0.1148068E+00
          2   -1    0    0  502    0  0.00000000000E+00  0.00000000000E+00  0.18963939623E+04  0.18963939623E+04  0.00000000000E+00 0. -1.
         -2   -1    0    0    0  501 -0.00000000000E+00 -0.00000000000E+00 -0.41101786011E+02  0.41101786011E+02  0.00000000000E+00 0.  1.
         23    2    1    2    0    0 -0.12090607534E+03  0.38128206965E+02  0.63225391704E+03  0.65190233975E+03  0.95705829185E+02 0.  0.
         23    2    1    2    0    0  0.23549887747E+03  0.13172899440E+02  0.61104369370E+03  0.66085293278E+03  0.87857592625E+02 0.  0.
        -13    1    3    3    0    0  0.45906927562E+01  0.24958470721E+02  0.49304443676E+02  0.55452032307E+02  0.00000000000E+00 0.  1.
         13    1    3    3    0    0 -0.12549676809E+03  0.13169736243E+02  0.58294947337E+03  0.59645030745E+03  0.00000000000E+00 0. -1.
        -13    1    4    4    0    0  0.24110113170E+02  0.21559926445E+02  0.15204038083E+03  0.15544261124E+03  0.00000000000E+00 0. -1.
         13    1    4    4    0    0  0.21138876430E+03 -0.83870270052E+01  0.45900331287E+03  0.50541032154E+03  0.00000000000E+00 0.  1.
         21    1    1    2  502  501 -0.11459280213E+03 -0.51301106405E+02  0.61199456558E+03  0.62474047581E+03  0.00000000000E+00 0. -1.
<scales pt_clust_5="13000.00000" pt_clust_6="13000.00000" pt_clust_7="13000.00000" pt_clust_8="13000.00000" pt_clust_9="125.55204"></scales>
<clustering>
<clus scale="   87.858">  7  8 -1 -1</clus>
<clus scale="   95.706">  5  6 -1 -1</clus>
<clus scale="  125.552">  1  9  2 -1</clus>
<clus scale="  199.313">  1  7  2 -1</clus>
<clus scale="  125.552">  1  5  2 -1</clus>
</clustering>
</event>
<event>
 9    1  0.1484717E-005  0.9425381E+02  0.7546771E-02  0.1294483E+00
          1   -1    0    0  502    0  0.00000000000E+00  0.00000000000E+00  0.12941665580E+03  0.12941665580E+03  0.00000000000E+00 0. -1.
         -1   -1    0    0    0  501 -0.00000000000E+00 -0.00000000000E+00 -0.15980786164E+03  0.15980786164E+03  0.00000000000E+00 0.  1.
         23    2    1    2    0    0  0.66559972296E+01  0.24557371788E+02 -0.74759222056E+02  0.11575332971E+03  0.84631703566E+02 0.  0.
         23    2    1    2    0    0  0.18415649168E+02 -0.71419834512E+02  0.30808174166E+02  0.11862096273E+03  0.87646222438E+02 0.  0.
        -11    1    3    3    0    0  0.34336942754E+02  0.15354319890E+02 -0.23474879866E+01  0.37686754660E+02  0.00000000000E+00 0. -1.
         11    1    3    3    0    0 -0.27680945524E+02  0.92030518985E+01 -0.72411734069E+02  0.78066575051E+02  0.00000000000E+00 0.  1.
        -13    1    4    4    0    0 -0.35408224870E+02 -0.32384052497E+02  0.10768543635E+02  0.49177543418E+02  0.00000000000E+00 0.  1.
         13    1    4    4    0    0  0.53823874038E+02 -0.39035782015E+02  0.20039630531E+02  0.69443419313E+02  0.00000000000E+00 0. -1.
         21    1    1    2  502  501 -0.25071646398E+02  0.46862462724E+02  0.13559842046E+02  0.54850224995E+02  0.00000000000E+00 0.  1.
<scales pt_clust_5="13000.00000" pt_clust_6="13000.00000" pt_clust_7="13000.00000" pt_clust_8="13000.00000" pt_clust_9="53.14770"></scales>
<clustering>
<clus scale="   53.148">  1  9  2 -1</clus>
<clus scale="   84.632">  5  6 -1 -1</clus>
<clus scale="   87.646">  7  8 -1 -1</clus>
<clus scale="   91.457">  2  5  1 -1</clus>
<clus scale="   53.148">  1  5  2 -1</clus>
</clustering>
</event>
<event>
 9    1  0.1484717E-005  0.9786845E+02  0.7546771E-02  0.1290246E+00
         -1   -1    0    0    0  501 -0.00000000000E+00  0.00000000000E+00  0.26811683120E+02  0.26811683120E+02  0.00000000000E+00 0.  1.
          1   -1    0    0  502    0  0.00000000000E+00 -0.00000000000E+00 -0.61949748811E+03  0.61949748811E+03  0.00000000000E+00 0. -1.
         23    2    1    2    0    0 -0.16241555454E+02  0.36208934021E+02 -0.12713243506E+03  0.16210682072E+03  0.92418019094E+02 0.  0.
         23    2    1    2    0    0 -0.38548520525E+01 -0.31223998491E+02 -0.44934002820E+03  0.45790429684E+03  0.82341278553E+02 0.  0.
        -11    1    4    4    0    0  0.23585119516E+02 -0.49573757635E+02 -0.29661604539E+03  0.30165359883E+03  0.00000000000E+00 0.  1.
         11    1    4    4    0    0 -0.27439971569E+02  0.18349759144E+02 -0.15272398281E+03  0.15625069800E+03  0.00000000000E+00 0. -1.
        -13    1    3    3    0    0 -0.53308962811E+02  0.34123720253E+02 -0.75708231921E+02  0.98681356803E+02  0.00000000000E+00 0. -1.
         13    1    3    3    0    0  0.37067407357E+02  0.20852137681E+01 -0.51424203138E+02  0.63425463917E+02  0.00000000000E+00 0.  1.
         21    1    1    2  502  501  0.20096407506E+02 -0.49849355300E+01 -0.16213341730E+02  0.26298053672E+02  0.00000000000E+00 0.  1.
<scales pt_clust_5="13000.00000" pt_clust_6="13000.00000" pt_clust_7="13000.00000" pt_clust_8="13000.00000" pt_clust_9="20.70544"></scales>
<clustering>
<clus scale="   20.705">  1  9  2 -1</clus>
<clus scale="   82.341">  5  6 -1 -1</clus>
<clus scale="   88.415">  2  5  1 -1</clus>
<clus scale="   92.418">  7  8 -1 -1</clus>
<clus scale="   88.415">  2  5  1 -1</clus>
</clustering>
</event>
<event>
 9    1  0.1484717E-005  0.1613626E+03  0.7546771E-02  0.1187775E+00
          1   -1    0    0  502    0  0.00000000000E+00  0.00000000000E+00  0.99233146394E+03  0.99233146394E+03  0.00000000000E+00 0. -1.
         -1   -1    0    0    0  501 -0.00000000000E+00 -0.00000000000E+00 -0.31303250625E+02  0.31303250625E+02  0.00000000000E+00 0.  1.
         23    2    1    2    0    0 -0.21334010206E+02  0.14682393183E+03  0.48447936975E+03  0.51415524304E+03  0.87309491355E+02 0.  0.
         23    2    1    2    0    0  0.23588105031E+02 -0.11694322854E+03  0.40243424727E+03  0.42953629948E+03  0.91192059957E+02 0.  0.
        -13    1    3    3    0    0  0.28837039977E+02  0.69496028454E+02  0.27862094722E+03  0.28860163734E+03  0.00000000000E+00 0. -1.
         13    1    3    3    0    0 -0.50171050183E+02  0.77327903373E+02  0.20585842253E+03  0.22555360570E+03  0.00000000000E+00 0.  1.
        -13    1    4    4    0    0  0.54789461347E+02 -0.92945974183E+02  0.25386361092E+03  0.27583975809E+03  0.00000000000E+00 0. -1.
         13    1    4    4    0    0 -0.31201356316E+02 -0.23997254359E+02  0.14857063635E+03  0.15369654140E+03  0.00000000000E+00 0.  1.
         21    1    1    2  502  501 -0.22540948249E+01 -0.29880703286E+02  0.74114596294E+02  0.79943172042E+02  0.00000000000E+00 0. -1.
<scales pt_clust_5="13000.00000" pt_clust_6="13000.00000" pt_clust_7="13000.00000" pt_clust_8="13000.00000" pt_clust_9="29.96560"></scales>
<clustering>
<clus scale="   29.966">  2  9  1 -1</clus>
<clus scale="   87.309">  5  6 -1 -1</clus>
<clus scale="   91.192">  7  8 -1 -1</clus>
<clus scale="  159.201">  2  5  1 -1</clus>
<clus scale="  161.363">  1  5  2 -1</clus>
</clustering>
</event>
<event>
 9    1  0.1484717E-005  0.1021450E+03  0.7546771E-02  0.1277300E+00
          1   -1    0    0  502    0  0.00000000000E+00  0.00000000000E+00  0.36369375941E+03  0.36369375941E+03  0.00000000000E+00 0. -1.
         -1   -1    0    0    0  501 -0.00000000000E+00 -0.00000000000E+00 -0.96396790727E+02  0.96396790727E+02  0.00000000000E+00 0.  1.
         23    2    1    2    0    0 -0.31243398374E+02 -0.32256013350E+02 -0.27369246430E+02  0.10480952035E+03  0.90660683689E+02 0.  0.
         23    2    1    2    0    0  0.38918113302E+02  0.11946593924E+02  0.31148615572E+03  0.32781679542E+03  0.93717050233E+02 0.  0.
        -13    1    4    4    0    0 -0.10914920020E+02  0.41811375806E+02  0.11215594326E+03  0.12019268794E+03  0.00000000000E+00 0.  1.
         13    1    4    4    0    0  0.49833033322E+02 -0.29864781882E+02  0.19933021247E+03  0.20762410748E+03  0.00000000000E+00 0. -1.
        -13    1    3    3    0    0 -0.53323542997E+02 -0.41777906100E+02 -0.38928638499E+02  0.78129588321E+02  0.00000000000E+00 0.  1.
         13    1    3    3    0    0  0.22080144623E+02  0.95218927500E+01  0.11559392069E+02  0.26679932030E+02  0.00000000000E+00 0. -1.
         21    1    1    2  502  501 -0.76747149277E+01  0.20309419426E+02 -0.16819940615E+02  0.27464234359E+02  0.00000000000E+00 0.  1.
<scales pt_clust_5="13000.00000" pt_clust_6="13000.00000" pt_clust_7="13000.00000" pt_clust_8="13000.00000" pt_clust_9="21.71114"></scales>
<clustering>
<clus scale="   21.711">  2  9  1 -1</clus>
<clus scale="   90.661">  7  8 -1 -1</clus>
<clus scale="   93.717">  5  6 -1 -1</clus>
<clus scale="   99.348">  2  7  1 -1</clus>
<clus scale="  102.145">  1  5  2 -1</clus>
</clustering>
</event>
<event>
 9    1  0.1484717E-005  0.1569021E+03  0.7546771E-02  0.1193730E+00
         -1   -1    0    0    0  501 -0.00000000000E+00  0.00000000000E+00  0.19437867666E+03  0.19437867666E+03  0.00000000000E+00 0.  1.
          1   -1    0    0  502    0  0.00000000000E+00 -0.00000000000E+00 -0.19122992907E+03  0.19122992907E+03  0.00000000000E+00 0. -1.
         23    2    1    2    0    0 -0.10750155722E+03  0.57115546635E+02  0.43745245508E+02  0.16195848289E+03  0.97458366507E+02 0.  0.
         23    2    1    2    0    0  0.89772625821E+02 -0.87055683792E+02 -0.78293115785E+02  0.17234942284E+03  0.89088131345E+02 0.  0.
        -11    1    3    3    0    0 -0.10991185024E+03  0.20488139377E+02  0.10263052284E+02  0.11227514828E+03  0.00000000000E+00 0.  1.
         11    1    3    3    0    0  0.24102930207E+01  0.36627407258E+02  0.33482193224E+02  0.49683334610E+02  0.00000000000E+00 0. -1.
        -13    1    4    4    0    0  0.11085038185E+02 -0.45319748341E+02 -0.68307626331E+02  0.82720550507E+02  0.00000000000E+00 0. -1.
         13    1    4    4    0    0  0.78687587636E+02 -0.41735935451E+02 -0.99854894544E+01  0.89628872332E+02  0.00000000000E+00 0.  1.
         21    1    1    2  502  501  0.17728931398E+02  0.29940137156E+02  0.37696617871E+02  0.51300699998E+02  0.00000000000E+00 0. -1.
<scales pt_clust_5="13000.00000" pt_clust_6="13000.00000" pt_clust_7="13000.00000" pt_clust_8="13000.00000" pt_clust_9="34.79550"></scales>
<clustering>
<clus scale="   34.796">  1  9  2 -1</clus>
<clus scale="   89.088">  7  8 -1 -1</clus>
<clus scale="   97.458">  5  6 -1 -1</clus>
<clus scale="  151.845">  2  7  1 -1</clus>
<clus scale="  151.845">  2  5  1 -1</clus>
</clustering>
</event>
<event>
 9    1  0.1484717E-005  0.1545707E+03  0.7546771E-02  0.1195123E+00
         -2   -1    0    0    0  501 -0.00000000000E+00  0.00000000000E+00  0.66392385162E+02  0.66392385162E+02  0.00000000000E+00 0.  1.
          2   -1    0    0  502    0  0.00000000000E+00 -0.00000000000E+00 -0.50152126125E+03  0.50152126125E+03  0.00000000000E+00 0. -1.
         23    2    1    2    0    0 -0.11496786463E+03 -0.44685143423E+02 -0.10426966860E+03  0.18541047255E+03  0.91052224588E+02 0.  0.
         23    2    1    2    0    0  0.12541528729E+03  0.13154221878E+02 -0.29421572659E+03  0.33304518819E+03  0.91946591928E+02 0.  0.
        -11    1    4    4    0    0  0.41250667456E+02  0.47287395947E+02 -0.15021914957E+03  0.16279898119E+03  0.00000000000E+00 0. -1.
         11    1    4    4    0    0  0.84164619831E+02 -0.34133174069E+02 -0.14399657702E+03  0.17024620700E+03  0.00000000000E+00 0.  1.
        -13    1    3    3    0    0 -0.28140476448E+02 -0.53125777197E+02 -0.18082562644E+02  0.62779086401E+02  0.00000000000E+00 0.  1.
         13    1    3    3    0    0 -0.86827388182E+02  0.84406337734E+01 -0.86187105956E+02  0.12263138615E+03  0.00000000000E+00 0. -1.
         21    1    1    2  502  501 -0.10447422657E+02  0.31530921545E+02 -0.36643480899E+02  0.49457985666E+02  0.00000000000E+00 0. -1.
<scales pt_clust_5="13000.00000" pt_clust_6="13000.00000" pt_clust_7="13000.00000" pt_clust_8="13000.00000" pt_clust_9="33.21668"></scales>
<clustering>
<clus scale="   33.217">  1  9  2 -1</clus>
<clus scale="   91.052">  7  8 -1 -1</clus>
<clus scale="   91.947">  5  6 -1 -1</clus>
<clus scale="  154.040">  1  7  2 -1</clus>
<clus scale="  154.571">  2  5  1 -1</clus>
</clustering>
</event>
<event>
 9    1  0.1484717E-005  0.1138647E+03  0.7546771E-02  0.1253753E+00
          2   -1    0    0  502    0  0.00000000000E+00  0.00000000000E+00  0.82575728813E+02  0.82575728813E+02  0.00000000000E+00 0. -1.
         -2   -1    0    0    0  501 -0.00000000000E+00 -0.00000000000E+00 -0.26896963626E+03  0.26896963626E+03  0.00000000000E+00 0.  1.
         23    2    1    2    0    0  0.28381821958E+02  0.30257355173E+02 -0.10022907874E+03  0.13924004694E+03  0.87297692327E+02 0.  0.
         23    2    1    2    0    0 -0.54515530656E+02 -0.73837382516E+02 -0.19551877540E+02  0.12852301227E+03  0.87817917468E+02 0.  0.
        -11    1    4    4    0    0  0.13829698059E+02 -0.53014597324E+02 -0.15602431354E+02  0.56967042594E+02  0.00000000000E+00 0.  1.
         11    1    4    4    0    0 -0.68345228714E+02 -0.20822785192E+02 -0.39494461867E+01  0.71555969677E+02  0.00000000000E+00 0. -1.
        -13    1    3    3    0    0  0.40092615257E+02 -0.19975076489E+02 -0.51898564342E+02  0.68555688747E+02  0.00000000000E+00 0. -1.
         13    1    3    3    0    0 -0.11710793299E+02  0.50232431662E+02 -0.48330514400E+02  0.70684358189E+02  0.00000000000E+00 0.  1.
         21    1    1    2  502  501  0.26133708698E+02  0.43580027343E+02 -0.66612951165E+02  0.83782305867E+02  0.00000000000E+00 0.  1.
<scales pt_clust_5="13000.00000" pt_clust_6="13000.00000" pt_clust_7="13000.00000" pt_clust_8="13000.00000" pt_clust_9="50.81525"></scales>
<clustering>
<clus scale="   50.815">  2  9  1 -1</clus>
<clus scale="   87.298">  7  8 -1 -1</clus>
<clus scale="   87.818">  5  6 -1 -1</clus>
<clus scale="  113.464">  2  7  1 -1</clus>
<clus scale="  113.865">  1  5  2 -1</clus>
</clustering>
</event>
<event>
 9    1  0.1484717E-005  0.1142067E+03  0.7546771E-02  0.1254996E+00
          3   -1    0    0  502    0  0.00000000000E+00  0.00000000000E+00  0.11076862587E+03  0.11076862587E+03  0.00000000000E+00 0. -1.
         -3   -1    0    0    0  501 -0.00000000000E+00 -0.00000000000E+00 -0.17779008323E+03  0.17779008323E+03  0.00000000000E+00 0.  1.
         23    2    1    2    0    0  0.64791440184E+02  0.31002728126E+02 -0.98163769788E+02  0.14955625732E+03  0.87016369328E+02 0.  0.
         23    2    1    2    0    0 -0.56034666207E+02 -0.81783071254E+01  0.14727560311E+02  0.10955624029E+03  0.92622352752E+02 0.  0.
        -11    1    3    3    0    0  0.69790162353E+01  0.51069846288E+02 -0.47876433496E+02  0.70349049402E+02  0.00000000000E+00 0.  1.
         11    1    3    3    0    0  0.57812423949E+02 -0.20067118162E+02 -0.50287336292E+02  0.79207207914E+02  0.00000000000E+00 0. -1.
        -13    1    4    4    0    0 -0.30966996906E+02 -0.13459938778E+02 -0.38060983108E+02  0.50879890766E+02  0.00000000000E+00 0.  1.
         13    1    4    4    0    0 -0.25067669301E+02  0.52816316522E+01  0.52788543419E+02  0.58676349524E+02  0.00000000000E+00 0. -1.
         21    1    1    2  502  501 -0.87567739774E+01 -0.22824421001E+02  0.16414752111E+02  0.29446211494E+02  0.00000000000E+00 0. -1.
<scales pt_clust_5="13000.00000" pt_clust_6="13000.00000" pt_clust_7="13000.00000" pt_clust_8="13000.00000" pt_clust_9="24.44658"></scales>
<clustering>
<clus scale="   24.447">  1  9  2 -1</clus>
<clus scale="   87.016">  5  6 -1 -1</clus>
<clus scale="   92.622">  7  8 -1 -1</clus>
<clus scale="  109.709">  2  5  1 -1</clus>
<clus scale="   24.447">  1  5  2 -1</clus>
</clustering>
</event>
<event>
 9    1  0.1484717E-005  0.9921085E+02  0.7546771E-02  0.1282706E+00
         -1   -1    0    0    0  501 -0.00000000000E+00  0.00000000000E+00  0.14215013084E+03  0.14215013084E+03  0.00000000000E+00 0.  1.
          1   -1    0    0  502    0  0.00000000000E+00 -0.00000000000E+00 -0.13908315391E+03  0.13908315391E+03  0.00000000000E+00 0. -1.
         23    2    1    2    0    0 -0.96791965633E+01  0.33199921319E+02  0.63009386960E+02  0.11515068061E+03  0.89964297247E+02 0.  0.
         23    2    1    2    0    0 -0.14088798271E+02 -0.38379493282E+02 -0.84831177792E+02  0.13128035845E+03  0.91469798562E+02 0.  0.
        -11    1    4    4    0    0  0.19204695578E+02 -0.51637006969E+02 -0.76864856185E+02  0.94569587803E+02  0.00000000000E+00 0. -1.
         11    1    4    4    0    0 -0.33293493849E+02  0.13257513687E+02 -0.79663216074E+01  0.36710770651E+02  0.00000000000E+00 0.  1.
        -13    1    3    3    0    0 -0.17913554762E+02 -0.12706085466E+02  0.64857835344E+02  0.68475388699E+02  0.00000000000E+00 0.  1.
         13    1    3    3    0    0  0.82343581983E+01  0.45906006785E+02 -0.18484483840E+01  0.46675291915E+02  0.00000000000E+00 0. -1.
         21    1    1    2  502  501  0.23767994834E+02  0.51795719624E+01  0.24888767763E+02  0.34802245688E+02  0.00000000000E+00 0.  1.
<scales pt_clust_5="13000.00000" pt_clust_6="13000.00000" pt_clust_7="13000.00000" pt_clust_8="13000.00000" pt_clust_9="24.32582"></scales>
<clustering>
<clus scale="   24.326">  1  9  2 -1</clus>
<clus scale="   89.964">  7  8 -1 -1</clus>
<clus scale="   91.470">  5  6 -1 -1</clus>
<clus scale="   97.825">  1  7  2 -1</clus>
<clus scale="   99.211">  2  5  1 -1</clus>
</clustering>
</event>
<event>
 9    1  0.1484717E-005  0.1297445E+03  0.7546771E-02  0.1228137E+00
          2   -1    0    0  502    0  0.00000000000E+00  0.00000000000E+00  0.31117536012E+03  0.31117536012E+03  0.00000000000E+00 0.  1.
         -2   -1    0    0    0  501 -0.00000000000E+00 -0.00000000000E+00 -0.79533810253E+02  0.79533810253E+02  0.00000000000E+00 0. -1.
         23    2    1    2    0    0 -0.49014135386E+02 -0.98049062492E+02  0.83923725937E+02  0.16622696688E+03  0.92586222631E+02 0.  0.
         23    2    1    2    0    0  0.25936750341E+02  0.74928909290E+02  0.14739149733E+03  0.19181396703E+03  0.93708526799E+02 0.  0.
        -11    1    3    3    0    0  0.17377658036E+02 -0.66598460733E+02  0.51308340216E+02  0.85848027039E+02  0.00000000000E+00 0.  1.
         11    1    3    3    0    0 -0.66391793423E+02 -0.31450601759E+02  0.32615385722E+02  0.80378939845E+02  0.00000000000E+00 0. -1.
        -11    1    4    4    0    0 -0.18270277968E+02  0.62871804365E+02  0.44452646335E+02  0.79137251705E+02  0.00000000000E+00 0. -1.
         11    1    4    4    0    0  0.44207028309E+02  0.12057104924E+02  0.10293885100E+03  0.11267671532E+03  0.00000000000E+00 0.  1.
         21    1    1    2  502  501  0.23077385045E+02  0.23120153202E+02  0.32632659862E+00  0.32668236464E+02  0.00000000000E+00 0.  1.
<scales pt_clust_5="13000.00000" pt_clust_6="13000.00000" pt_clust_7="13000.00000" pt_clust_8="13000.00000" pt_clust_9="32.66661"></scales>
<clustering>
<clus scale="   32.667">  2  9  1 -1</clus>
<clus scale="   92.586">  5  6 -1 -1</clus>
<clus scale="   93.709">  7  8 -1 -1</clus>
<clus scale="  128.936">  2  5  1 -1</clus>
<clus scale="  129.744">  1  5  2 -1</clus>
</clustering>
</event>
<event>
 9    1  0.1484717E-005  0.1541476E+03  0.7546771E-02  0.1203464E+00
          2   -1    0    0  502    0  0.00000000000E+00  0.00000000000E+00  0.86732049637E+03  0.86732049637E+03  0.00000000000E+00 0. -1.
         -2   -1    0    0    0  501 -0.00000000000E+00 -0.00000000000E+00 -0.52633358370E+02  0.52633358370E+02  0.00000000000E+00 0.  1.
         23    2    1    2    0    0  0.59620414654E+02  0.56683717151E+01  0.17038652387E+03  0.21782227349E+03  0.12177130627E+03 0.  0.
         23    2    1    2    0    0 -0.84660071679E+02 -0.68741902672E+02  0.61022863127E+03  0.62619638027E+03  0.88601057112E+02 0.  0.
        -13    1    4    4    0    0 -0.22150661007E+02  0.20079860471E+02  0.93020575050E+02  0.97707113160E+02  0.00000000000E+00 0.  1.
         13    1    4    4    0    0 -0.62509410673E+02 -0.88821763143E+02  0.51720805622E+03  0.52848926711E+03  0.00000000000E+00 0. -1.
        -13    1    3    3    0    0  0.14568787660E+02  0.56599341399E+02  0.11905015434E+03  0.13262229929E+03  0.00000000000E+00 0. -1.
         13    1    3    3    0    0  0.45051626994E+02 -0.50930969684E+02  0.51336369534E+02  0.85199974206E+02  0.00000000000E+00 0.  1.
         21    1    1    2  502  501  0.25039657025E+02  0.63073530957E+02  0.34071982859E+02  0.75935200976E+02  0.00000000000E+00 0.  1.
<scales pt_clust_5="13000.00000" pt_clust_6="13000.00000" pt_clust_7="13000.00000" pt_clust_8="13000.00000" pt_clust_9="67.86203"></scales>
<clustering>
<clus scale="   67.862">  2  9  1 -1</clus>
<clus scale="   88.601">  5  6 -1 -1</clus>
<clus scale="  121.771">  7  8 -1 -1</clus>
<clus scale="  129.551">  1  5  2 -1</clus>
<clus scale="  129.551">  1  5  2 -1</clus>
</clustering>
</event>
<event>
 9    1  0.1484717E-005  0.9235074E+02  0.7546771E-02  0.1298430E+00
          2   -1    0    0  502    0  0.00000000000E+00  0.00000000000E+00  0.53538969324E+02  0.53538969324E+02  0.00000000000E+00 0. -1.
         -2   -1    0    0    0  501 -0.00000000000E+00 -0.00000000000E+00 -0.19951883890E+03  0.19951883890E+03  0.00000000000E+00 0.  1.
         23    2    1    2    0    0 -0.42958507653E+01  0.12678521697E+02 -0.62201619612E+02  0.11048386162E+03  0.90324099499E+02 0.  0.
         23    2    1    2    0    0 -0.19543813483E+00  0.87840398671E+01 -0.61202219738E+02  0.11110188970E+03  0.92307749627E+02 0.  0.
        -13    1    4    4    0    0  0.28011053077E+02 -0.64722083480E+01 -0.71788957856E+02  0.77331513922E+02  0.00000000000E+00 0.  1.
         13    1    4    4    0    0 -0.28206491212E+02  0.15256248215E+02  0.10586738118E+02  0.33770375776E+02  0.00000000000E+00 0. -1.
        -13    1    3    3    0    0  0.86514763143E+01 -0.37483737008E+02 -0.34815682519E+02  0.51884586649E+02  0.00000000000E+00 0.  1.
         13    1    3    3    0    0 -0.12947327080E+02  0.50162258705E+02 -0.27385937093E+02  0.58599274973E+02  0.00000000000E+00 0. -1.
         21    1    1    2  502  501  0.44912889002E+01 -0.21462561564E+02 -0.22576030223E+02  0.31472056900E+02  0.00000000000E+00 0.  1.
<scales pt_clust_5="13000.00000" pt_clust_6="13000.00000" pt_clust_7="13000.00000" pt_clust_8="13000.00000" pt_clust_9="21.92745"></scales>
<clustering>
<clus scale="   21.927">  2  9  1 -1</clus>
<clus scale="   90.324">  7  8 -1 -1</clus>
<clus scale="   90.368">  2  7  1 -1</clus>
<clus scale="   92.308">  5  6 -1 -1</clus>
<clus scale="   92.351">  1  5  2 -1</clus>
</clustering>
</event>
<event>
 9    1  0.1484717E-005  0.1126622E+03  0.7546771E-02  0.1258197E+00
          1   -1    0    0  502    0  0.00000000000E+00  0.00000000000E+00  0.60727134990E+03  0.60727134990E+03  0.00000000000E+00 0. -1.
         -1   -1    0    0    0  501 -0.00000000000E+00 -0.00000000000E+00 -0.46533211322E+02  0.46533211322E+02  0.00000000000E+00 0.  1.
         23    2    1    2    0    0  0.59441007431E+02 -0.57290579034E+02  0.33110016466E+03  0.35303060230E+03  0.90486702402E+02 0.  0.
         23    2    1    2    0    0 -0.41048885669E+02  0.34549884211E+02  0.24735193516E+03  0.26658048343E+03  0.83686730155E+02 0.  0.
        -13    1    4    4    0    0 -0.17194966085E+02  0.48027874326E+02  0.22643560580E+03  0.23211080790E+03  0.00000000000E+00 0. -1.
         13    1    4    4    0    0 -0.23853919584E+02 -0.13477990115E+02  0.20916329361E+02  0.34469675528E+02  0.00000000000E+00 0.  1.
        -13    1    3    3    0    0  0.35752736396E+02 -0.73574928891E+02  0.16175271245E+03  0.18126077431E+03  0.00000000000E+00 0.  1.
         13    1    3    3    0    0  0.23688271035E+02  0.16284349857E+02  0.16934745221E+03  0.17176982799E+03  0.00000000000E+00 0. -1.
         21    1    1    2  502  501 -0.18392121762E+02  0.22740694823E+02 -0.17713961236E+02  0.34193475498E+02  0.00000000000E+00 0.  1.
<scales pt_clust_5="13000.00000" pt_clust_6="13000.00000" pt_clust_7="13000.00000" pt_clust_8="13000.00000" pt_clust_9="29.24738"></scales>
<clustering>
<clus scale="   29.247">  2  9  1 -1</clus>
<clus scale="   83.687">  5  6 -1 -1</clus>
<clus scale="   90.487">  7  8 -1 -1</clus>
<clus scale="  107.277">  1  5  2 -1</clus>
<clus scale="  107.277">  1  5  2 -1</clus>
</clustering>
</event>
<event>
 9    1  0.1484717E-005  0.2169663E+03  0.7546771E-02  0.1136171E+00
         -2   -1    0    0    0  501 -0.00000000000E+00  0.00000000000E+00  0.16889898761E+03  0.16889898761E+03  0.00000000000E+00 0.  1.
          2   -1    0    0  502    0  0.00000000000E+00 -0.00000000000E+00 -0.35837883154E+03  0.35837883154E+03  0.00000000000E+00 0. -1.
         23    2    1    2    0    0  0.19535959250E+01  0.18851832833E+03 -0.15834014110E+02  0.21029294103E+03  0.91811918575E+02 0.  0.
         23    2    1    2    0    0 -0.38151062930E+02 -0.19858009210E+03 -0.16907160121E+03  0.27913756282E+03  0.91885886086E+02 0.  0.
        -11    1    3    3    0    0 -0.33589725749E+02  0.72496696156E+02 -0.35383363982E+02  0.87384341138E+02  0.00000000000E+00 0. -1.
         11    1    3    3    0    0  0.35543321674E+02  0.11602163217E+03  0.19549349872E+02  0.12290859989E+03  0.00000000000E+00 0.  1.
        -11    1    4    4    0    0 -0.43729140952E+02 -0.16045465571E+03 -0.17352283409E+03  0.24034997037E+03  0.00000000000E+00 0. -1.
         11    1    4    4    0    0  0.55780780223E+01 -0.38125436388E+02  0.44512328735E+01  0.38787592453E+02  0.00000000000E+00 0.  1.
         21    1    1    2  502  501  0.36197467005E+02  0.10061763772E+02 -0.45742286081E+01  0.37847315296E+02  0.00000000000E+00 0.  1.
<scales pt_clust_5="13000.00000" pt_clust_6="13000.00000" pt_clust_7="13000.00000" pt_clust_8="13000.00000" pt_clust_9="37.56988"></scales>
<clustering>
<clus scale="   37.570">  1  9  2 -1</clus>
<clus scale="   91.812">  5  6 -1 -1</clus>
<clus scale="   91.886">  7  8 -1 -1</clus>
<clus scale="  216.935">  1  5  2 -1</clus>
<clus scale="  216.966">  2  5  1 -1</clus>
</clustering>
</event>
<event>
 9    1  0.1484717E-005  0.1286489E+03  0.7546771E-02  0.1236949E+00
         -1   -1    0    0    0  501 -0.00000000000E+00  0.00000000000E+00  0.14733408890E+03  0.14733408890E+03  0.00000000000E+00 0.  1.
          1   -1    0    0  502    0  0.00000000000E+00 -0.00000000000E+00 -0.22251671730E+03  0.22251671730E+03  0.00000000000E+00 0. -1.
         23    2    1    2    0    0  0.54144615190E+02 -0.12918620451E+02  0.39206351587E+02  0.11709896866E+03  0.95270668878E+02 0.  0.
         23    2    1    2    0    0  0.55705540476E+02  0.24354731919E+02 -0.32093334527E+02  0.11501870932E+03  0.92212044588E+02 0.  0.
        -13    1    4    4    0    0  0.74410267843E+02  0.11313247447E+02 -0.46096710263E+02  0.88259754279E+02  0.00000000000E+00 0. -1.
         13    1    4    4    0    0 -0.18704727368E+02  0.13041484472E+02  0.14003375736E+02  0.26758955046E+02  0.00000000000E+00 0.  1.
        -13    1    3    3    0    0  0.58422715038E+02  0.27520820143E+02  0.64873869075E+01  0.64905279929E+02  0.00000000000E+00 0. -1.
         13    1    3    3    0    0 -0.42780998478E+01 -0.40439440594E+02  0.32718964680E+02  0.52193688733E+02  0.00000000000E+00 0.  1.
         21    1    1    2  502  501 -0.10985015567E+03 -0.11436111468E+02 -0.82295645460E+02  0.13773312821E+03  0.00000000000E+00 0.  1.
<scales pt_clust_5="13000.00000" pt_clust_6="13000.00000" pt_clust_7="13000.00000" pt_clust_8="13000.00000" pt_clust_9="89.70772"></scales>
<clustering>
<clus scale="   92.212">  5  6 -1 -1</clus>
<clus scale="   95.271">  7  8 -1 -1</clus>
<clus scale="  110.341">  1  7  2 -1</clus>
<clus scale="   89.708">  2  9  1 -1</clus>
<clus scale="   89.708">  2  5  1 -1</clus>
</clustering>
</event>
<event>
 9    1  0.1484717E-005  0.2019694E+03  0.7546771E-02  0.1148282E+00
          1   -1    0    0  502    0  0.00000000000E+00  0.00000000000E+00  0.43220330708E+03  0.43220330708E+03  0.00000000000E+00 0. -1.
         -1   -1    0    0    0  501 -0.00000000000E+00 -0.00000000000E+00 -0.11221354798E+03  0.11221354798E+03  0.00000000000E+00 0.  1.
         23    2    1    2    0    0 -0.16212455188E+03 -0.37180280441E+02  0.78208798715E+02  0.20331115215E+03  0.86902616858E+02 0.  0.
         23    2    1    2    0    0  0.18745527619E+03  0.36727371001E+02  0.23329004935E+03  0.31438592949E+03  0.89027440613E+02 0.  0.
        -11    1    3    3    0    0 -0.14001879949E+03  0.10253952101E+00  0.40233032014E+02  0.14568449331E+03  0.00000000000E+00 0.  1.
         11    1    3    3    0    0 -0.22105752389E+02 -0.37282819962E+02  0.37975766701E+02  0.57626658844E+02  0.00000000000E+00 0. -1.
        -13    1    4    4    0    0  0.98454702489E+02  0.57044782653E+02  0.92751225948E+02  0.14679995090E+03  0.00000000000E+00 0.  1.
         13    1    4    4    0    0  0.89000573706E+02 -0.20317411652E+02  0.14053882340E+03  0.16758597859E+03  0.00000000000E+00 0. -1.
         21    1    1    2  502  501 -0.25330724316E+02  0.45290943929E+00  0.84909110396E+01  0.26719773420E+02  0.00000000000E+00 0. -1.
<scales pt_clust_5="13000.00000" pt_clust_6="13000.00000" pt_clust_7="13000.00000" pt_clust_8="13000.00000" pt_clust_9="25.33477"></scales>
<clustering>
<clus scale="   25.335">  2  9  1 -1</clus>
<clus scale="   86.903">  5  6 -1 -1</clus>
<clus scale="   89.027">  7  8 -1 -1</clus>
<clus scale="  201.042">  2  5  1 -1</clus>
<clus scale="  201.969">  1  5  2 -1</clus>
</clustering>
</event>
<event>
 9    1  0.1484717E-005  0.9436187E+02  0.7546771E-02  0.1294034E+00
         -2   -1    0    0    0  501 -0.00000000000E+00  0.00000000000E+00  0.38823810016E+02  0.38823810016E+02  0.00000000000E+00 0.  1.
          2   -1    0    0  502    0  0.00000000000E+00 -0.00000000000E+00 -0.33413166480E+03  0.33413166480E+03  0.00000000000E+00 0. -1.
         23    2    1    2    0    0  0.28206060761E+02  0.18966116263E+02 -0.13434994185E+03  0.16620983955E+03  0.91763328494E+02 0.  0.
         23    2    1    2    0    0 -0.16462820725E+02  0.12739646556E+02 -0.13880604730E+03  0.16632454877E+03  0.89237961080E+02 0.  0.
        -11    1    4    4    0    0  0.29595820049E+02 -0.17807011402E+02 -0.70109445747E+02  0.78155848165E+02  0.00000000000E+00 0. -1.
         11    1    4    4    0    0 -0.46058640774E+02  0.30546657958E+02 -0.68696601548E+02  0.88168700606E+02  0.00000000000E+00 0.  1.
        -13    1    3    3    0    0  0.47309549294E+02  0.57410425105E+01 -0.13479449166E+03  0.14297100407E+03  0.00000000000E+00 0. -1.
         13    1    3    3    0    0 -0.19103488532E+02  0.13225073752E+02  0.44454980252E+00  0.23238835478E+02  0.00000000000E+00 0.  1.
         21    1    1    2  502  501 -0.11743240037E+02 -0.31705762818E+02 -0.22151865635E+02  0.40421086496E+02  0.00000000000E+00 0. -1.
<scales pt_clust_5="13000.00000" pt_clust_6="13000.00000" pt_clust_7="13000.00000" pt_clust_8="13000.00000" pt_clust_9="33.81064"></scales>
<clustering>
<clus scale="   33.811">  1  9  2 -1</clus>
<clus scale="   89.238">  5  6 -1 -1</clus>
<clus scale="   91.763">  7  8 -1 -1</clus>
<clus scale="   91.908">  2  5  1 -1</clus>
<clus scale="   91.908">  2  5  1 -1</clus>
</clustering>
</event>
<event>
 9    1  0.1484717E-005  0.9559747E+02  0.7546771E-02  0.1289967E+00
          1   -1    0    0  502    0  0.00000000000E+00  0.00000000000E+00  0.42890724341E+02  0.42890724341E+02  0.00000000000E+00 0. -1.
         -1   -1    0    0    0  501 -0.00000000000E+00 -0.00000000000E+00 -0.43012679366E+03  0.43012679366E+03  0.00000000000E+00 0.  1.
         23    2    1    2    0    0  0.96978140269E+01 -0.92661603561E+01 -0.16121789620E+03  0.18559419593E+03  0.90962004057E+02 0.  0.
         23    2    1    2    0    0 -0.58305098022E+01 -0.56147296619E+02 -0.10499537687E+03  0.14979921951E+03  0.90715286687E+02 0.  0.
        -11    1    4    4    0    0  0.28490603137E+02 -0.52114918144E+02 -0.28537277194E+02  0.65894274029E+02  0.00000000000E+00 0.  1.
         11    1    4    4    0    0 -0.34321112939E+02 -0.40323784757E+01 -0.76458099676E+02  0.83904945478E+02  0.00000000000E+00 0. -1.
        -11    1    3    3    0    0  0.37353391764E+02 -0.28415933495E+02 -0.13505969385E+03  0.14298203403E+03  0.00000000000E+00 0.  1.
         11    1    3    3    0    0 -0.27655577737E+02  0.19149773139E+02 -0.26158202347E+02  0.42612161894E+02  0.00000000000E+00 0. -1.
         21    1    1    2  502  501 -0.38673042247E+01  0.65413456976E+02 -0.12102279625E+03  0.13762410257E+03  0.00000000000E+00 0. -1.
<scales pt_clust_5="13000.00000" pt_clust_6="13000.00000" pt_clust_7="13000.00000" pt_clust_8="13000.00000" pt_clust_9="65.52768"></scales>
<clustering>
<clus scale="   65.528">  2  9  1 -1</clus>
<clus scale="   90.715">  5  6 -1 -1</clus>
<clus scale="   90.962">  7  8 -1 -1</clus>
<clus scale="   95.363">  1  5  2 -1</clus>
<clus scale="   95.363">  1  5  2 -1</clus>
</clustering>
</event>
<event>
 9    1  0.1484717E-005  0.1084416E+03  0.7546771E-02  0.1263817E+00
         -2   -1    0    0    0  501 -0.00000000000E+00  0.00000000000E+00  0.74712459812E+02  0.74712459812E+02  0.00000000000E+00 0.  1.
          2   -1    0    0  502    0  0.00000000000E+00 -0.00000000000E+00 -0.51105130636E+03  0.51105130636E+03  0.00000000000E+00 0. -1.
         23    2    1    2    0    0 -0.11373119280E+02  0.89242957807E+01 -0.23576659539E+02  0.97459902979E+02  0.93453640466E+02 0.  0.
         23    2    1    2    0    0 -0.68770634189E+01 -0.64272585640E+02 -0.41488327066E+03  0.42998575833E+03  0.92635656374E+02 0.  0.
        -13    1    3    3    0    0  0.28948175573E+02 -0.27432882195E+02 -0.14374883882E+02  0.42393362465E+02  0.00000000000E+00 0. -1.
         13    1    3    3    0    0 -0.40321294853E+02  0.36357177975E+02 -0.92017756565E+01  0.55066540514E+02  0.00000000000E+00 0.  1.
        -13    1    4    4    0    0 -0.13409279951E+02  0.21190859439E+02 -0.62852351389E+02  0.67670373042E+02  0.00000000000E+00 0.  1.
         13    1    4    4    0    0  0.65322165320E+01 -0.85463445079E+02 -0.35203091927E+03  0.36231538529E+03  0.00000000000E+00 0. -1.
         21    1    1    2  502  501  0.18250182699E+02  0.55348289859E+02  0.21210836458E+01  0.58318104862E+02  0.00000000000E+00 0.  1.
<scales pt_clust_5="13000.00000" pt_clust_6="13000.00000" pt_clust_7="13000.00000" pt_clust_8="13000.00000" pt_clust_9="58.27952"></scales>
<clustering>
<clus scale="   58.280">  1  9  2 -1</clus>
<clus scale="   92.636">  7  8 -1 -1</clus>
<clus scale="   93.454">  5  6 -1 -1</clus>
<clus scale="  107.737">  2  7  1 -1</clus>
<clus scale="  107.737">  2  5  1 -1</clus>
</clustering>
</event>
<event>
 9    1  0.1484717E-005  0.1196817E+03  0.7546771E-02  0.1251594E+00
         -2   -1    0    0    0  501 -0.00000000000E+00  0.00000000000E+00  0.20024048695E+03  0.20024048695E+03  0.00000000000E+00 0.  1.
          2   -1    0    0  502    0  0.00000000000E+00 -0.00000000000E+00 -0.12585480723E+03  0.12585480723E+03  0.00000000000E+00 0. -1.
         23    2    1    2    0    0  0.90612108853E+01  0.48162074841E+02  0.11906245874E+03  0.16941400348E+03  0.11010696844E+03 0.  0.
         23    2    1    2    0    0  0.33816561170E+02 -0.42970224343E+02 -0.40508836190E+02  0.11328969710E+03  0.90573669844E+02 0.  0.
        -11    1    3    3    0    0 -0.19707190430E+02 -0.26761953507E+02  0.11414378736E+02  0.35140625380E+02  0.00000000000E+00 0. -1.
         11    1    3    3    0    0  0.28768401315E+02  0.74924028348E+02  0.10764808000E+03  0.13427337810E+03  0.00000000000E+00 0.  1.
        -11    1    4    4    0    0  0.53694979556E+02 -0.57803727016E+02 -0.20748703394E+02  0.81577756644E+02  0.00000000000E+00 0. -1.
         11    1    4    4    0    0 -0.19878418386E+02  0.14833502673E+02 -0.19760132796E+02  0.31711940451E+02  0.00000000000E+00 0.  1.
         21    1    1    2  502  501 -0.42877772055E+02 -0.51918504978E+01 -0.41679428336E+01  0.43391593604E+02  0.00000000000E+00 0. -1.
<scales pt_clust_5="13000.00000" pt_clust_6="13000.00000" pt_clust_7="13000.00000" pt_clust_8="13000.00000" pt_clust_9="43.19096"></scales>
<clustering>
<clus scale="   43.191">  2  9  1 -1</clus>
<clus scale="   90.574">  7  8 -1 -1</clus>
<clus scale="  101.999">  2  7  1 -1</clus>
<clus scale="  110.107">  5  6 -1 -1</clus>
<clus scale="   43.191">  2  5  1 -1</clus>
</clustering>
</event>
<event>
 9    1  0.1484717E-005  0.1136100E+03  0.7546771E-02  0.1257885E+00
         -4   -1    0    0    0  501 -0.00000000000E+00  0.00000000000E+00  0.10430816294E+03  0.10430816294E+03  0.00000000000E+00 0.  1.
          4   -1    0    0  502    0  0.00000000000E+00 -0.00000000000E+00 -0.22844247290E+03  0.22844247290E+03  0.00000000000E+00 0. -1.
         23    2    1    2    0    0 -0.26454392064E+02 -0.47418432335E+02 -0.88237848618E+01  0.10635445006E+03  0.91022344969E+02 0.  0.
         23    2    1    2    0    0  0.75555941056E+02  0.23520728639E+02 -0.12772828032E+03  0.17039383762E+03  0.80359326769E+02 0.  0.
        -11    1    3    3    0    0 -0.36995166044E+02 -0.68015389191E+02 -0.20980216368E+02  0.80217859334E+02  0.00000000000E+00 0.  1.
         11    1    3    3    0    0  0.10540773980E+02  0.20596956855E+02  0.12156431506E+02  0.26136590726E+02  0.00000000000E+00 0. -1.
        -13    1    4    4    0    0  0.84189543860E+02 -0.25053300793E+01 -0.10611672719E+03  0.13548031504E+03  0.00000000000E+00 0. -1.
         13    1    4    4    0    0 -0.86336028039E+01  0.26026058718E+02 -0.21611553131E+02  0.34913522574E+02  0.00000000000E+00 0.  1.
         21    1    1    2  502  501 -0.49101548992E+02  0.23897703697E+02  0.12417755228E+02  0.56002348168E+02  0.00000000000E+00 0.  1.
<scales pt_clust_5="13000.00000" pt_clust_6="13000.00000" pt_clust_7="13000.00000" pt_clust_8="13000.00000" pt_clust_9="54.60826"></scales>
<clustering>
<clus scale="   54.608">  1  9  2 -1</clus>
<clus scale="   80.359">  7  8 -1 -1</clus>
<clus scale="   91.022">  5  6 -1 -1</clus>
<clus scale="  105.261">  2  7  1 -1</clus>
<clus scale="  105.261">  2  5  1 -1</clus>
</clustering>
</event>
<event>
 9    1  0.1484717E-005  0.9221188E+02  0.7546771E-02  0.1298078E+00
          2   -1    0    0  502    0  0.00000000000E+00  0.00000000000E+00  0.56290331122E+02  0.56290331122E+02  0.00000000000E+00 0. -1.
         -2   -1    0    0    0  501 -0.00000000000E+00 -0.00000000000E+00 -0.33799901005E+03  0.33799901005E+03  0.00000000000E+00 0.  1.
         23    2    1    2    0    0 -0.95708911020E+01  0.29435190256E+02 -0.80868664168E+02  0.12585987505E+03  0.91339667842E+02 0.  0.
         23    2    1    2    0    0  0.34356029032E+01 -0.17441358364E+00 -0.30600792863E+02  0.95584947883E+02  0.90488894073E+02 0.  0.
        -13    1    3    3    0    0  0.40605184774E+02  0.86573109729E+01 -0.42142928059E+02  0.59158739415E+02  0.00000000000E+00 0. -1.
         13    1    3    3    0    0 -0.50176075876E+02  0.20777879283E+02 -0.38725736110E+02  0.66701135636E+02  0.00000000000E+00 0.  1.
        -13    1    4    4    0    0 -0.56915072248E+01 -0.28604690796E+02 -0.51467564905E+02  0.59156840917E+02  0.00000000000E+00 0.  1.
         13    1    4    4    0    0  0.91271101280E+01  0.28430277212E+02  0.20866772043E+02  0.36428106966E+02  0.00000000000E+00 0. -1.
         21    1    1    2  502  501  0.61352881988E+01 -0.29260776673E+02 -0.17023922190E+03  0.17284451824E+03  0.00000000000E+00 0. -1.
<scales pt_clust_5="13000.00000" pt_clust_6="13000.00000" pt_clust_7="13000.00000" pt_clust_8="13000.00000" pt_clust_9="29.89707"></scales>
<clustering>
<clus scale="   29.897">  2  9  1 -1</clus>
<clus scale="   90.489">  7  8 -1 -1</clus>
<clus scale="   91.340">  5  6 -1 -1</clus>
<clus scale="   91.369">  1  7  2 -1</clus>
<clus scale="   91.369">  1  5  2 -1</clus>
</clustering>
</event>
<event>
 9    1  0.1484717E-005  0.1440296E+03  0.7546771E-02  0.1208099E+00
         -1   -1    0    0    0  501 -0.00000000000E+00  0.00000000000E+00  0.13628103686E+03  0.13628103686E+03  0.00000000000E+00 0.  1.
          1   -1    0    0  502    0  0.00000000000E+00 -0.00000000000E+00 -0.48361402946E+03  0.48361402946E+03  0.00000000000E+00 0. -1.
         23    2    1    2    0    0 -0.83691143753E+02 -0.34824497669E+02  0.68283281934E+02  0.15225258048E+03  0.10149526340E+03 0.  0.
         23    2    1    2    0    0  0.83139507027E+02  0.61308444552E+02 -0.41658911366E+03  0.44113493669E+03  0.10189523908E+03 0.  0.
        -11    1    4    4    0    0  0.90144758189E+02  0.82715973372E+02 -0.36037194320E+03  0.38057318236E+03  0.00000000000E+00 0. -1.
         11    1    4    4    0    0 -0.70052511618E+01 -0.21407528819E+02 -0.56217170458E+02  0.60561754336E+02  0.00000000000E+00 0.  1.
        -13    1    3    3    0    0  0.19440824413E+02 -0.95162125033E+01 -0.62329087696E+01  0.22524500128E+02  0.00000000000E+00 0.  1.
         13    1    3    3    0    0 -0.10313196817E+03 -0.25308285166E+02  0.74516190704E+02  0.12972808036E+03  0.00000000000E+00 0. -1.
         21    1    1    2  502  501  0.55163672583E+00 -0.26483946883E+02  0.97283912265E+00  0.26507549143E+02  0.00000000000E+00 0.  1.
<scales pt_clust_5="13000.00000" pt_clust_6="13000.00000" pt_clust_7="13000.00000" pt_clust_8="13000.00000" pt_clust_9="26.48969"></scales>
<clustering>
<clus scale="   26.490">  1  9  2 -1</clus>
<clus scale="  101.495">  7  8 -1 -1</clus>
<clus scale="  101.895">  5  6 -1 -1</clus>
<clus scale="  143.747">  1  7  2 -1</clus>
<clus scale="  144.030">  2  5  1 -1</clus>
</clustering>
</event>
<event>
 9    1  0.1484717E-005  0.1156706E+03  0.7546771E-02  0.1250871E+00
          2   -1    0    0  502    0  0.00000000000E+00  0.00000000000E+00  0.39419654623E+03  0.39419654623E+03  0.00000000000E+00 0. -1.
         -2   -1    0    0    0  501 -0.00000000000E+00 -0.00000000000E+00 -0.49438021121E+02  0.49438021121E+02  0.00000000000E+00 0.  1.
         23    2    1    2    0    0 -0.32614947851E+02 -0.42799089256E+02  0.10284513843E+03  0.14838971405E+03  0.92449380064E+02 0.  0.
         23    2    1    2    0    0  0.57488001689E+02  0.55374029550E+02  0.23805489518E+03  0.26710794004E+03  0.91133775460E+02 0.  0.
        -13    1    3    3    0    0 -0.22858689738E+02 -0.24666658974E+02 -0.88804848488E+01  0.34782564204E+02  0.00000000000E+00 0.  1.
         13    1    3    3    0    0 -0.97562581133E+01 -0.18132430281E+02  0.11172562328E+03  0.11360714985E+03  0.00000000000E+00 0. -1.
        -13    1    4    4    0    0  0.81151626047E+02  0.31912702704E+02  0.18380701881E+03  0.20344293344E+03  0.00000000000E+00 0. -1.
         13    1    4    4    0    0 -0.23663624358E+02  0.23461326846E+02  0.54247876371E+02  0.63665006604E+02  0.00000000000E+00 0.  1.
         21    1    1    2  502  501 -0.24873053838E+02 -0.12574940295E+02  0.38584915010E+01  0.28136913251E+02  0.00000000000E+00 0.  1.
<scales pt_clust_5="13000.00000" pt_clust_6="13000.00000" pt_clust_7="13000.00000" pt_clust_8="13000.00000" pt_clust_9="27.87109"></scales>
<clustering>
<clus scale="   27.871">  2  9  1 -1</clus>
<clus scale="   91.134">  7  8 -1 -1</clus>
<clus scale="   92.449">  5  6 -1 -1</clus>
<clus scale="  114.622">  1  7  2 -1</clus>
<clus scale="  114.622">  1  5  2 -1</clus>
</clustering>
</event>
<event>
 9    1  0.1484717E-005  0.1211721E+03  0.7546771E-02  0.1241333E+00
          2   -1    0    0  502    0  0.00000000000E+00  0.00000000000E+00  0.14747092396E+03  0.14747092396E+03  0.00000000000E+00 0. -1.
         -2   -1    0    0    0  501 -0.00000000000E+00 -0.00000000000E+00 -0.16473423254E+03  0.16473423254E+03  0.00000000000E+00 0.  1.
         23    2    1    2    0    0 -0.68197492709E+02 -0.15257178119E+02 -0.31796053931E+02  0.11903201645E+03  0.90961268667E+02 0.  0.
         23    2    1    2    0    0  0.70050891835E+02  0.53463513902E+02  0.54779248417E+02  0.13764890938E+03  0.90448777944E+02 0.  0.
        -11    1    4    4    0    0  0.23110187947E+02 -0.22447094172E+01  0.60276325044E+02  0.64593768029E+02  0.00000000000E+00 0.  1.
         11    1    4    4    0    0  0.46940703888E+02  0.55708223319E+02 -0.54970766268E+01  0.73055141355E+02  0.00000000000E+00 0. -1.
        -13    1    3    3    0    0 -0.22200888703E+01  0.23633608731E+02  0.16117694372E+02  0.28692443746E+02  0.00000000000E+00 0. -1.
         13    1    3    3    0    0 -0.65977403838E+02 -0.38890786850E+02 -0.47913748303E+02  0.90339572699E+02  0.00000000000E+00 0.  1.
         21    1    1    2  502  501 -0.18533991265E+01 -0.38206335783E+02 -0.40246503067E+02  0.55524230670E+02  0.00000000000E+00 0.  1.
<scales pt_clust_5="13000.00000" pt_clust_6="13000.00000" pt_clust_7="13000.00000" pt_clust_8="13000.00000" pt_clust_9="38.25126"></scales>
<clustering>
<clus scale="   38.251">  2  9  1 -1</clus>
<clus scale="   90.449">  5  6 -1 -1</clus>
<clus scale="   90.961">  7  8 -1 -1</clus>
<clus scale="  120.788">  1  5  2 -1</clus>
<clus scale="  120.788">  1  5  2 -1</clus>
</clustering>
</event>
<event>
 9    1  0.1484717E-005  0.9720464E+02  0.7546771E-02  0.1288406E+00
          2   -1    0    0  502    0  0.00000000000E+00  0.00000000000E+00  0.11927801105E+03  0.11927801105E+03  0.00000000000E+00 0. -1.
         -2   -1    0    0    0  501 -0.00000000000E+00 -0.00000000000E+00 -0.36221424196E+03  0.36221424196E+03  0.00000000000E+00 0.  1.
         23    2    1    2    0    0 -0.13166416453E+02  0.42704206277E+02 -0.14176256578E+03  0.17590317757E+03  0.94065397821E+02 0.  0.
         23    2    1    2    0    0 -0.28366659236E+02  0.16685087686E+02  0.70616069870E+02  0.11913855206E+03  0.90134930836E+02 0.  0.
        -13    1    3    3    0    0  0.34833979211E+02 -0.63824896072E+01 -0.45179931602E+02  0.57405300285E+02  0.00000000000E+00 0.  1.
         13    1    3    3    0    0 -0.48000395664E+02  0.49086695885E+02 -0.96582634180E+02  0.11849787729E+03  0.00000000000E+00 0. -1.
        -13    1    4    4    0    0  0.16663328799E+02  0.31298465714E+02  0.16617809472E+01  0.35496788568E+02  0.00000000000E+00 0.  1.
         13    1    4    4    0    0 -0.45029988036E+02 -0.14613378028E+02  0.68954288923E+02  0.83641763496E+02  0.00000000000E+00 0. -1.
         21    1    1    2  502  501  0.41533075689E+02 -0.59389293964E+02 -0.17178973500E+03  0.18645052337E+03  0.00000000000E+00 0.  1.
<scales pt_clust_5="13000.00000" pt_clust_6="13000.00000" pt_clust_7="13000.00000" pt_clust_8="13000.00000" pt_clust_9="72.47127"></scales>
<clustering>
<clus scale="   72.471">  2  9  1 -1</clus>
<clus scale="   90.135">  7  8 -1 -1</clus>
<clus scale="   93.406">  1  7  2 -1</clus>
<clus scale="   94.065">  5  6 -1 -1</clus>
<clus scale="   93.406">  1  5  2 -1</clus>
</clustering>
</event>
<event>
 9    1  0.1484717E-005  0.1153037E+03  0.7546771E-02  0.1251913E+00
         -2   -1    0    0    0  501 -0.00000000000E+00  0.00000000000E+00  0.10777694285E+03  0.10777694285E+03  0.00000000000E+00 0. -1.
          2   -1    0    0  502    0  0.00000000000E+00 -0.00000000000E+00 -0.18395944907E+03  0.18395944907E+03  0.00000000000E+00 0.  1.
         23    2    1    2    0    0 -0.59258438421E+02 -0.32382113068E+02 -0.46327431961E+02  0.12110788376E+03  0.89222893838E+02 0.  0.
         23    2    1    2    0    0  0.48008240902E+02  0.57195612535E+02 -0.57775439236E+02  0.13161795216E+03  0.91701443085E+02 0.  0.
        -11    1    3    3    0    0 -0.23350780990E+02 -0.36670074475E+02  0.18206765179E+02  0.47132150737E+02  0.00000000000E+00 0. -1.
         11    1    3    3    0    0 -0.35907657431E+02  0.42879614069E+01 -0.64534197140E+02  0.73975733019E+02  0.00000000000E+00 0.  1.
        -11    1    4    4    0    0 -0.27129977659E+02  0.10253177956E+02 -0.84145171514E+01  0.30198798732E+02  0.00000000000E+00 0.  1.
         11    1    4    4    0    0  0.75138218561E+02  0.46942434580E+02 -0.49360922085E+02  0.10141915343E+03  0.00000000000E+00 0. -1.
         21    1    1    2  502  501  0.11250197519E+02 -0.24813499467E+02  0.27920364978E+02  0.39010556014E+02  0.00000000000E+00 0.  1.
<scales pt_clust_5="13000.00000" pt_clust_6="13000.00000" pt_clust_7="13000.00000" pt_clust_8="13000.00000" pt_clust_9="27.24476"></scales>
<clustering>
<clus scale="   27.245">  1  9  2 -1</clus>
<clus scale="   89.223">  5  6 -1 -1</clus>
<clus scale="   91.701">  7  8 -1 -1</clus>
<clus scale="  113.342">  1  5  2 -1</clus>
<clus scale="  115.304">  2  5  1 -1</clus>
</clustering>
</event>
<event>
 9    1  0.1484717E-005  0.9745110E+02  0.7546771E-02  0.1288046E+00
          3   -1    0    0  502    0  0.00000000000E+00  0.00000000000E+00  0.36304903709E+03  0.36304903709E+03  0.00000000000E+00 0. -1.
         -3   -1    0    0    0  501 -0.00000000000E+00 -0.00000000000E+00 -0.59158927381E+02  0.59158927381E+02  0.00000000000E+00 0.  1.
         23    2    1    2    0    0  0.22498392243E+01 -0.16847048442E+02  0.10290696359E+02  0.92524536627E+02  0.90365959457E+02 0.  0.
         23    2    1    2    0    0  0.28335969653E+02  0.12151368968E+01  0.27132097131E+03  0.28874228298E+03  0.94618353255E+02 0.  0.
        -11    1    4    4    0    0  0.56968530954E+02  0.68853510978E+01  0.10297077056E+03  0.11788045287E+03  0.00000000000E+00 0.  1.
         11    1    4    4    0    0 -0.28632561301E+02 -0.56702142010E+01  0.16835020075E+03  0.17086183011E+03  0.00000000000E+00 0. -1.
        -11    1    3    3    0    0  0.23091287177E+02 -0.34005469062E+02  0.36446697361E+02  0.54935791777E+02  0.00000000000E+00 0.  1.
         11    1    3    3    0    0 -0.20841447953E+02  0.17158420620E+02 -0.26156001002E+02  0.37588744850E+02  0.00000000000E+00 0. -1.
         21    1    1    2  502  501 -0.30585808877E+02  0.15631911545E+02  0.22278442041E+02  0.40941144867E+02  0.00000000000E+00 0.  1.
<scales pt_clust_5="13000.00000" pt_clust_6="13000.00000" pt_clust_7="13000.00000" pt_clust_8="13000.00000" pt_clust_9="34.34892"></scales>
<clustering>
<clus scale="   34.349">  2  9  1 -1</clus>
<clus scale="   90.366">  7  8 -1 -1</clus>
<clus scale="   93.328">  2  7  1 -1</clus>
<clus scale="   94.618">  5  6 -1 -1</clus>
<clus scale="   97.451">  1  5  2 -1</clus>
</clustering>
</event>
<event>
 9    1  0.1484717E-005  0.1551099E+03  0.7546771E-02  0.1194458E+00
         -2   -1    0    0    0  501 -0.00000000000E+00  0.00000000000E+00  0.32375807861E+03  0.32375807861E+03  0.00000000000E+00 0.  1.
          2   -1    0    0  502    0  0.00000000000E+00 -0.00000000000E+00 -0.34851470418E+03  0.34851470418E+03  0.00000000000E+00 0. -1.
         23    2    1    2    0    0  0.16336363396E+03  0.30507031190E+02  0.19520319122E+03  0.27187164812E+03  0.90507189423E+02 0.  0.
         23    2    1    2    0    0 -0.10304629722E+03 -0.66997544658E+02 -0.27245080695E+03  0.31250891241E+03  0.91242357312E+02 0.  0.
        -11    1    3    3    0    0  0.65366206582E+02 -0.27841295067E+02  0.10342465260E+03  0.12547723873E+03  0.00000000000E+00 0.  1.
         11    1    3    3    0    0  0.97997427378E+02  0.58348326258E+02  0.91778538618E+02  0.14639440939E+03  0.00000000000E+00 0. -1.
        -13    1    4    4    0    0 -0.39717779790E+02 -0.37172933973E+02 -0.34362845184E+02  0.64343874462E+02  0.00000000000E+00 0.  1.
         13    1    4    4    0    0 -0.63328517427E+02 -0.29824610685E+02 -0.23808796177E+03  0.24816503795E+03  0.00000000000E+00 0. -1.
         21    1    1    2  502  501 -0.60317336742E+02  0.36490513468E+02  0.52490990161E+02  0.87892222255E+02  0.00000000000E+00 0. -1.
<scales pt_clust_5="13000.00000" pt_clust_6="13000.00000" pt_clust_7="13000.00000" pt_clust_8="13000.00000" pt_clust_9="70.49637"></scales>
<clustering>
<clus scale="   70.496">  1  9  2 -1</clus>
<clus scale="   90.507">  5  6 -1 -1</clus>
<clus scale="   91.242">  7  8 -1 -1</clus>
<clus scale="  154.679">  1  5  2 -1</clus>
<clus scale="  155.110">  2  5  1 -1</clus>
</clustering>
</event>
<event>
 9    1  0.1484717E-005  0.1661876E+03  0.7546771E-02  0.1181986E+00
         -2   -1    0    0    0  501 -0.00000000000E+00  0.00000000000E+00  0.49664271684E+02  0.49664271684E+02  0.00000000000E+00 0.  1.
          2   -1    0    0  502    0  0.00000000000E+00 -0.00000000000E+00 -0.73094720961E+03  0.73094720961E+03  0.00000000000E+00 0. -1.
         23    2    1    2    0    0 -0.40228975352E+02  0.14947069984E+03 -0.25088912681E+03  0.30853919418E+03  0.91056135572E+02 0.  0.
         23    2    1    2    0    0  0.25836308026E+02 -0.12837915368E+03 -0.40866977675E+03  0.43854713444E+03  0.90354196302E+02 0.  0.
        -11    1    4    4    0    0  0.43090452759E+02 -0.49779869780E+02 -0.27282402244E+03  0.28065596337E+03  0.00000000000E+00 0.  1.
         11    1    4    4    0    0 -0.17254144733E+02 -0.78599283895E+02 -0.13584575431E+03  0.15789117107E+03  0.00000000000E+00 0. -1.
        -13    1    3    3    0    0  0.34026459990E+01  0.10123769967E+03 -0.20586392202E+03  0.22943540316E+03  0.00000000000E+00 0. -1.
         13    1    3    3    0    0 -0.43631621351E+02  0.48233000173E+02 -0.45025204790E+02  0.79103791021E+02  0.00000000000E+00 0.  1.
         21    1    1    2  502  501  0.14392667326E+02 -0.21091546167E+02 -0.21724034370E+02  0.33525152673E+02  0.00000000000E+00 0. -1.
<scales pt_clust_5="13000.00000" pt_clust_6="13000.00000" pt_clust_7="13000.00000" pt_clust_8="13000.00000" pt_clust_9="25.53433"></scales>
<clustering>
<clus scale="   25.534">  1  9  2 -1</clus>
<clus scale="   90.354">  5  6 -1 -1</clus>
<clus scale="   91.056">  7  8 -1 -1</clus>
<clus scale="  165.804">  2  5  1 -1</clus>
<clus scale="  165.804">  2  5  1 -1</clus>
</clustering>
</event>
<event>
 9    1  0.1515018E-005  0.2023043E+03  0.7546771E-02  0.1147837E+00
         -2   -1    0    0    0  501 -0.00000000000E+00  0.00000000000E+00  0.52668742330E+02  0.52668742330E+02  0.00000000000E+00 0.  1.
          2   -1    0    0  502    0  0.00000000000E+00 -0.00000000000E+00 -0.12244699302E+04  0.12244699302E+04  0.00000000000E+00 0. -1.
         23    2    1    2    0    0  0.59708727077E+02  0.15434575927E+03 -0.19857321714E+03  0.27416142707E+03  0.91353270493E+02 0.  0.
         23    2    1    2    0    0 -0.71813396611E+02 -0.17039177714E+03 -0.95070239705E+03  0.97278785687E+03  0.91052979400E+02 0.  0.
        -11    1    4    4    0    0 -0.82394829797E+02 -0.13543066828E+03 -0.86829993677E+03  0.88265234044E+03  0.00000000000E+00 0. -1.
         11    1    4    4    0    0  0.10581433186E+02 -0.34961108864E+02 -0.82402460281E+02  0.90135516427E+02  0.00000000000E+00 0.  1.
        -13    1    3    3    0    0  0.25646948700E+02  0.14992538730E+03 -0.14262988096E+03  0.20851539674E+03  0.00000000000E+00 0.  1.
         13    1    3    3    0    0  0.34061778377E+02  0.44203719746E+01 -0.55943336178E+02  0.65646030325E+02  0.00000000000E+00 0. -1.
         21    1    1    2  502  501  0.12104669534E+02  0.16046017870E+02 -0.22525573652E+02  0.30189388573E+02  0.00000000000E+00 0.  1.
<scales pt_clust_5="13000.00000" pt_clust_6="13000.00000" pt_clust_7="13000.00000" pt_clust_8="13000.00000" pt_clust_9="20.09969"></scales>
<clustering>
<clus scale="   20.100">  1  9  2 -1</clus>
<clus scale="   91.053">  5  6 -1 -1</clus>
<clus scale="   91.353">  7  8 -1 -1</clus>
<clus scale="  202.169">  2  5  1 -1</clus>
<clus scale="  202.169">  2  5  1 -1</clus>
</clustering>
</event>
<event>
 9    1  0.1484717E-005  0.2335044E+03  0.7546771E-02  0.1124262E+00
          1   -1    0    0  502    0  0.00000000000E+00  0.00000000000E+00  0.82673716290E+03  0.82673716290E+03  0.00000000000E+00 0. -1.
         -1   -1    0    0    0  501 -0.00000000000E+00 -0.00000000000E+00 -0.13260432497E+03  0.13260432497E+03  0.00000000000E+00 0.  1.
         23    2    1    2    0    0 -0.11885494472E+03 -0.18655423753E+03  0.41320779739E+02  0.24302441582E+03  0.91784957495E+02 0.  0.
         23    2    1    2    0    0  0.15619723090E+03  0.12294537397E+03  0.52630627029E+03  0.56987852442E+03  0.90830075014E+02 0.  0.
        -13    1    4    4    0    0  0.66482677828E+02  0.36183531390E+02  0.31939409930E+03  0.32824043788E+03  0.00000000000E+00 0.  1.
         13    1    4    4    0    0  0.89714553067E+02  0.86761842584E+02  0.20691217099E+03  0.24163808654E+03  0.00000000000E+00 0. -1.
        -13    1    3    3    0    0 -0.88045600566E+02 -0.68177526323E+02  0.46311133830E+02  0.12060233825E+03  0.00000000000E+00 0.  1.
         13    1    3    3    0    0 -0.30809344156E+02 -0.11837671120E+03 -0.49903540912E+01  0.12242207757E+03  0.00000000000E+00 0. -1.
         21    1    1    2  502  501 -0.37342286174E+02  0.63608863553E+02  0.12650578790E+03  0.14643854763E+03  0.00000000000E+00 0. -1.
<scales pt_clust_5="13000.00000" pt_clust_6="13000.00000" pt_clust_7="13000.00000" pt_clust_8="13000.00000" pt_clust_9="73.75997"></scales>
<clustering>
<clus scale="   73.760">  1  9  2 -1</clus>
<clus scale="   90.830">  5  6 -1 -1</clus>
<clus scale="   91.785">  7  8 -1 -1</clus>
<clus scale="  233.131">  1  5  2 -1</clus>
<clus scale="   73.760">  1  5  2 -1</clus>
</clustering>
</event>
<event>
 9    1  0.1484717E-005  0.9604369E+02  0.7546771E-02  0.1289268E+00
          1   -1    0    0  502    0  0.00000000000E+00  0.00000000000E+00  0.28095509107E+03  0.28095509107E+03  0.00000000000E+00 0. -1.
         -1   -1    0    0    0  501 -0.00000000000E+00 -0.00000000000E+00 -0.61226234852E+02  0.61226234852E+02  0.00000000000E+00 0.  1.
         23    2    1    2    0    0  0.16285188228E+02 -0.28168854285E+02  0.66996703020E+02  0.11961773500E+03  0.93601028856E+02 0.  0.
         23    2    1    2    0    0  0.29418690037E+02  0.11182723967E+02  0.14216258008E+03  0.17267282036E+03  0.92818053619E+02 0.  0.
        -11    1    4    4    0    0 -0.28698879896E+02  0.25233268998E+02  0.54847689597E+02  0.66847682276E+02  0.00000000000E+00 0. -1.
         11    1    4    4    0    0  0.58117569932E+02 -0.14050545031E+02  0.87314890479E+02  0.10582513808E+03  0.00000000000E+00 0.  1.
        -13    1    3    3    0    0  0.41343548026E+02 -0.34915302045E+02  0.74023532172E+01  0.54618331295E+02  0.00000000000E+00 0.  1.
         13    1    3    3    0    0 -0.25058359798E+02  0.67464477608E+01  0.59594349803E+02  0.64999403702E+02  0.00000000000E+00 0. -1.
         21    1    1    2  502  501 -0.45703878265E+02  0.16986130317E+02  0.10569573118E+02  0.49890770564E+02  0.00000000000E+00 0. -1.
<scales pt_clust_5="13000.00000" pt_clust_6="13000.00000" pt_clust_7="13000.00000" pt_clust_8="13000.00000" pt_clust_9="48.75831"></scales>
<clustering>
<clus scale="   48.758">  2  9  1 -1</clus>
<clus scale="   92.818">  5  6 -1 -1</clus>
<clus scale="   93.601">  7  8 -1 -1</clus>
<clus scale="   95.281">  1  5  2 -1</clus>
<clus scale="   95.281">  1  5  2 -1</clus>
</clustering>
</event>
<event>
 9    1  0.1484717E-005  0.1428820E+03  0.7546771E-02  0.1221174E+00
          1   -1    0    0  502    0  0.00000000000E+00  0.00000000000E+00  0.12218450090E+03  0.12218450090E+03  0.00000000000E+00 0. -1.
         -1   -1    0    0    0  501 -0.00000000000E+00 -0.00000000000E+00 -0.31784251498E+03  0.31784251498E+03  0.00000000000E+00 0.  1.
         23    2    1    2    0    0  0.13824803000E+02 -0.50372306857E+02 -0.19634011883E+03  0.22211996976E+03  0.89773850458E+02 0.  0.
         23    2    1    2    0    0 -0.60473034065E+02  0.40454502362E+02  0.45044001987E+02  0.15277335106E+03  0.12655899837E+03 0.  0.
        -11    1    3    3    0    0  0.42876158957E+02 -0.50763014702E+02 -0.17140151116E+03  0.18383070118E+03  0.00000000000E+00 0.  1.
         11    1    3    3    0    0 -0.29051355957E+02  0.39070784505E+00 -0.24938607672E+02  0.38289268577E+02  0.00000000000E+00 0. -1.
        -11    1    4    4    0    0 -0.83640825938E+02  0.62141502954E+02  0.57109386782E+02  0.11882270916E+03  0.00000000000E+00 0. -1.
         11    1    4    4    0    0  0.23167791873E+02 -0.21687000592E+02 -0.12065384795E+02  0.33950641897E+02  0.00000000000E+00 0.  1.
         21    1    1    2  502  501  0.46648231065E+02  0.99178044948E+01 -0.44361897233E+02  0.65133695071E+02  0.00000000000E+00 0.  1.
<scales pt_clust_5="13000.00000" pt_clust_6="13000.00000" pt_clust_7="13000.00000" pt_clust_8="13000.00000" pt_clust_9="47.69088"></scales>
<clustering>
<clus scale="   47.691">  2  9  1 -1</clus>
<clus scale="   89.774">  5  6 -1 -1</clus>
<clus scale="  111.613">  2  5  1 -1</clus>
<clus scale="  126.559">  7  8 -1 -1</clus>
<clus scale="  142.882">  1  5  2 -1</clus>
</clustering>
</event>
<event>
 9    1  0.1484717E-005  0.1004529E+03  0.7546771E-02  0.1279485E+00
          1   -1    0    0  502    0  0.00000000000E+00  0.00000000000E+00  0.25745665625E+03  0.25745665625E+03  0.00000000000E+00 0. -1.
         -1   -1    0    0    0  501 -0.00000000000E+00 -0.00000000000E+00 -0.87156518080E+02  0.87156518080E+02  0.00000000000E+00 0.  1.
         23    2    1    2    0    0 -0.19121508600E+02  0.46264985632E+00  0.66041886991E+02  0.11329377208E+03  0.90044998856E+02 0.  0.
         23    2    1    2    0    0  0.64271065756E+02  0.10009332960E+02  0.13554554151E+03  0.17539946421E+03  0.90340586571E+02 0.  0.
        -11    1    3    3    0    0  0.35692338501E+02 -0.57578231907E+01  0.33243662259E+02  0.49114525712E+02  0.00000000000E+00 0. -1.
         11    1    3    3    0    0 -0.54813847100E+02  0.62204730470E+01  0.32798224732E+02  0.64179246369E+02  0.00000000000E+00 0.  1.
        -13    1    4    4    0    0  0.43487955664E+01  0.42775382188E+02  0.50406294568E+02  0.66252848061E+02  0.00000000000E+00 0.  1.
         13    1    4    4    0    0  0.59922270190E+02 -0.32766049227E+02  0.85139246939E+02  0.10914661615E+03  0.00000000000E+00 0. -1.
         21    1    1    2  502  501 -0.45149557156E+02 -0.10471982816E+02 -0.31287290323E+02  0.55919938048E+02  0.00000000000E+00 0.  1.
<scales pt_clust_5="13000.00000" pt_clust_6="13000.00000" pt_clust_7="13000.00000" pt_clust_8="13000.00000" pt_clust_9="46.34808"></scales>
<clustering>
<clus scale="   46.348">  2  9  1 -1</clus>
<clus scale="   90.045">  5  6 -1 -1</clus>
<clus scale="   90.341">  7  8 -1 -1</clus>
<clus scale="  100.187">  2  5  1 -1</clus>
<clus scale="  100.453">  1  5  2 -1</clus>
</clustering>
</event>
<event>
 9    1  0.1484717E-005  0.1457936E+03  0.7546771E-02  0.1206053E+00
          3   -1    0    0  502    0  0.00000000000E+00  0.00000000000E+00  0.88481946794E+02  0.88481946794E+02  0.00000000000E+00 0. -1.
         -3   -1    0    0    0  501 -0.00000000000E+00 -0.00000000000E+00 -0.37746748089E+03  0.37746748089E+03  0.00000000000E+00 0.  1.
         23    2    1    2    0    0 -0.73728147784E+02 -0.77901520953E+02 -0.23197826798E+03  0.27093279935E+03  0.89923179445E+02 0.  0.
         23    2    1    2    0    0  0.98062883428E+02  0.65548896861E+02 -0.19516095070E+02  0.14864471241E+03  0.88325452588E+02 0.  0.
        -11    1    4    4    0    0  0.60369860376E+02  0.77189090374E+02  0.11222159970E+02  0.98633729469E+02  0.00000000000E+00 0. -1.
         11    1    4    4    0    0  0.37693023052E+02 -0.11640193513E+02 -0.30738255040E+02  0.50010982941E+02  0.00000000000E+00 0.  1.
        -11    1    3    3    0    0 -0.24548037022E+00 -0.51809912750E+02 -0.46060649861E+02  0.69324676598E+02  0.00000000000E+00 0. -1.
         11    1    3    3    0    0 -0.73482667413E+02 -0.26091608202E+02 -0.18591761812E+03  0.20160812275E+03  0.00000000000E+00 0.  1.
         21    1    1    2  502  501 -0.24334735645E+02  0.12352624092E+02 -0.37491171040E+02  0.46371915928E+02  0.00000000000E+00 0.  1.
<scales pt_clust_5="13000.00000" pt_clust_6="13000.00000" pt_clust_7="13000.00000" pt_clust_8="13000.00000" pt_clust_9="27.29041"></scales>
<clustering>
<clus scale="   27.290">  2  9  1 -1</clus>
<clus scale="   88.325">  5  6 -1 -1</clus>
<clus scale="   89.923">  7  8 -1 -1</clus>
<clus scale="  144.814">  1  5  2 -1</clus>
<clus scale="  144.814">  1  5  2 -1</clus>
</clustering>
</event>
<event>
 9    1  0.1484717E-005  0.1013381E+03  0.7546771E-02  0.1277811E+00
         -1   -1    0    0    0  501 -0.00000000000E+00  0.00000000000E+00  0.58609878546E+03  0.58609878546E+03  0.00000000000E+00 0.  1.
          1   -1    0    0  502    0  0.00000000000E+00 -0.00000000000E+00 -0.34429203515E+02  0.34429203515E+02  0.00000000000E+00 0. -1.
         23    2    1    2    0    0  0.23267913597E+02  0.40098167660E+02  0.24369745876E+03  0.26410051187E+03  0.90616610576E+02 0.  0.
         23    2    1    2    0    0  0.31690220942E+02 -0.45563817857E+02  0.11721785566E+03  0.15783880556E+03  0.89959609021E+02 0.  0.
        -11    1    4    4    0    0  0.39488749226E+02 -0.67094184864E+02  0.10804264638E+03  0.13316983290E+03  0.00000000000E+00 0. -1.
         11    1    4    4    0    0 -0.77985282835E+01  0.21530367007E+02  0.91752092751E+01  0.24668972660E+02  0.00000000000E+00 0.  1.
        -13    1    3    3    0    0 -0.26344429165E+02 -0.10119367805E+02  0.10142250675E+03  0.10527561649E+03  0.00000000000E+00 0. -1.
         13    1    3    3    0    0  0.49612342762E+02  0.50217535465E+02  0.14227495201E+03  0.15882489538E+03  0.00000000000E+00 0.  1.
         21    1    1    2  502  501 -0.54958134539E+02  0.54656501971E+01  0.19075426753E+03  0.19858867154E+03  0.00000000000E+00 0.  1.
<scales pt_clust_5="13000.00000" pt_clust_6="13000.00000" pt_clust_7="13000.00000" pt_clust_8="13000.00000" pt_clust_9="55.22925"></scales>
<clustering>
<clus scale="   55.229">  1  9  2 -1</clus>
<clus scale="   89.960">  5  6 -1 -1</clus>
<clus scale="   90.617">  7  8 -1 -1</clus>
<clus scale="  100.751">  2  5  1 -1</clus>
<clus scale="  100.751">  2  5  1 -1</clus>
</clustering>
</event>
<event>
 9    1  0.1484717E-005  0.1391241E+03  0.7546771E-02  0.1214564E+00
         -1   -1    0    0    0  501 -0.00000000000E+00  0.00000000000E+00  0.60657753635E+02  0.60657753635E+02  0.00000000000E+00 0.  1.
          1   -1    0    0  502    0  0.00000000000E+00 -0.00000000000E+00 -0.52152553501E+03  0.52152553501E+03  0.00000000000E+00 0. -1.
         23    2    1    2    0    0  0.59988632478E+02  0.10175966708E+03 -0.12013494627E+03  0.19228995440E+03  0.92678775211E+02 0.  0.
         23    2    1    2    0    0 -0.72087499913E+02 -0.68575647766E+02 -0.32295308886E+03  0.35034992636E+03  0.92450777093E+02 0.  0.
        -13    1    3    3    0    0  0.78397245011E+02  0.75488197567E+02 -0.11741393498E+03  0.16009568428E+03  0.00000000000E+00 0. -1.
         13    1    3    3    0    0 -0.18408612533E+02  0.26271469513E+02 -0.27210112905E+01  0.32194270115E+02  0.00000000000E+00 0.  1.
        -13    1    4    4    0    0  0.10593748085E+02 -0.27609678385E+02 -0.16324473935E+03  0.16590167801E+03  0.00000000000E+00 0. -1.
         13    1    4    4    0    0 -0.82681247999E+02 -0.40965969380E+02 -0.15970834951E+03  0.18444824835E+03  0.00000000000E+00 0.  1.
         21    1    1    2  502  501  0.12098867435E+02 -0.33184019315E+02 -0.17779746239E+02  0.39543407888E+02  0.00000000000E+00 0.  1.
<scales pt_clust_5="13000.00000" pt_clust_6="13000.00000" pt_clust_7="13000.00000" pt_clust_8="13000.00000" pt_clust_9="35.32084"></scales>
<clustering>
<clus scale="   35.321">  1  9  2 -1</clus>
<clus scale="   92.451">  7  8 -1 -1</clus>
<clus scale="   92.679">  5  6 -1 -1</clus>
<clus scale="  138.972">  2  7  1 -1</clus>
<clus scale="  138.972">  2  5  1 -1</clus>
</clustering>
</event>
<event>
 9    1  0.1484717E-005  0.1832608E+03  0.7546771E-02  0.1187870E+00
         -2   -1    0    0    0  501 -0.00000000000E+00  0.00000000000E+00  0.24517558292E+03  0.24517558292E+03  0.00000000000E+00 0.  1.
          2   -1    0    0  502    0  0.00000000000E+00 -0.00000000000E+00 -0.64487553946E+03  0.64487553946E+03  0.00000000000E+00 0. -1.
         23    2    1    2    0    0  0.43352887068E+02  0.39520247459E+02  0.98273807861E+02  0.14635162454E+03  0.91212575438E+02 0.  0.
         23    2    1    2    0    0  0.52931825699E+02 -0.16649341161E+03  0.24205596733E+02  0.19774692159E+03  0.89420913678E+02 0.  0.
        -11    1    3    3    0    0  0.50470693269E+02 -0.98861428347E+01  0.75820798613E+02  0.91617794131E+02  0.00000000000E+00 0.  1.
         11    1    3    3    0    0 -0.71178062016E+01  0.49406390294E+02  0.22453009248E+02  0.54733830410E+02  0.00000000000E+00 0. -1.
        -11    1    4    4    0    0  0.43783019712E+02 -0.12623123485E+03  0.56762733073E+02  0.14516640567E+03  0.00000000000E+00 0.  1.
         11    1    4    4    0    0  0.91488059872E+01 -0.40262176758E+02 -0.32557136340E+02  0.52580515925E+02  0.00000000000E+00 0. -1.
         21    1    1    2  502  501 -0.96284712767E+02  0.12697316415E+03 -0.52217936113E+03  0.54595257625E+03  0.00000000000E+00 0. -1.
<scales pt_clust_5="13000.00000" pt_clust_6="13000.00000" pt_clust_7="13000.00000" pt_clust_8="13000.00000" pt_clust_9="159.96378"></scales>
<clustering>
<clus scale="   89.421">  7  8 -1 -1</clus>
<clus scale="   91.213">  5  6 -1 -1</clus>
<clus scale="  108.448">  1  5  2 -1</clus>
<clus scale="  159.964">  2  9  1 -1</clus>
<clus scale="  159.964">  2  5  1 -1</clus>
</clustering>
</event>
<event>
 9    1  0.1484717E-005  0.1029016E+03  0.7546771E-02  0.1274900E+00
          1   -1    0    0  502    0  0.00000000000E+00  0.00000000000E+00  0.20866343779E+03  0.20866343779E+03  0.00000000000E+00 0. -1.
         -1   -1    0    0    0  501 -0.00000000000E+00 -0.00000000000E+00 -0.76098489306E+02  0.76098489306E+02  0.00000000000E+00 0.  1.
         23    2    1    2    0    0  0.40606442545E+02 -0.41118058421E+02  0.76568816106E+02  0.13253845350E+03  0.91455345117E+02 0.  0.
         23    2    1    2    0    0 -0.91876837673E+01  0.33522357655E+02  0.65245376940E+02  0.11860232552E+03  0.92743681250E+02 0.  0.
        -11    1    3    3    0    0  0.12972148691E+02 -0.20853088143E+02 -0.18974946369E+02  0.31035085250E+02  0.00000000000E+00 0.  1.
         11    1    3    3    0    0  0.27634293854E+02 -0.20264970277E+02  0.95543762475E+02  0.10150336825E+03  0.00000000000E+00 0. -1.
        -11    1    4    4    0    0 -0.38707578922E+02  0.36832176132E+02  0.78891554493E+01  0.54010412314E+02  0.00000000000E+00 0.  1.
         11    1    4    4    0    0  0.29519895155E+02 -0.33098184769E+01  0.57356221491E+02  0.64591913209E+02  0.00000000000E+00 0. -1.
         21    1    1    2  502  501 -0.31418758778E+02  0.75957007658E+01 -0.92492445604E+01  0.33621148080E+02  0.00000000000E+00 0. -1.
<scales pt_clust_5="13000.00000" pt_clust_6="13000.00000" pt_clust_7="13000.00000" pt_clust_8="13000.00000" pt_clust_9="32.32388"></scales>
<clustering>
<clus scale="   32.324">  2  9  1 -1</clus>
<clus scale="   91.455">  5  6 -1 -1</clus>
<clus scale="   92.744">  7  8 -1 -1</clus>
<clus scale="  101.742">  2  5  1 -1</clus>
<clus scale="  102.902">  1  5  2 -1</clus>
</clustering>
</event>
<event>
 9    1  0.1484717E-005  0.1687197E+03  0.7546771E-02  0.1179875E+00
         -1   -1    0    0    0  501 -0.00000000000E+00  0.00000000000E+00  0.20260106696E+03  0.20260106696E+03  0.00000000000E+00 0.  1.
          1   -1    0    0  502    0  0.00000000000E+00 -0.00000000000E+00 -0.21029073229E+03  0.21029073229E+03  0.00000000000E+00 0. -1.
         23    2    1    2    0    0  0.99940972265E+02  0.73171556024E+02  0.40057771205E+02  0.16124253216E+03  0.95143337110E+02 0.  0.
         23    2    1    2    0    0 -0.13932600002E+03 -0.53767415098E+02 -0.84876107825E+02  0.19414935989E+03  0.90483982317E+02 0.  0.
        -13    1    3    3    0    0  0.12609687521E+02  0.63048597495E+02 -0.78629569803E+00  0.64302007172E+02  0.00000000000E+00 0. -1.
         13    1    3    3    0    0  0.87331284744E+02  0.10122958529E+02  0.40844066903E+02  0.96940524992E+02  0.00000000000E+00 0.  1.
        -13    1    4    4    0    0 -0.50455708268E+02  0.21624580465E+02 -0.44977585969E+02  0.70967487040E+02  0.00000000000E+00 0. -1.
         13    1    4    4    0    0 -0.88870291754E+02 -0.75391995564E+02 -0.39898521856E+02  0.12318187285E+03  0.00000000000E+00 0.  1.
         21    1    1    2  502  501  0.39385027757E+02 -0.19404140925E+02  0.37128671284E+02  0.57499907198E+02  0.00000000000E+00 0.  1.
<scales pt_clust_5="13000.00000" pt_clust_6="13000.00000" pt_clust_7="13000.00000" pt_clust_8="13000.00000" pt_clust_9="43.90559"></scales>
<clustering>
<clus scale="   43.906">  1  9  2 -1</clus>
<clus scale="   90.484">  7  8 -1 -1</clus>
<clus scale="   95.143">  5  6 -1 -1</clus>
<clus scale="  166.137">  2  7  1 -1</clus>
<clus scale="  166.137">  2  5  1 -1</clus>
</clustering>
</event>
<event>
 9    1  0.1484717E-005  0.1039550E+03  0.7546771E-02  0.1286188E+00
          1   -1    0    0  502    0  0.00000000000E+00  0.00000000000E+00  0.25632441833E+03  0.25632441833E+03  0.00000000000E+00 0. -1.
         -1   -1    0    0    0  501 -0.00000000000E+00 -0.00000000000E+00 -0.12127553090E+03  0.12127553090E+03  0.00000000000E+00 0.  1.
         23    2    1    2    0    0 -0.69865299367E+00  0.36436945773E+02  0.47196121491E+02  0.10913110994E+03  0.91400142997E+02 0.  0.
         23    2    1    2    0    0 -0.31654226230E+02 -0.45713440898E+02  0.16464520213E+03  0.18462469572E+03  0.62342016063E+02 0.  0.
        -11    1    4    4    0    0 -0.32781967429E+01 -0.52271841826E+02  0.85214725181E+02  0.10002320436E+03  0.00000000000E+00 0.  1.
         11    1    4    4    0    0 -0.28376029487E+02  0.65584009273E+01  0.79430476949E+02  0.84601491361E+02  0.00000000000E+00 0. -1.
        -11    1    3    3    0    0  0.29275068746E+02 -0.16744816997E+02  0.31894052037E+01  0.33876110342E+02  0.00000000000E+00 0.  1.
         11    1    3    3    0    0 -0.29973721739E+02  0.53181762770E+02  0.44006716287E+02  0.75254999599E+02  0.00000000000E+00 0. -1.
         21    1    1    2  502  501  0.32352879224E+02  0.92764951254E+01 -0.76792436191E+02  0.83844143576E+02  0.00000000000E+00 0.  1.
<scales pt_clust_5="13000.00000" pt_clust_6="13000.00000" pt_clust_7="13000.00000" pt_clust_8="13000.00000" pt_clust_9="33.65653"></scales>
<clustering>
<clus scale="   33.657">  2  9  1 -1</clus>
<clus scale="   62.342">  5  6 -1 -1</clus>
<clus scale="   79.619">  1  5  2 -1</clus>
<clus scale="   91.400">  7  8 -1 -1</clus>
<clus scale="   79.619">  1  5  2 -1</clus>
</clustering>
</event>
<event>
 9    1  0.1484717E-005  0.1595391E+03  0.7546771E-02  0.1189400E+00
         -1   -1    0    0    0  501 -0.00000000000E+00  0.00000000000E+00  0.12084510594E+03  0.12084510594E+03  0.00000000000E+00 0.  1.
          1   -1    0    0  502    0  0.00000000000E+00 -0.00000000000E+00 -0.37985877124E+03  0.37985877124E+03  0.00000000000E+00 0. -1.
         23    2    1    2    0    0 -0.51126253628E+02 -0.13724216700E+03 -0.54738999256E+02  0.18113836247E+03  0.91462790829E+02 0.  0.
         23    2    1    2    0    0  0.56073070950E+02  0.11190450451E+03 -0.23391588280E+03  0.28025813788E+03  0.90339228481E+02 0.  0.
        -11    1    4    4    0    0 -0.13529038421E+02  0.25772628845E+02 -0.11127508435E+03  0.11501916221E+03  0.00000000000E+00 0.  1.
         11    1    4    4    0    0  0.69602109371E+02  0.86131875666E+02 -0.12264079846E+03  0.16523897567E+03  0.00000000000E+00 0. -1.
        -13    1    3    3    0    0 -0.21068727688E+02 -0.11666240958E+03 -0.74182310069E+02  0.13984643086E+03  0.00000000000E+00 0. -1.
         13    1    3    3    0    0 -0.30057525940E+02 -0.20579757415E+02  0.19443310814E+02  0.41291931613E+02  0.00000000000E+00 0.  1.
         21    1    1    2  502  501 -0.49468173225E+01  0.25337662488E+02  0.29641216766E+02  0.39307376831E+02  0.00000000000E+00 0.  1.
<scales pt_clust_5="13000.00000" pt_clust_6="13000.00000" pt_clust_7="13000.00000" pt_clust_8="13000.00000" pt_clust_9="25.81604"></scales>
<clustering>
<clus scale="   25.816">  1  9  2 -1</clus>
<clus scale="   90.339">  5  6 -1 -1</clus>
<clus scale="   91.463">  7  8 -1 -1</clus>
<clus scale="  158.898">  2  5  1 -1</clus>
<clus scale="  158.898">  2  5  1 -1</clus>
</clustering>
</event>
<event>
 9    1  0.1484717E-005  0.2178339E+03  0.7546771E-02  0.1152874E+00
          2   -1    0    0  502    0  0.00000000000E+00  0.00000000000E+00  0.58053276153E+03  0.58053276153E+03  0.00000000000E+00 0. -1.
         -2   -1    0    0    0  501 -0.00000000000E+00 -0.00000000000E+00 -0.17546782191E+03  0.17546782191E+03  0.00000000000E+00 0.  1.
         23    2    1    2    0    0  0.24419802197E+03  0.46950146179E+02  0.18541327509E+03  0.32381979481E+03  0.92974118798E+02 0.  0.
         23    2    1    2    0    0 -0.67650209048E+02 -0.96480164502E+02  0.20207041842E+03  0.24797586694E+03  0.82307980498E+02 0.  0.
        -11    1    4    4    0    0  0.15596409153E+01 -0.69301942910E+02  0.93918577331E+02  0.11672999160E+03  0.00000000000E+00 0.  1.
         11    1    4    4    0    0 -0.69209849963E+02 -0.27178221591E+02  0.10815184109E+03  0.13124587534E+03  0.00000000000E+00 0. -1.
        -13    1    3    3    0    0  0.67081066978E+01  0.25066347794E+02  0.10202925254E+02  0.27882255485E+02  0.00000000000E+00 0.  1.
         13    1    3    3    0    0  0.23748991528E+03  0.21883798385E+02  0.17521034984E+03  0.29593753932E+03  0.00000000000E+00 0. -1.
         21    1    1    2  502  501 -0.17654781293E+03  0.49530018323E+02  0.17581246103E+02  0.18420492170E+03  0.00000000000E+00 0.  1.
<scales pt_clust_5="13000.00000" pt_clust_6="13000.00000" pt_clust_7="13000.00000" pt_clust_8="13000.00000" pt_clust_9="196.99596"></scales>
<clustering>
<clus scale="   82.308">  5  6 -1 -1</clus>
<clus scale="   92.974">  7  8 -1 -1</clus>
<clus scale="  143.734">  1  5  2 -1</clus>
<clus scale="  196.996">  2  9  1 -1</clus>
<clus scale="  143.734">  1  5  2 -1</clus>
</clustering>
</event>
<event>
 9    1  0.1484717E-005  0.1259426E+03  0.7546771E-02  0.1233623E+00
         -1   -1    0    0    0  501 -0.00000000000E+00  0.00000000000E+00  0.10737353935E+03  0.10737353935E+03  0.00000000000E+00 0.  1.
          1   -1    0    0  502    0  0.00000000000E+00 -0.00000000000E+00 -0.47498297974E+03  0.47498297974E+03  0.00000000000E+00 0. -1.
         23    2    1    2    0    0  0.92714286510E+02  0.15182293655E+02  0.14210829964E+02  0.13287070968E+03  0.92877536786E+02 0.  0.
         23    2    1    2    0    0 -0.77376975291E+02 -0.33250203179E+02 -0.40028283401E+03  0.41944336066E+03  0.92809553825E+02 0.  0.
        -11    1    3    3    0    0  0.75114665388E+02 -0.12203296774E+02 -0.26647110315E+02  0.80630030985E+02  0.00000000000E+00 0. -1.
         11    1    3    3    0    0  0.17599621122E+02  0.27385590429E+02  0.40857940279E+02  0.52240678697E+02  0.00000000000E+00 0.  1.
        -13    1    4    4    0    0 -0.14606492879E+02  0.31755807338E+02 -0.10986288965E+03  0.11528935534E+03  0.00000000000E+00 0.  1.
         13    1    4    4    0    0 -0.62770482412E+02 -0.65006010517E+02 -0.29041994437E+03  0.30415400532E+03  0.00000000000E+00 0. -1.
         21    1    1    2  502  501 -0.15337311219E+02  0.18067909524E+02  0.18462563659E+02  0.30042448750E+02  0.00000000000E+00 0.  1.
<scales pt_clust_5="13000.00000" pt_clust_6="13000.00000" pt_clust_7="13000.00000" pt_clust_8="13000.00000" pt_clust_9="23.69984"></scales>
<clustering>
<clus scale="   23.700">  1  9  2 -1</clus>
<clus scale="   92.810">  7  8 -1 -1</clus>
<clus scale="   92.878">  5  6 -1 -1</clus>
<clus scale="  125.893">  2  7  1 -1</clus>
<clus scale="  125.893">  2  5  1 -1</clus>
</clustering>
</event>
<event>
 9    1  0.1484717E-005  0.1048408E+03  0.7546771E-02  0.1270805E+00
         -2   -1    0    0    0  501 -0.00000000000E+00  0.00000000000E+00  0.40920328880E+02  0.40920328880E+02  0.00000000000E+00 0.  1.
          2   -1    0    0  502    0  0.00000000000E+00 -0.00000000000E+00 -0.60830728509E+03  0.60830728509E+03  0.00000000000E+00 0. -1.
         23    2    1    2    0    0 -0.58243543746E+02 -0.85405084466E+01 -0.57206206356E+02  0.12216898695E+03  0.90484587935E+02 0.  0.
         23    2    1    2    0    0  0.22530112370E+02  0.10259373460E+02 -0.32696117136E+03  0.34038292528E+03  0.91345867653E+02 0.  0.
        -11    1    4    4    0    0 -0.62558482032E+01  0.47189384817E+02 -0.15335422815E+03  0.16057239167E+03  0.00000000000E+00 0. -1.
         11    1    4    4    0    0  0.28785960573E+02 -0.36930011357E+02 -0.17360694321E+03  0.17981053361E+03  0.00000000000E+00 0.  1.
        -13    1    3    3    0    0 -0.25799255540E+01 -0.38209087638E+02 -0.20046912293E+01  0.38348522539E+02  0.00000000000E+00 0.  1.
         13    1    3    3    0    0 -0.55663618192E+02  0.29668579192E+02 -0.55201515127E+02  0.83820464410E+02  0.00000000000E+00 0. -1.
         21    1    1    2  502  501  0.35713431376E+02 -0.17188650134E+01 -0.18321957849E+03  0.18667570174E+03  0.00000000000E+00 0.  1.
<scales pt_clust_5="13000.00000" pt_clust_6="13000.00000" pt_clust_7="13000.00000" pt_clust_8="13000.00000" pt_clust_9="35.75477"></scales>
<clustering>
<clus scale="   35.755">  2  9  1 -1</clus>
<clus scale="   90.485">  7  8 -1 -1</clus>
<clus scale="   91.346">  5  6 -1 -1</clus>
<clus scale="  104.091">  1  7  2 -1</clus>
<clus scale="   35.755">  2  5  1 -1</clus>
</clustering>
</event>
<event>
 9    1  0.1484717E-005  0.1034146E+03  0.7546771E-02  0.1274543E+00
          2   -1    0    0  502    0  0.00000000000E+00  0.00000000000E+00  0.61406653102E+03  0.61406653102E+03  0.00000000000E+00 0. -1.
         -2   -1    0    0    0  501 -0.00000000000E+00 -0.00000000000E+00 -0.25364074110E+02  0.25364074110E+02  0.00000000000E+00 0.  1.
         23    2    1    2    0    0  0.44391679709E+01  0.46611277515E+02  0.23493699213E+03  0.25645536123E+03  0.91551322370E+02 0.  0.
         23    2    1    2    0    0 -0.26457533714E+02 -0.43574769273E+02  0.34363591496E+03  0.35854909824E+03  0.88730221411E+02 0.  0.
        -11    1    3    3    0    0 -0.29368004134E+02  0.58245266461E+02  0.17371333478E+03  0.18555676602E+03  0.00000000000E+00 0.  1.
         11    1    3    3    0    0  0.33807172105E+02 -0.11633988946E+02  0.61223657349E+02  0.70898595217E+02  0.00000000000E+00 0. -1.
        -13    1    4    4    0    0  0.14436292534E+02 -0.49092534272E+02  0.26339539465E+03  0.26831999065E+03  0.00000000000E+00 0. -1.
         13    1    4    4    0    0 -0.40893826248E+02  0.55177649992E+01  0.80240520312E+02  0.90229107586E+02  0.00000000000E+00 0.  1.
         21    1    1    2  502  501  0.22018365744E+02 -0.30365082423E+01  0.10129549820E+02  0.24426145662E+02  0.00000000000E+00 0. -1.
<scales pt_clust_5="13000.00000" pt_clust_6="13000.00000" pt_clust_7="13000.00000" pt_clust_8="13000.00000" pt_clust_9="22.22676"></scales>
<clustering>
<clus scale="   22.227">  2  9  1 -1</clus>
<clus scale="   88.730">  7  8 -1 -1</clus>
<clus scale="   91.551">  5  6 -1 -1</clus>
<clus scale="  100.926">  1  7  2 -1</clus>
<clus scale="  100.926">  1  5  2 -1</clus>
</clustering>
</event>
<event>
 9    1  0.1484717E-005  0.1919764E+03  0.7546771E-02  0.1156697E+00
         -1   -1    0    0    0  501 -0.00000000000E+00  0.00000000000E+00  0.95988122970E+02  0.95988122970E+02  0.00000000000E+00 0.  1.
          1   -1    0    0  502    0  0.00000000000E+00 -0.00000000000E+00 -0.58422686110E+03  0.58422686110E+03  0.00000000000E+00 0. -1.
         23    2    1    2    0    0  0.17011974260E+03  0.62828279534E+02 -0.14413249869E+03  0.24950606553E+03  0.92687539767E+02 0.  0.
         23    2    1    2    0    0 -0.14167903245E+03 -0.80343252241E+02 -0.34977710584E+03  0.39682961824E+03  0.92745542884E+02 0.  0.
        -11    1    4    4    0    0 -0.92730144681E+01 -0.47637716195E+02 -0.65413476265E+02  0.81450989427E+02  0.00000000000E+00 0.  1.
         11    1    4    4    0    0 -0.13240601798E+03 -0.32705536046E+02 -0.28436362958E+03  0.31537862881E+03  0.00000000000E+00 0. -1.
        -11    1    3    3    0    0  0.61788687646E+02  0.45341061955E+02 -0.11098544638E+03  0.13487558388E+03  0.00000000000E+00 0. -1.
         11    1    3    3    0    0  0.10833105496E+03  0.17487217579E+02 -0.33147052311E+02  0.11463048165E+03  0.00000000000E+00 0.  1.
         21    1    1    2  502  501 -0.28440710156E+02  0.17514972706E+02  0.56708663964E+01  0.33879300299E+02  0.00000000000E+00 0. -1.
<scales pt_clust_5="13000.00000" pt_clust_6="13000.00000" pt_clust_7="13000.00000" pt_clust_8="13000.00000" pt_clust_9="33.40132"></scales>
<clustering>
<clus scale="   33.401">  1  9  2 -1</clus>
<clus scale="   92.688">  7  8 -1 -1</clus>
<clus scale="   92.746">  5  6 -1 -1</clus>
<clus scale="  191.948">  1  7  2 -1</clus>
<clus scale="  191.976">  2  5  1 -1</clus>
</clustering>
</event>
<event>
 9    1  0.1484717E-005  0.9858784E+02  0.7546771E-02  0.1283831E+00
          2   -1    0    0  502    0  0.00000000000E+00  0.00000000000E+00  0.14914299583E+03  0.14914299583E+03  0.00000000000E+00 0. -1.
         -2   -1    0    0    0  501 -0.00000000000E+00 -0.00000000000E+00 -0.11515477249E+03  0.11515477249E+03  0.00000000000E+00 0.  1.
         23    2    1    2    0    0 -0.76495729864E+01 -0.40456950880E+02 -0.78752243609E+01  0.10026000488E+03  0.91075620113E+02 0.  0.
         23    2    1    2    0    0  0.27703891561E+02  0.26800038837E+02  0.74745242198E+02  0.12317336145E+03  0.89994877913E+02 0.  0.
        -11    1    3    3    0    0 -0.37404996902E+02 -0.28263036692E+01 -0.29418402286E+02  0.47671418887E+02  0.00000000000E+00 0.  1.
         11    1    3    3    0    0  0.29755423916E+02 -0.37630647211E+02  0.21543177925E+02  0.52588585995E+02  0.00000000000E+00 0. -1.
        -13    1    4    4    0    0  0.10930048093E+02 -0.29622136436E+02  0.50402668075E+02  0.59475758653E+02  0.00000000000E+00 0.  1.
         13    1    4    4    0    0  0.16773843469E+02  0.56422175273E+02  0.24342574123E+02  0.63697602797E+02  0.00000000000E+00 0. -1.
         21    1    1    2  502  501 -0.20054318575E+02  0.13656912043E+02 -0.32881794505E+02  0.40864401989E+02  0.00000000000E+00 0.  1.
<scales pt_clust_5="13000.00000" pt_clust_6="13000.00000" pt_clust_7="13000.00000" pt_clust_8="13000.00000" pt_clust_9="24.26287"></scales>
<clustering>
<clus scale="   24.263">  2  9  1 -1</clus>
<clus scale="   89.995">  7  8 -1 -1</clus>
<clus scale="   91.076">  5  6 -1 -1</clus>
<clus scale="   97.590">  1  7  2 -1</clus>
<clus scale="   97.590">  1  5  2 -1</clus>
</clustering>
</event>
<event>
 9    1  0.1484717E-005  0.3301965E+03  0.7546771E-02  0.1071170E+00
         -1   -1    0    0    0  501 -0.00000000000E+00  0.00000000000E+00  0.32833796728E+03  0.32833796728E+03  0.00000000000E+00 0.  1.
          1   -1    0    0  502    0  0.00000000000E+00 -0.00000000000E+00 -0.72756262048E+03  0.72756262048E+03  0.00000000000E+00 0. -1.
         23    2    1    2    0    0  0.17935563527E+03 -0.23345634385E+03 -0.20163447829E+03  0.36789909510E+03  0.89571049723E+02 0.  0.
         23    2    1    2    0    0 -0.17903554868E+03  0.28414274884E+03 -0.36996086554E+03  0.50833271659E+03  0.93489460947E+02 0.  0.
        -11    1    4    4    0    0 -0.57587089985E+02  0.36077142261E+02 -0.10839179928E+03  0.12793207290E+03  0.00000000000E+00 0. -1.
         11    1    4    4    0    0 -0.12144845870E+03  0.24806560658E+03 -0.26156906627E+03  0.38040064368E+03  0.00000000000E+00 0.  1.
        -13    1    3    3    0    0  0.16040462494E+03 -0.18485117931E+03 -0.19938746322E+03  0.31568174271E+03  0.00000000000E+00 0. -1.
         13    1    3    3    0    0  0.18951010335E+02 -0.48605164545E+02 -0.22470150678E+01  0.52217352383E+02  0.00000000000E+00 0.  1.
         21    1    1    2  502  501 -0.32008659146E+00 -0.50686404987E+02  0.17237069063E+03  0.17966877607E+03  0.00000000000E+00 0. -1.
<scales pt_clust_5="13000.00000" pt_clust_6="13000.00000" pt_clust_7="13000.00000" pt_clust_8="13000.00000" pt_clust_9="50.68742"></scales>
<clustering>
<clus scale="   50.687">  1  9  2 -1</clus>
<clus scale="   89.571">  7  8 -1 -1</clus>
<clus scale="   93.489">  5  6 -1 -1</clus>
<clus scale="  329.109">  1  7  2 -1</clus>
<clus scale="  330.197">  2  5  1 -1</clus>
</clustering>
</event>
<event>
 9    1  0.1484717E-005  0.1083693E+03  0.7546771E-02  0.1265540E+00
         -2   -1    0    0    0  501 -0.00000000000E+00  0.00000000000E+00  0.26776178004E+03  0.26776178004E+03  0.00000000000E+00 0.  1.
          2   -1    0    0  502    0  0.00000000000E+00 -0.00000000000E+00 -0.13081914850E+03  0.13081914850E+03  0.00000000000E+00 0. -1.
         23    2    1    2    0    0 -0.44522585012E+02  0.23432271046E+02  0.90982568279E+02  0.13824309314E+03  0.91115274067E+02 0.  0.
         23    2    1    2    0    0 -0.58408449886E+01 -0.58194706522E+02 -0.67899307436E+02  0.13107508632E+03  0.95653661543E+02 0.  0.
        -11    1    4    4    0    0 -0.38267876974E+02  0.53521022636E+01 -0.36411625380E+02  0.53093143338E+02  0.00000000000E+00 0.  1.
         11    1    4    4    0    0  0.32427031985E+02 -0.63546808786E+02 -0.31487682056E+02  0.77981942983E+02  0.00000000000E+00 0. -1.
        -11    1    3    3    0    0  0.12460144933E+02  0.28777976815E+02  0.71008312859E+02  0.77624787642E+02  0.00000000000E+00 0.  1.
         11    1    3    3    0    0 -0.56982729945E+02 -0.53457057695E+01  0.19974255419E+02  0.60618305500E+02  0.00000000000E+00 0. -1.
         21    1    1    2  502  501  0.50363430001E+02  0.34762435476E+02  0.11385937070E+03  0.12926274908E+03  0.00000000000E+00 0.  1.
<scales pt_clust_5="13000.00000" pt_clust_6="13000.00000" pt_clust_7="13000.00000" pt_clust_8="13000.00000" pt_clust_9="61.19560"></scales>
<clustering>
<clus scale="   61.196">  1  9  2 -1</clus>
<clus scale="   91.115">  7  8 -1 -1</clus>
<clus scale="   95.654">  5  6 -1 -1</clus>
<clus scale="  104.385">  1  7  2 -1</clus>
<clus scale="  108.369">  2  5  1 -1</clus>
</clustering>
</event>
<event>
 9    1  0.1484717E-005  0.1077032E+03  0.7546771E-02  0.1265941E+00
         -1   -1    0    0    0  501 -0.00000000000E+00  0.00000000000E+00  0.28104376612E+02  0.28104376612E+02  0.00000000000E+00 0.  1.
          1   -1    0    0  502    0  0.00000000000E+00 -0.00000000000E+00 -0.84368161187E+03  0.84368161187E+03  0.00000000000E+00 0. -1.
         23    2    1    2    0    0 -0.20614810422E+02 -0.40000859989E+02 -0.22316695955E+03  0.24491801774E+03  0.90312260363E+02 0.  0.
         23    2    1    2    0    0  0.79263279406E+02 -0.10812590200E+02 -0.42546395438E+03  0.44276820474E+03  0.92868331996E+02 0.  0.
        -13    1    3    3    0    0 -0.18278174945E+02  0.25056799626E+02 -0.40595766659E+02  0.51087681073E+02  0.00000000000E+00 0.  1.
         13    1    3    3    0    0 -0.23366354769E+01 -0.65057659614E+02 -0.18257119289E+03  0.19383033667E+03  0.00000000000E+00 0. -1.
        -13    1    4    4    0    0  0.33328002754E+02 -0.50917529103E+02 -0.18825189407E+03  0.19784369123E+03  0.00000000000E+00 0. -1.
         13    1    4    4    0    0  0.45935276652E+02  0.40104938903E+02 -0.23721206031E+03  0.24492451352E+03  0.00000000000E+00 0.  1.
         21    1    1    2  502  501 -0.58648468984E+02  0.50813450188E+02 -0.16694632132E+03  0.18409976599E+03  0.00000000000E+00 0.  1.
<scales pt_clust_5="13000.00000" pt_clust_6="13000.00000" pt_clust_7="13000.00000" pt_clust_8="13000.00000" pt_clust_9="77.59929"></scales>
<clustering>
<clus scale="   77.599">  1  9  2 -1</clus>
<clus scale="   90.312">  5  6 -1 -1</clus>
<clus scale="   92.868">  7  8 -1 -1</clus>
<clus scale="  105.507">  1  5  2 -1</clus>
<clus scale="  107.703">  2  5  1 -1</clus>
</clustering>
</event>
<event>
 9    1  0.1484717E-005  0.1171034E+03  0.7546771E-02  0.1248045E+00
          2   -1    0    0  502    0  0.00000000000E+00  0.00000000000E+00  0.13624480701E+03  0.13624480701E+03  0.00000000000E+00 0. -1.
         -2   -1    0    0    0  501 -0.00000000000E+00 -0.00000000000E+00 -0.28071331872E+03  0.28071331872E+03  0.00000000000E+00 0.  1.
         23    2    1    2    0    0 -0.49158951315E+02 -0.62573011623E+02 -0.16818617207E+03  0.20729797228E+03  0.91399543520E+02 0.  0.
         23    2    1    2    0    0  0.26335854165E+02  0.67289910568E+02  0.84802342773E+02  0.14428063583E+03  0.91673089057E+02 0.  0.
        -11    1    3    3    0    0 -0.23314911834E+00 -0.56159159038E+02 -0.13912378282E+03  0.15003110494E+03  0.00000000000E+00 0.  1.
         11    1    3    3    0    0 -0.48925802197E+02 -0.64138525843E+01 -0.29062389247E+02  0.57266867335E+02  0.00000000000E+00 0. -1.
        -13    1    4    4    0    0 -0.12985148633E+02 -0.16358180457E+02  0.34888939051E+01  0.21174903390E+02  0.00000000000E+00 0.  1.
         13    1    4    4    0    0  0.39321002798E+02  0.83648091025E+02  0.81313448868E+02  0.12310573244E+03  0.00000000000E+00 0. -1.
         21    1    1    2  502  501  0.22823097150E+02 -0.47168989449E+01 -0.61084682411E+02  0.65379517622E+02  0.00000000000E+00 0.  1.
<scales pt_clust_5="13000.00000" pt_clust_6="13000.00000" pt_clust_7="13000.00000" pt_clust_8="13000.00000" pt_clust_9="23.30543"></scales>
<clustering>
<clus scale="   23.305">  2  9  1 -1</clus>
<clus scale="   91.400">  5  6 -1 -1</clus>
<clus scale="   91.673">  7  8 -1 -1</clus>
<clus scale="  116.889">  2  5  1 -1</clus>
<clus scale="  117.103">  1  5  2 -1</clus>
</clustering>
</event>
<event>
 9    1  0.1484717E-005  0.1083296E+03  0.7546771E-02  0.1265272E+00
         -2   -1    0    0    0  501 -0.00000000000E+00  0.00000000000E+00  0.44223371497E+02  0.44223371497E+02  0.00000000000E+00 0.  1.
          2   -1    0    0  502    0  0.00000000000E+00 -0.00000000000E+00 -0.60389862235E+03  0.60389862235E+03  0.00000000000E+00 0. -1.
         23    2    1    2    0    0 -0.59898954428E+02 -0.21096928461E+02 -0.65288252645E+02  0.13059793542E+03  0.93596472536E+02 0.  0.
         23    2    1    2    0    0  0.21847050258E+02 -0.11310288894E+02 -0.40034909222E+03  0.41102850495E+03  0.89776500262E+02 0.  0.
        -11    1    3    3    0    0 -0.28906501528E+00  0.26819371431E+02  0.43398586226E+01  0.27169773930E+02  0.00000000000E+00 0. -1.
         11    1    3    3    0    0 -0.59609889412E+02 -0.47916299892E+02 -0.69628111268E+02  0.10342816149E+03  0.00000000000E+00 0.  1.
        -13    1    4    4    0    0 -0.31952871856E+02 -0.16203102988E+02 -0.21510309370E+03  0.21806619978E+03  0.00000000000E+00 0.  1.
         13    1    4    4    0    0  0.53799922114E+02  0.48928140944E+01 -0.18524599852E+03  0.19296230517E+03  0.00000000000E+00 0. -1.
         21    1    1    2  502  501  0.38051904170E+02  0.32407217355E+02 -0.94037905994E+02  0.10649555348E+03  0.00000000000E+00 0. -1.
<scales pt_clust_5="13000.00000" pt_clust_6="13000.00000" pt_clust_7="13000.00000" pt_clust_8="13000.00000" pt_clust_9="49.98175"></scales>
<clustering>
<clus scale="   49.982">  2  9  1 -1</clus>
<clus scale="   89.777">  7  8 -1 -1</clus>
<clus scale="   93.596">  5  6 -1 -1</clus>
<clus scale="  105.047">  2  7  1 -1</clus>
<clus scale="   49.982">  2  5  1 -1</clus>
</clustering>
</event>
<event>
 9    1  0.1484717E-005  0.1693754E+03  0.7546771E-02  0.1178829E+00
         -1   -1    0    0    0  501 -0.00000000000E+00  0.00000000000E+00  0.10017403156E+03  0.10017403156E+03  0.00000000000E+00 0.  1.
          1   -1    0    0  502    0  0.00000000000E+00 -0.00000000000E+00 -0.59722387674E+03  0.59722387674E+03  0.00000000000E+00 0. -1.
         23    2    1    2    0    0  0.11024393053E+02 -0.12353820761E+03 -0.10176719627E+03  0.18577218674E+03  0.93656378041E+02 0.  0.
         23    2    1    2    0    0 -0.29702731813E+02  0.14314724928E+03 -0.43198000347E+03  0.46601771035E+03  0.95876982157E+02 0.  0.
        -11    1    3    3    0    0  0.52192174983E+02 -0.79710258162E+02 -0.63429334206E+02  0.11445972577E+03  0.00000000000E+00 0.  1.
         11    1    3    3    0    0 -0.41167781930E+02 -0.43827949449E+02 -0.38337862059E+02  0.71312460967E+02  0.00000000000E+00 0. -1.
        -13    1    4    4    0    0  0.28920805801E+02  0.43132149018E+02 -0.79460285265E+02  0.94924876726E+02  0.00000000000E+00 0.  1.
         13    1    4    4    0    0 -0.58623537614E+02  0.10001510026E+03 -0.35251971821E+03  0.37109283363E+03  0.00000000000E+00 0. -1.
         21    1    1    2  502  501  0.18678338759E+02 -0.19609041671E+02  0.36697354566E+02  0.45608011206E+02  0.00000000000E+00 0. -1.
<scales pt_clust_5="13000.00000" pt_clust_6="13000.00000" pt_clust_7="13000.00000" pt_clust_8="13000.00000" pt_clust_9="27.08126"></scales>
<clustering>
<clus scale="   27.081">  1  9  2 -1</clus>
<clus scale="   93.656">  5  6 -1 -1</clus>
<clus scale="   95.877">  7  8 -1 -1</clus>
<clus scale="  168.128">  1  5  2 -1</clus>
<clus scale="  169.375">  2  5  1 -1</clus>
</clustering>
</event>
<event>
 9    1  0.1484717E-005  0.2445232E+03  0.7546771E-02  0.1116979E+00
          2   -1    0    0  502    0  0.00000000000E+00  0.00000000000E+00  0.53502455731E+03  0.53502455731E+03  0.00000000000E+00 0. -1.
         -2   -1    0    0    0  501 -0.00000000000E+00 -0.00000000000E+00 -0.13953402650E+03  0.13953402650E+03  0.00000000000E+00 0.  1.
         23    2    1    2    0    0 -0.20634798768E+03  0.82754872153E+02  0.87769956226E+02  0.25515311776E+03  0.89284306586E+02 0.  0.
         23    2    1    2    0    0  0.21999781230E+03 -0.64016266363E+02  0.30977916015E+03  0.39613121346E+03  0.91976575478E+02 0.  0.
        -11    1    4    4    0    0  0.19204791192E+03 -0.18233157662E+02  0.25075119460E+03  0.31637163290E+03  0.00000000000E+00 0. -1.
         11    1    4    4    0    0  0.27949900378E+02 -0.45783108702E+02  0.59027965556E+02  0.79759580561E+02  0.00000000000E+00 0.  1.
        -13    1    3    3    0    0 -0.49444323937E+02  0.54646434872E+02  0.56142477369E+02  0.92644221509E+02  0.00000000000E+00 0. -1.
         13    1    3    3    0    0 -0.15690366374E+03  0.28108437281E+02  0.31627478857E+02  0.16250889625E+03  0.00000000000E+00 0.  1.
         21    1    1    2  502  501 -0.13649824623E+02 -0.18738605790E+02 -0.20585855707E+01  0.23274252593E+02  0.00000000000E+00 0.  1.
<scales pt_clust_5="13000.00000" pt_clust_6="13000.00000" pt_clust_7="13000.00000" pt_clust_8="13000.00000" pt_clust_9="23.18303"></scales>
<clustering>
<clus scale="   23.183">  2  9  1 -1</clus>
<clus scale="   89.284">  7  8 -1 -1</clus>
<clus scale="   91.977">  5  6 -1 -1</clus>
<clus scale="  243.523">  2  7  1 -1</clus>
<clus scale="  244.523">  1  5  2 -1</clus>
</clustering>
</event>
<event>
 9    1  0.1484717E-005  0.1361322E+03  0.7546771E-02  0.1230451E+00
         -1   -1    0    0    0  501 -0.00000000000E+00  0.00000000000E+00  0.20928394157E+03  0.20928394157E+03  0.00000000000E+00 0.  1.
          1   -1    0    0  502    0  0.00000000000E+00 -0.00000000000E+00 -0.15646263118E+03  0.15646263118E+03  0.00000000000E+00 0. -1.
         23    2    1    2    0    0 -0.52573668687E+02  0.18483849992E+02  0.22954027597E+02  0.10885748348E+03  0.90649991599E+02 0.  0.
         23    2    1    2    0    0 -0.49647115838E+02 -0.69560050274E+02 -0.20349541739E+02  0.13207083543E+03  0.98616251288E+02 0.  0.
        -11    1    4    4    0    0 -0.53863865550E+02  0.15358175156E+01  0.97325178051E+01  0.54757617280E+02  0.00000000000E+00 0.  1.
         11    1    4    4    0    0  0.42167497115E+01 -0.71095867789E+02 -0.30082059545E+02  0.77313218154E+02  0.00000000000E+00 0. -1.
        -13    1    3    3    0    0 -0.68778553417E+01 -0.34719353754E+02  0.14373190428E+02  0.38201139018E+02  0.00000000000E+00 0. -1.
         13    1    3    3    0    0 -0.45695813345E+02  0.53203203746E+02  0.85808371687E+01  0.70656344461E+02  0.00000000000E+00 0.  1.
         21    1    1    2  502  501  0.10222078452E+03  0.51076200282E+02  0.50216824529E+02  0.12481825383E+03  0.00000000000E+00 0.  1.
<scales pt_clust_5="13000.00000" pt_clust_6="13000.00000" pt_clust_7="13000.00000" pt_clust_8="13000.00000" pt_clust_9="93.84467"></scales>
<clustering>
<clus scale="   90.650">  7  8 -1 -1</clus>
<clus scale="   98.616">  5  6 -1 -1</clus>
<clus scale="  106.410">  1  7  2 -1</clus>
<clus scale="   93.845">  1  9  2 -1</clus>
<clus scale="  136.132">  2  5  1 -1</clus>
</clustering>
</event>
<event>
 9    1  0.1484717E-005  0.1358683E+03  0.7546771E-02  0.1219178E+00
          4   -1    0    0  502    0  0.00000000000E+00  0.00000000000E+00  0.75734710071E+03  0.75734710071E+03  0.00000000000E+00 0. -1.
         -4   -1    0    0    0  501 -0.00000000000E+00 -0.00000000000E+00 -0.71986603004E+02  0.71986603004E+02  0.00000000000E+00 0.  1.
         23    2    1    2    0    0  0.60498203875E+02 -0.77459071981E+02  0.14691558701E+02  0.13446424837E+03  0.90580636384E+02 0.  0.
         23    2    1    2    0    0 -0.56969072202E+02  0.10631825298E+03  0.59103708406E+03  0.61009599594E+03  0.91341356569E+02 0.  0.
        -11    1    3    3    0    0  0.80641991373E+02 -0.57412014851E+02 -0.62107146866E+01  0.99185902218E+02  0.00000000000E+00 0.  1.
         11    1    3    3    0    0 -0.20143787497E+02 -0.20047057130E+02  0.20902273387E+02  0.35278346150E+02  0.00000000000E+00 0. -1.
        -13    1    4    4    0    0  0.16894523531E+01  0.88626888627E+02  0.30791133500E+03  0.32041686887E+03  0.00000000000E+00 0.  1.
         13    1    4    4    0    0 -0.58658524555E+02  0.17691364353E+02  0.28312574906E+03  0.28967912707E+03  0.00000000000E+00 0. -1.
         21    1    1    2  502  501 -0.35291316733E+01 -0.28859180999E+02  0.79631854940E+02  0.84773459405E+02  0.00000000000E+00 0.  1.
<scales pt_clust_5="13000.00000" pt_clust_6="13000.00000" pt_clust_7="13000.00000" pt_clust_8="13000.00000" pt_clust_9="29.07417"></scales>
<clustering>
<clus scale="   29.074">  1  9  2 -1</clus>
<clus scale="   90.581">  5  6 -1 -1</clus>
<clus scale="   91.341">  7  8 -1 -1</clus>
<clus scale="  135.358">  2  5  1 -1</clus>
<clus scale="   29.074">  1  5  2 -1</clus>
</clustering>
</event>
<event>
 9    1  0.1484717E-005  0.1435481E+03  0.7546771E-02  0.1209426E+00
          2   -1    0    0  502    0  0.00000000000E+00  0.00000000000E+00  0.23164280934E+03  0.23164280934E+03  0.00000000000E+00 0. -1.
         -2   -1    0    0    0  501 -0.00000000000E+00 -0.00000000000E+00 -0.24306633529E+03  0.24306633529E+03  0.00000000000E+00 0.  1.
         23    2    1    2    0    0  0.41316479357E+02  0.55772362154E+02 -0.95421969475E+02  0.14762826771E+03  0.88719475434E+02 0.  0.
         23    2    1    2    0    0 -0.10966551048E+03 -0.52505793174E+02  0.16243291063E+03  0.22299328805E+03  0.92510396996E+02 0.  0.
        -13    1    4    4    0    0 -0.25822247154E+02 -0.36268828792E+02  0.62123485951E+01  0.44953416612E+02  0.00000000000E+00 0.  1.
         13    1    4    4    0    0 -0.83843263322E+02 -0.16236964382E+02  0.15622056204E+03  0.17803987143E+03  0.00000000000E+00 0. -1.
        -13    1    3    3    0    0 -0.19803487756E+02  0.44871295504E+02 -0.54238909881E+02  0.73126401748E+02  0.00000000000E+00 0.  1.
         13    1    3    3    0    0  0.61119967113E+02  0.10901066649E+02 -0.41183059594E+02  0.74501865959E+02  0.00000000000E+00 0. -1.
         21    1    1    2  502  501  0.68349031119E+02 -0.32665689798E+01 -0.78434467111E+02  0.10408758888E+03  0.00000000000E+00 0.  1.
<scales pt_clust_5="13000.00000" pt_clust_6="13000.00000" pt_clust_7="13000.00000" pt_clust_8="13000.00000" pt_clust_9="68.42705"></scales>
<clustering>
<clus scale="   68.427">  2  9  1 -1</clus>
<clus scale="   88.719">  7  8 -1 -1</clus>
<clus scale="   92.510">  5  6 -1 -1</clus>
<clus scale="  141.135">  2  7  1 -1</clus>
<clus scale="  143.548">  1  5  2 -1</clus>
</clustering>
</event>
<event>
 9    1  0.1484717E-005  0.1447434E+03  0.7546771E-02  0.1208034E+00
          4   -1    0    0  502    0  0.00000000000E+00  0.00000000000E+00  0.51684359010E+03  0.51684359010E+03  0.00000000000E+00 0. -1.
         -4   -1    0    0    0  501 -0.00000000000E+00 -0.00000000000E+00 -0.67770284428E+02  0.67770284428E+02  0.00000000000E+00 0.  1.
         23    2    1    2    0    0  0.72537671597E+02 -0.44713592983E+02  0.53582325870E+02  0.13830569638E+03  0.94849253061E+02 0.  0.
         23    2    1    2    0    0 -0.87255587066E+02  0.79090078952E+02  0.37579415253E+03  0.40404324200E+03  0.90337800878E+02 0.  0.
        -11    1    4    4    0    0 -0.73228365709E+02  0.99525436768E+02  0.31767415420E+03  0.34085858410E+03  0.00000000000E+00 0. -1.
         11    1    4    4    0    0 -0.14027221356E+02 -0.20435357816E+02  0.58119998333E+02  0.63184657903E+02  0.00000000000E+00 0.  1.
        -13    1    3    3    0    0  0.26845580735E+02 -0.66671813746E+01 -0.26671887328E+02  0.38425591552E+02  0.00000000000E+00 0.  1.
         13    1    3    3    0    0  0.45692090862E+02 -0.38046411608E+02  0.80254213198E+02  0.99880104824E+02  0.00000000000E+00 0. -1.
         21    1    1    2  502  501  0.14717915469E+02 -0.34376485969E+02  0.19696827270E+02  0.42264936151E+02  0.00000000000E+00 0.  1.
<scales pt_clust_5="13000.00000" pt_clust_6="13000.00000" pt_clust_7="13000.00000" pt_clust_8="13000.00000" pt_clust_9="37.39465"></scales>
<clustering>
<clus scale="   37.395">  2  9  1 -1</clus>
<clus scale="   90.338">  5  6 -1 -1</clus>
<clus scale="   94.849">  7  8 -1 -1</clus>
<clus scale="  141.828">  1  5  2 -1</clus>
<clus scale="  141.828">  1  5  2 -1</clus>
</clustering>
</event>
<event>
 9    1  0.1484717E-005  0.1034048E+03  0.7546771E-02  0.1273586E+00
         -2   -1    0    0    0  501 -0.00000000000E+00  0.00000000000E+00  0.75882442947E+02  0.75882442947E+02  0.00000000000E+00 0.  1.
          2   -1    0    0  502    0  0.00000000000E+00 -0.00000000000E+00 -0.42928547592E+03  0.42928547592E+03  0.00000000000E+00 0. -1.
         23    2    1    2    0    0 -0.19755006745E+02 -0.49533256752E+02  0.17305631914E+02  0.10699659324E+03  0.91131675360E+02 0.  0.
         23    2    1    2    0    0 -0.20991282825E+02  0.28473322016E+02 -0.28273241337E+03  0.29895639834E+03  0.90476220731E+02 0.  0.
        -11    1    4    4    0    0  0.17725319751E+02 -0.24247097835E+02 -0.64852321960E+02  0.71469800457E+02  0.00000000000E+00 0.  1.
         11    1    4    4    0    0 -0.38716602576E+02  0.52720419851E+02 -0.21788009141E+03  0.22748659788E+03  0.00000000000E+00 0. -1.
        -11    1    3    3    0    0 -0.53110983034E+02 -0.48656938106E+02  0.14805704147E+02  0.73535590159E+02  0.00000000000E+00 0. -1.
         11    1    3    3    0    0  0.33355976290E+02 -0.87631864539E+00  0.24999277661E+01  0.33461003085E+02  0.00000000000E+00 0.  1.
         21    1    1    2  502  501  0.40746289569E+02  0.21059934736E+02 -0.87976251518E+02  0.99214927284E+02  0.00000000000E+00 0. -1.
<scales pt_clust_5="13000.00000" pt_clust_6="13000.00000" pt_clust_7="13000.00000" pt_clust_8="13000.00000" pt_clust_9="45.86699"></scales>
<clustering>
<clus scale="   45.867">  2  9  1 -1</clus>
<clus scale="   90.476">  5  6 -1 -1</clus>
<clus scale="   91.132">  7  8 -1 -1</clus>
<clus scale="  102.828">  2  5  1 -1</clus>
<clus scale="   45.867">  2  5  1 -1</clus>
</clustering>
</event>
<event>
 9    1  0.1484717E-005  0.9505697E+02  0.7546771E-02  0.1291831E+00
          1   -1    0    0  502    0  0.00000000000E+00  0.00000000000E+00  0.29636176638E+03  0.29636176638E+03  0.00000000000E+00 0. -1.
         -1   -1    0    0    0  501 -0.00000000000E+00 -0.00000000000E+00 -0.93017934041E+02  0.93017934041E+02  0.00000000000E+00 0.  1.
         23    2    1    2    0    0  0.14805160034E+02  0.11434213675E+02 -0.29322508009E+02  0.96683764464E+02  0.90210901941E+02 0.  0.
         23    2    1    2    0    0 -0.25104714139E+02 -0.66841541487E+02  0.18704731692E+03  0.22018974250E+03  0.91644888557E+02 0.  0.
        -11    1    4    4    0    0 -0.45445152220E+01 -0.48109511883E+02  0.22494303443E+02  0.53302640081E+02  0.00000000000E+00 0.  1.
         11    1    4    4    0    0 -0.20560198917E+02 -0.18732029604E+02  0.16455301347E+03  0.16688710242E+03  0.00000000000E+00 0. -1.
        -11    1    3    3    0    0 -0.84355730423E+00 -0.38951989795E+02 -0.16971428164E+02  0.42497040742E+02  0.00000000000E+00 0. -1.
         11    1    3    3    0    0  0.15648717338E+02  0.50386203470E+02 -0.12351079845E+02  0.54186723722E+02  0.00000000000E+00 0.  1.
         21    1    1    2  502  501  0.10299554105E+02  0.55407327812E+02  0.45619023434E+02  0.72506193453E+02  0.00000000000E+00 0.  1.
<scales pt_clust_5="13000.00000" pt_clust_6="13000.00000" pt_clust_7="13000.00000" pt_clust_8="13000.00000" pt_clust_9="56.35648"></scales>
<clustering>
<clus scale="   56.356">  1  9  2 -1</clus>
<clus scale="   90.211">  7  8 -1 -1</clus>
<clus scale="   91.645">  5  6 -1 -1</clus>
<clus scale="   93.675">  2  7  1 -1</clus>
<clus scale="   56.356">  1  5  2 -1</clus>
</clustering>
</event>
<event>
 9    1  0.1484717E-005  0.9950133E+02  0.7546771E-02  0.1281540E+00
         -1   -1    0    0    0  501 -0.00000000000E+00  0.00000000000E+00  0.37909955317E+03  0.37909955317E+03  0.00000000000E+00 0.  1.
          1   -1    0    0  502    0  0.00000000000E+00 -0.00000000000E+00 -0.10291975237E+03  0.10291975237E+03  0.00000000000E+00 0. -1.
         23    2    1    2    0    0 -0.10176242283E+02  0.12442546153E+02  0.40845517436E+02  0.10097145724E+03  0.90931325851E+02 0.  0.
         23    2    1    2    0    0  0.10641564952E+02 -0.53736088085E+02 -0.31993426954E+02  0.11054927560E+03  0.90535920497E+02 0.  0.
        -13    1    3    3    0    0  0.67450413852E-01  0.35807236878E+02  0.59447154781E+02  0.69398321118E+02  0.00000000000E+00 0.  1.
         13    1    3    3    0    0 -0.10243692697E+02 -0.23364690725E+02 -0.18601637345E+02  0.31573136123E+02  0.00000000000E+00 0. -1.
        -13    1    4    4    0    0  0.10102596489E+00 -0.74059202737E+02 -0.36973957590E+01  0.74151510110E+02  0.00000000000E+00 0. -1.
         13    1    4    4    0    0  0.10540538987E+02  0.20323114652E+02 -0.28296031195E+02  0.36397765490E+02  0.00000000000E+00 0.  1.
         21    1    1    2  502  501 -0.46532266912E+00  0.41293541932E+02  0.26732771032E+03  0.27049857270E+03  0.00000000000E+00 0.  1.
<scales pt_clust_5="13000.00000" pt_clust_6="13000.00000" pt_clust_7="13000.00000" pt_clust_8="13000.00000" pt_clust_9="41.29616"></scales>
<clustering>
<clus scale="   41.296">  1  9  2 -1</clus>
<clus scale="   90.536">  7  8 -1 -1</clus>
<clus scale="   90.931">  5  6 -1 -1</clus>
<clus scale="   99.140">  2  7  1 -1</clus>
<clus scale="   99.140">  2  5  1 -1</clus>
</clustering>
</event>
<event>
 9    1  0.1484717E-005  0.1437348E+03  0.7546771E-02  0.1213228E+00
         -2   -1    0    0    0  501 -0.00000000000E+00  0.00000000000E+00  0.13585546264E+03  0.13585546264E+03  0.00000000000E+00 0.  1.
          2   -1    0    0  502    0  0.00000000000E+00 -0.00000000000E+00 -0.20043235158E+03  0.20043235158E+03  0.00000000000E+00 0. -1.
         23    2    1    2    0    0 -0.19590268549E+02  0.95679138948E+02  0.12145752289E+02  0.13443668776E+03  0.91582899420E+02 0.  0.
         23    2    1    2    0    0  0.60706871943E+00 -0.89361345070E+02 -0.97949198780E+02  0.17268191083E+03  0.11063081967E+03 0.  0.
        -13    1    3    3    0    0 -0.30655816430E+02  0.75667748538E+02  0.45904523730E+02  0.93662225837E+02  0.00000000000E+00 0.  1.
         13    1    3    3    0    0  0.11065547882E+02  0.20011390409E+02 -0.33758771441E+02  0.40774461925E+02  0.00000000000E+00 0. -1.
        -13    1    4    4    0    0 -0.35205944941E+02 -0.13054549085E+02  0.68724810053E+01  0.38172120798E+02  0.00000000000E+00 0.  1.
         13    1    4    4    0    0  0.35813013661E+02 -0.76306795985E+02 -0.10482167979E+03  0.13450979003E+03  0.00000000000E+00 0. -1.
         21    1    1    2  502  501  0.18983199829E+02 -0.63177938779E+01  0.21226557553E+02  0.29169215636E+02  0.00000000000E+00 0.  1.
<scales pt_clust_5="13000.00000" pt_clust_6="13000.00000" pt_clust_7="13000.00000" pt_clust_8="13000.00000" pt_clust_9="20.00691"></scales>
<clustering>
<clus scale="   20.007">  1  9  2 -1</clus>
<clus scale="   91.583">  5  6 -1 -1</clus>
<clus scale="  110.631">  7  8 -1 -1</clus>
<clus scale="  129.645">  1  5  2 -1</clus>
<clus scale="  143.735">  2  5  1 -1</clus>
</clustering>
</event>
<event>
 9    1  0.1484717E-005  0.2383619E+03  0.7546771E-02  0.1121573E+00
         -3   -1    0    0    0  501 -0.00000000000E+00  0.00000000000E+00  0.39161698760E+03  0.39161698760E+03  0.00000000000E+00 0.  1.
          3   -1    0    0  502    0  0.00000000000E+00 -0.00000000000E+00 -0.24015528466E+03  0.24015528466E+03  0.00000000000E+00 0. -1.
         23    2    1    2    0    0 -0.25342180663E+03  0.33929636440E+01 -0.46013360480E+01  0.27598645878E+03  0.10914773867E+03 0.  0.
         23    2    1    2    0    0  0.17360613550E+03  0.34653385675E+02  0.35718189834E+02  0.20645079155E+03  0.10003095933E+03 0.  0.
        -11    1    3    3    0    0 -0.40957375488E+02 -0.31987252289E+02 -0.28507625165E+02  0.59273734557E+02  0.00000000000E+00 0.  1.
         11    1    3    3    0    0 -0.21246443114E+03  0.35380215933E+02  0.23906289117E+02  0.21671272422E+03  0.00000000000E+00 0. -1.
        -11    1    4    4    0    0  0.40562214244E+02  0.55388450687E+02  0.13873103448E+02  0.70040250522E+02  0.00000000000E+00 0. -1.
         11    1    4    4    0    0  0.13304392126E+03 -0.20735065012E+02  0.21845086386E+02  0.13641054103E+03  0.00000000000E+00 0.  1.
         21    1    1    2  502  501  0.79815671132E+02 -0.38046349319E+02  0.12034484915E+03  0.14933502192E+03  0.00000000000E+00 0.  1.
<scales pt_clust_5="13000.00000" pt_clust_6="13000.00000" pt_clust_7="13000.00000" pt_clust_8="13000.00000" pt_clust_9="88.41983"></scales>
<clustering>
<clus scale="   88.420">  1  9  2 -1</clus>
<clus scale="  100.031">  7  8 -1 -1</clus>
<clus scale="  109.148">  5  6 -1 -1</clus>
<clus scale="  234.327">  2  7  1 -1</clus>
<clus scale="  234.327">  2  5  1 -1</clus>
</clustering>
</event>
<event>
 9    1  0.1484717E-005  0.1031056E+03  0.7546771E-02  0.1276469E+00
         -1   -1    0    0    0  501 -0.00000000000E+00  0.00000000000E+00  0.23457652698E+03  0.23457652698E+03  0.00000000000E+00 0.  1.
          1   -1    0    0  502    0  0.00000000000E+00 -0.00000000000E+00 -0.75744004865E+02  0.75744004865E+02  0.00000000000E+00 0. -1.
         23    2    1    2    0    0  0.16820973378E+02 -0.18780604397E+02  0.75093363580E+02  0.12054712819E+03  0.90867709416E+02 0.  0.
         23    2    1    2    0    0 -0.20088107578E+02  0.61095637631E+02  0.13346945155E+02  0.10757668895E+03  0.85196209169E+02 0.  0.
        -11    1    4    4    0    0  0.10957060149E+02  0.72594165857E+02  0.59712007914E+01  0.73658844156E+02  0.00000000000E+00 0. -1.
         11    1    4    4    0    0 -0.31045167727E+02 -0.11498528225E+02  0.73757443634E+01  0.33917844794E+02  0.00000000000E+00 0.  1.
        -11    1    3    3    0    0  0.74328250796E+01 -0.55454216202E+02  0.38664784800E+02  0.68010165173E+02  0.00000000000E+00 0.  1.
         11    1    3    3    0    0  0.93881482987E+01  0.36673611804E+02  0.36428578780E+02  0.52536963019E+02  0.00000000000E+00 0. -1.
         21    1    1    2  502  501  0.32671341996E+01 -0.42315033234E+02  0.70392213375E+02  0.82196714699E+02  0.00000000000E+00 0.  1.
<scales pt_clust_5="13000.00000" pt_clust_6="13000.00000" pt_clust_7="13000.00000" pt_clust_8="13000.00000" pt_clust_9="42.44097"></scales>
<clustering>
<clus scale="   42.441">  1  9  2 -1</clus>
<clus scale="   85.196">  5  6 -1 -1</clus>
<clus scale="   90.868">  7  8 -1 -1</clus>
<clus scale="   98.144">  2  5  1 -1</clus>
<clus scale="   98.144">  2  5  1 -1</clus>
</clustering>
</event>
<event>
 9    1  0.1484717E-005  0.1229759E+03  0.7546771E-02  0.1244748E+00
          1   -1    0    0  502    0  0.00000000000E+00  0.00000000000E+00  0.47049766340E+03  0.47049766340E+03  0.00000000000E+00 0. -1.
         -1   -1    0    0    0  501 -0.00000000000E+00 -0.00000000000E+00 -0.94468557246E+02  0.94468557246E+02  0.00000000000E+00 0.  1.
         23    2    1    2    0    0 -0.69511314519E+02  0.27750876679E+02  0.14410481159E+02  0.11859019836E+03  0.90851742845E+02 0.  0.
         23    2    1    2    0    0  0.55207723439E+02 -0.58934034866E+01  0.38954588551E+03  0.40813633438E+03  0.10838194309E+03 0.  0.
        -11    1    3    3    0    0 -0.88995328841E+02  0.36468234739E+02  0.14369204363E+02  0.97244921381E+02  0.00000000000E+00 0.  1.
         11    1    3    3    0    0  0.19484014322E+02 -0.87173580601E+01  0.41276795615E-01  0.21345276982E+02  0.00000000000E+00 0. -1.
        -13    1    4    4    0    0 -0.78643011568E+01 -0.45727714966E+02  0.17237069391E+03  0.17850637879E+03  0.00000000000E+00 0.  1.
         13    1    4    4    0    0  0.63072024596E+02  0.39834311479E+02  0.21717519159E+03  0.22962995558E+03  0.00000000000E+00 0. -1.
         21    1    1    2  502  501  0.14303591080E+02 -0.21857473192E+02 -0.27927260508E+02  0.38239687912E+02  0.00000000000E+00 0.  1.
<scales pt_clust_5="13000.00000" pt_clust_6="13000.00000" pt_clust_7="13000.00000" pt_clust_8="13000.00000" pt_clust_9="26.12167"></scales>
<clustering>
<clus scale="   26.122">  2  9  1 -1</clus>
<clus scale="   90.852">  5  6 -1 -1</clus>
<clus scale="  107.845">  2  5  1 -1</clus>
<clus scale="  108.382">  7  8 -1 -1</clus>
<clus scale="  122.976">  1  5  2 -1</clus>
</clustering>
</event>
<event>
 9    1  0.1484717E-005  0.9690938E+02  0.7546771E-02  0.1289031E+00
          3   -1    0    0  502    0  0.00000000000E+00  0.00000000000E+00  0.56393830267E+03  0.56393830267E+03  0.00000000000E+00 0. -1.
         -3   -1    0    0    0  501 -0.00000000000E+00 -0.00000000000E+00 -0.34852968503E+02  0.34852968503E+02  0.00000000000E+00 0.  1.
         23    2    1    2    0    0 -0.65922545428E+01 -0.19525050964E+02  0.18571983092E+03  0.20856238488E+03  0.92637613064E+02 0.  0.
         23    2    1    2    0    0  0.96677357190E+00 -0.28751854501E+02  0.32161008332E+03  0.33697849724E+03  0.96404658221E+02 0.  0.
        -11    1    3    3    0    0  0.66354144363E+01  0.31198859575E+02  0.12174509008E+03  0.12585413987E+03  0.00000000000E+00 0.  1.
         11    1    3    3    0    0 -0.13227668979E+02 -0.50723910539E+02  0.63974740838E+02  0.82708245008E+02  0.00000000000E+00 0. -1.
        -11    1    4    4    0    0  0.14999015566E+02  0.23342516418E+02  0.31858809468E+02  0.42247216256E+02  0.00000000000E+00 0.  1.
         11    1    4    4    0    0 -0.14032241994E+02 -0.52094370918E+02  0.28975127385E+03  0.29473128099E+03  0.00000000000E+00 0. -1.
         21    1    1    2  502  501  0.56254809709E+01  0.48276905465E+02  0.21755419929E+02  0.53250389047E+02  0.00000000000E+00 0.  1.
<scales pt_clust_5="13000.00000" pt_clust_6="13000.00000" pt_clust_7="13000.00000" pt_clust_8="13000.00000" pt_clust_9="48.60356"></scales>
<clustering>
<clus scale="   48.604">  2  9  1 -1</clus>
<clus scale="   92.638">  5  6 -1 -1</clus>
<clus scale="   93.163">  2  5  1 -1</clus>
<clus scale="   96.405">  7  8 -1 -1</clus>
<clus scale="   96.909">  1  5  2 -1</clus>
</clustering>
</event>
<event>
 9    1  0.1484717E-005  0.9585166E+02  0.7546771E-02  0.1290084E+00
          1   -1    0    0  502    0  0.00000000000E+00  0.00000000000E+00  0.58763086357E+02  0.58763086357E+02  0.00000000000E+00 0. -1.
         -1   -1    0    0    0  501 -0.00000000000E+00 -0.00000000000E+00 -0.27325767106E+03  0.27325767106E+03  0.00000000000E+00 0.  1.
         23    2    1    2    0    0 -0.31467179310E+02 -0.14046330587E+02 -0.12210641938E+03  0.15729169419E+03  0.92968901419E+02 0.  0.
         23    2    1    2    0    0 -0.76291841877E+01  0.26934110072E+02 -0.30505529394E+02  0.10040490075E+03  0.91470793338E+02 0.  0.
        -11    1    3    3    0    0  0.12443635802E+02 -0.29603942238E+02 -0.10130525084E+03  0.10627319189E+03  0.00000000000E+00 0.  1.
         11    1    3    3    0    0 -0.43910815112E+02  0.15557611651E+02 -0.20801168544E+02  0.51018502299E+02  0.00000000000E+00 0. -1.
        -13    1    4    4    0    0 -0.22726444408E+02 -0.29500148288E+02 -0.11691216536E+02  0.39031199938E+02  0.00000000000E+00 0. -1.
         13    1    4    4    0    0  0.15097260220E+02  0.56434258360E+02 -0.18814312858E+02  0.61373700810E+02  0.00000000000E+00 0.  1.
         21    1    1    2  502  501  0.39096363498E+02 -0.12887779485E+02 -0.61882635933E+02  0.74324162483E+02  0.00000000000E+00 0.  1.
<scales pt_clust_5="13000.00000" pt_clust_6="13000.00000" pt_clust_7="13000.00000" pt_clust_8="13000.00000" pt_clust_9="41.16577"></scales>
<clustering>
<clus scale="   41.166">  2  9  1 -1</clus>
<clus scale="   91.471">  7  8 -1 -1</clus>
<clus scale="   92.969">  5  6 -1 -1</clus>
<clus scale="   94.399">  1  7  2 -1</clus>
<clus scale="   94.399">  1  5  2 -1</clus>
</clustering>
</event>
<event>
 9    1  0.1484717E-005  0.9638176E+02  0.7546771E-02  0.1288846E+00
          1   -1    0    0  502    0  0.00000000000E+00  0.00000000000E+00  0.36472617825E+03  0.36472617825E+03  0.00000000000E+00 0. -1.
         -1   -1    0    0    0  501 -0.00000000000E+00 -0.00000000000E+00 -0.16792910469E+03  0.16792910469E+03  0.00000000000E+00 0.  1.
         23    2    1    2    0    0  0.43443068757E+02 -0.10078150329E+02 -0.12998170169E+03  0.16499342984E+03  0.91316590933E+02 0.  0.
         23    2    1    2    0    0 -0.27671181641E+02 -0.13110467431E+02  0.32606177646E+03  0.33960871595E+03  0.89890039649E+02 0.  0.
        -11    1    3    3    0    0  0.55945081097E+02  0.97127730866E+01 -0.12969762749E+03  0.14158271305E+03  0.00000000000E+00 0.  1.
         11    1    3    3    0    0 -0.12502012340E+02 -0.19790923416E+02 -0.28407419919E+00  0.23410716784E+02  0.00000000000E+00 0. -1.
        -11    1    4    4    0    0 -0.23975060119E+02  0.37243867994E+02  0.14201892014E+03  0.14876586601E+03  0.00000000000E+00 0.  1.
         11    1    4    4    0    0 -0.36961215216E+01 -0.50354335425E+02  0.18404285632E+03  0.19084284994E+03  0.00000000000E+00 0. -1.
         21    1    1    2  502  501 -0.15771887116E+02  0.23188617760E+02  0.71699878362E+00  0.28053137152E+02  0.00000000000E+00 0. -1.
<scales pt_clust_5="13000.00000" pt_clust_6="13000.00000" pt_clust_7="13000.00000" pt_clust_8="13000.00000" pt_clust_9="28.04397"></scales>
<clustering>
<clus scale="   28.044">  2  9  1 -1</clus>
<clus scale="   89.890">  7  8 -1 -1</clus>
<clus scale="   91.317">  5  6 -1 -1</clus>
<clus scale="   95.031">  1  7  2 -1</clus>
<clus scale="   95.031">  1  5  2 -1</clus>
</clustering>
</event>
<event>
 9    1  0.1484717E-005  0.1329441E+03  0.7546771E-02  0.1227256E+00
         -1   -1    0    0    0  501 -0.00000000000E+00  0.00000000000E+00  0.15359266939E+03  0.15359266939E+03  0.00000000000E+00 0.  1.
          1   -1    0    0  502    0  0.00000000000E+00 -0.00000000000E+00 -0.65764072365E+03  0.65764072365E+03  0.00000000000E+00 0. -1.
         23    2    1    2    0    0 -0.44373512188E+01 -0.86282092136E+02  0.11603496139E+03  0.16887686594E+03  0.87126311051E+02 0.  0.
         23    2    1    2    0    0  0.34751518036E+01  0.64347579266E+02 -0.60191768286E+03  0.61386042214E+03  0.10181862938E+03 0.  0.
        -11    1    4    4    0    0 -0.45128500577E+02  0.12987150764E+02 -0.17824425354E+03  0.18432650804E+03  0.00000000000E+00 0.  1.
         11    1    4    4    0    0  0.48603652380E+02  0.51360428502E+02 -0.42367342932E+03  0.42953391409E+03  0.00000000000E+00 0. -1.
        -13    1    3    3    0    0  0.28658301709E+02 -0.61523194401E+02  0.31595531435E+02  0.74864406181E+02  0.00000000000E+00 0.  1.
         13    1    3    3    0    0 -0.33095652928E+02 -0.24758897734E+02  0.84439429955E+02  0.94012459764E+02  0.00000000000E+00 0. -1.
         21    1    1    2  502  501  0.96219941518E+00  0.21934512870E+02 -0.18165332788E+02  0.28496104959E+02  0.00000000000E+00 0. -1.
<scales pt_clust_5="13000.00000" pt_clust_6="13000.00000" pt_clust_7="13000.00000" pt_clust_8="13000.00000" pt_clust_9="21.95561"></scales>
<clustering>
<clus scale="   21.956">  2  9  1 -1</clus>
<clus scale="   87.126">  7  8 -1 -1</clus>
<clus scale="  101.819">  5  6 -1 -1</clus>
<clus scale="  122.058">  1  7  2 -1</clus>
<clus scale="   21.956">  2  5  1 -1</clus>
</clustering>
</event>
<event>
 9    1  0.1484717E-005  0.9149662E+02  0.7546771E-02  0.1302842E+00
          1   -1    0    0  502    0  0.00000000000E+00  0.00000000000E+00  0.54456802847E+02  0.54456802847E+02  0.00000000000E+00 0. -1.
         -1   -1    0    0    0  501 -0.00000000000E+00 -0.00000000000E+00 -0.22550664993E+03  0.22550664993E+03  0.00000000000E+00 0.  1.
         23    2    1    2    0    0 -0.54678880056E+01  0.11139619207E+02 -0.82846059258E+02  0.11948272826E+03  0.85197792821E+02 0.  0.
         23    2    1    2    0    0  0.10396450869E+02  0.27003309149E+02 -0.65164761383E+02  0.11564803048E+03  0.91053588248E+02 0.  0.
        -11    1    4    4    0    0  0.37755957614E+02  0.41243803217E+02 -0.16980072065E+02  0.58437030096E+02  0.00000000000E+00 0.  1.
         11    1    4    4    0    0 -0.27359506745E+02 -0.14240494068E+02 -0.48184689318E+02  0.57211000387E+02  0.00000000000E+00 0. -1.
        -11    1    3    3    0    0 -0.10482244760E+02 -0.31512147067E+02 -0.95904594656E+01  0.34566888503E+02  0.00000000000E+00 0. -1.
         11    1    3    3    0    0  0.50143567547E+01  0.42651766274E+02 -0.73255599792E+02  0.84915839753E+02  0.00000000000E+00 0.  1.
         21    1    1    2  502  501 -0.49285628637E+01 -0.38142928355E+02 -0.23039026443E+02  0.44832694040E+02  0.00000000000E+00 0. -1.
<scales pt_clust_5="13000.00000" pt_clust_6="13000.00000" pt_clust_7="13000.00000" pt_clust_8="13000.00000" pt_clust_9="38.46003"></scales>
<clustering>
<clus scale="   38.460">  1  9  2 -1</clus>
<clus scale="   85.198">  7  8 -1 -1</clus>
<clus scale="   85.671">  2  7  1 -1</clus>
<clus scale="   91.054">  5  6 -1 -1</clus>
<clus scale="   38.460">  1  5  2 -1</clus>
</clustering>
</event>
<event>
 9    1  0.1484717E-005  0.1089926E+03  0.7546771E-02  0.1263145E+00
         -1   -1    0    0    0  501 -0.00000000000E+00  0.00000000000E+00  0.11370858181E+03  0.11370858181E+03  0.00000000000E+00 0.  1.
          1   -1    0    0  502    0  0.00000000000E+00 -0.00000000000E+00 -0.28491301073E+03  0.28491301073E+03  0.00000000000E+00 0. -1.
         23    2    1    2    0    0  0.63733400734E+01  0.81366467117E+02 -0.94747506683E+02  0.15480701519E+03  0.91252399939E+02 0.  0.
         23    2    1    2    0    0  0.55117871450E+02 -0.24425865763E+02 -0.10754641326E+03  0.15442801444E+03  0.92990203607E+02 0.  0.
        -11    1    4    4    0    0  0.21702691237E+02 -0.55975501567E+02 -0.37939066318E+02  0.71018563317E+02  0.00000000000E+00 0.  1.
         11    1    4    4    0    0  0.33415180213E+02  0.31549635804E+02 -0.69607346940E+02  0.83409451120E+02  0.00000000000E+00 0. -1.
        -11    1    3    3    0    0  0.34416311033E+02  0.75024871045E+02 -0.37325267944E+02  0.90589123892E+02  0.00000000000E+00 0. -1.
         11    1    3    3    0    0 -0.28042970960E+02  0.63415960728E+01 -0.57422238739E+02  0.64217891298E+02  0.00000000000E+00 0.  1.
         21    1    1    2  502  501 -0.61491211523E+02 -0.56940601354E+02  0.31089491025E+02  0.89386562913E+02  0.00000000000E+00 0.  1.
<scales pt_clust_5="13000.00000" pt_clust_6="13000.00000" pt_clust_7="13000.00000" pt_clust_8="13000.00000" pt_clust_9="83.80573"></scales>
<clustering>
<clus scale="   83.806">  1  9  2 -1</clus>
<clus scale="   91.252">  7  8 -1 -1</clus>
<clus scale="   92.990">  5  6 -1 -1</clus>
<clus scale="  107.514">  1  7  2 -1</clus>
<clus scale="  108.993">  2  5  1 -1</clus>
</clustering>
</event>
<event>
 9    1  0.1484717E-005  0.1069470E+03  0.7546771E-02  0.1267001E+00
          4   -1    0    0  502    0  0.00000000000E+00  0.00000000000E+00  0.17409806393E+03  0.17409806393E+03  0.00000000000E+00 0. -1.
         -4   -1    0    0    0  501 -0.00000000000E+00 -0.00000000000E+00 -0.97932831970E+02  0.97932831970E+02  0.00000000000E+00 0.  1.
         23    2    1    2    0    0 -0.42918821063E+02 -0.59978165855E+02  0.95405583590E+00  0.11794703103E+03  0.92039047825E+02 0.  0.
         23    2    1    2    0    0  0.20218602593E+02  0.41441035575E+02  0.72324995863E+02  0.12463466872E+03  0.90425352089E+02 0.  0.
        -11    1    3    3    0    0 -0.17349011072E+02 -0.31057663556E+02 -0.45365201288E+02  0.57650395824E+02  0.00000000000E+00 0.  1.
         11    1    3    3    0    0 -0.25569809991E+02 -0.28920502300E+02  0.46319257124E+02  0.60296635203E+02  0.00000000000E+00 0. -1.
        -13    1    4    4    0    0  0.44531638304E+02 -0.61611930900E+01  0.18008861933E+02  0.48428774694E+02  0.00000000000E+00 0.  1.
         13    1    4    4    0    0 -0.24313035710E+02  0.47602228665E+02  0.54316133931E+02  0.76205894027E+02  0.00000000000E+00 0. -1.
         21    1    1    2  502  501  0.22700218470E+02  0.18537130280E+02  0.28861802639E+01  0.29449196154E+02  0.00000000000E+00 0. -1.
<scales pt_clust_5="13000.00000" pt_clust_6="13000.00000" pt_clust_7="13000.00000" pt_clust_8="13000.00000" pt_clust_9="29.30742"></scales>
<clustering>
<clus scale="   29.307">  2  9  1 -1</clus>
<clus scale="   90.425">  7  8 -1 -1</clus>
<clus scale="   92.039">  5  6 -1 -1</clus>
<clus scale="  105.561">  1  7  2 -1</clus>
<clus scale="  105.561">  1  5  2 -1</clus>
</clustering>
</event>
<event>
 9    1  0.1484717E-005  0.1060670E+03  0.7546771E-02  0.1268466E+00
          2   -1    0    0  502    0  0.00000000000E+00  0.00000000000E+00  0.43089415080E+03  0.43089415080E+03  0.00000000000E+00 0. -1.
         -2   -1    0    0    0  501 -0.00000000000E+00 -0.00000000000E+00 -0.15963864428E+03  0.15963864428E+03  0.00000000000E+00 0.  1.
         23    2    1    2    0    0  0.49156743478E+02  0.54379946480E+02 -0.97728264452E+02  0.15287991671E+03  0.91912410757E+02 0.  0.
         23    2    1    2    0    0 -0.31653103545E+02 -0.41045947949E+02  0.39205248197E+03  0.40577281634E+03  0.90883117563E+02 0.  0.
        -11    1    3    3    0    0  0.15601032066E+02  0.64068682199E+02 -0.97799863020E+02  0.11795338676E+03  0.00000000000E+00 0.  1.
         11    1    3    3    0    0  0.33555711412E+02 -0.96887357183E+01  0.71598567873E-01  0.34926529953E+02  0.00000000000E+00 0. -1.
        -11    1    4    4    0    0 -0.26353782807E+02 -0.67146371138E+02  0.33678229149E+03  0.34442048267E+03  0.00000000000E+00 0. -1.
         11    1    4    4    0    0 -0.52993207378E+01  0.26100423189E+02  0.55270190485E+02  0.61352333674E+02  0.00000000000E+00 0.  1.
         21    1    1    2  502  501 -0.17503639933E+02 -0.13333998531E+02 -0.23068710996E+02  0.31880062025E+02  0.00000000000E+00 0. -1.
<scales pt_clust_5="13000.00000" pt_clust_6="13000.00000" pt_clust_7="13000.00000" pt_clust_8="13000.00000" pt_clust_9="22.00393"></scales>
<clustering>
<clus scale="   22.004">  2  9  1 -1</clus>
<clus scale="   90.883">  7  8 -1 -1</clus>
<clus scale="   91.912">  5  6 -1 -1</clus>
<clus scale="  105.176">  1  7  2 -1</clus>
<clus scale="  105.176">  1  5  2 -1</clus>
</clustering>
</event>
<event>
 9    1  0.1484717E-005  0.1035912E+03  0.7546771E-02  0.1273466E+00
         -2   -1    0    0    0  501 -0.00000000000E+00  0.00000000000E+00  0.14360690172E+03  0.14360690172E+03  0.00000000000E+00 0.  1.
          2   -1    0    0  502    0  0.00000000000E+00 -0.00000000000E+00 -0.13680070418E+03  0.13680070418E+03  0.00000000000E+00 0. -1.
         23    2    1    2    0    0  0.42461319412E+02 -0.68646021433E+02  0.58976241594E+01  0.12209819886E+03  0.91421815176E+02 0.  0.
         23    2    1    2    0    0 -0.17554379035E+02  0.25780391701E+02 -0.29816511557E+02  0.99984037468E+02  0.90194226908E+02 0.  0.
        -11    1    4    4    0    0 -0.48868755223E+02  0.12139054170E+02  0.57393825766E+01  0.50679901199E+02  0.00000000000E+00 0.  1.
         11    1    4    4    0    0  0.31314376188E+02  0.13641337530E+02 -0.35555894134E+02  0.49304136270E+02  0.00000000000E+00 0. -1.
        -13    1    3    3    0    0 -0.21250743006E+02 -0.50559152208E+02  0.99742929713E+01  0.55743236994E+02  0.00000000000E+00 0.  1.
         13    1    3    3    0    0  0.63712062418E+02 -0.18086869224E+02 -0.40766688119E+01  0.66354961868E+02  0.00000000000E+00 0. -1.
         21    1    1    2  502  501 -0.24906940377E+02  0.42865629732E+02  0.30725084931E+02  0.58325369568E+02  0.00000000000E+00 0.  1.
<scales pt_clust_5="13000.00000" pt_clust_6="13000.00000" pt_clust_7="13000.00000" pt_clust_8="13000.00000" pt_clust_9="49.57638"></scales>
<clustering>
<clus scale="   49.576">  1  9  2 -1</clus>
<clus scale="   90.194">  5  6 -1 -1</clus>
<clus scale="   91.422">  7  8 -1 -1</clus>
<clus scale="  102.509">  2  5  1 -1</clus>
<clus scale="  102.509">  2  5  1 -1</clus>
</clustering>
</event>
<event>
 9    1  0.1484717E-005  0.1025792E+03  0.7546771E-02  0.1276057E+00
          1   -1    0    0  502    0  0.00000000000E+00  0.00000000000E+00  0.25605566060E+03  0.25605566060E+03  0.00000000000E+00 0. -1.
         -1   -1    0    0    0  501 -0.00000000000E+00 -0.00000000000E+00 -0.14986733185E+03  0.14986733185E+03  0.00000000000E+00 0.  1.
         23    2    1    2    0    0  0.40863629172E+02 -0.54244203806E+02 -0.86932856952E+02  0.14058353735E+03  0.87144360232E+02 0.  0.
         23    2    1    2    0    0 -0.35339732133E+02  0.32835065016E+02  0.21271426730E+03  0.23579705322E+03  0.89587123129E+02 0.  0.
        -11    1    4    4    0    0 -0.55148265595E+02  0.13316296236E+02  0.68581766919E+02  0.89006256506E+02  0.00000000000E+00 0.  1.
         11    1    4    4    0    0  0.19808533461E+02  0.19518768780E+02  0.14413250038E+03  0.14679079671E+03  0.00000000000E+00 0. -1.
        -13    1    3    3    0    0 -0.20652397001E+02  0.85326429328E+01 -0.13976072243E+02  0.26356367212E+02  0.00000000000E+00 0. -1.
         13    1    3    3    0    0  0.61516026173E+02 -0.62776846739E+02 -0.72956784709E+02  0.11422717014E+03  0.00000000000E+00 0.  1.
         21    1    1    2  502  501 -0.55238970391E+01  0.21409138789E+02 -0.19593081604E+02  0.29542401882E+02  0.00000000000E+00 0.  1.
<scales pt_clust_5="13000.00000" pt_clust_6="13000.00000" pt_clust_7="13000.00000" pt_clust_8="13000.00000" pt_clust_9="22.11028"></scales>
<clustering>
<clus scale="   22.110">  2  9  1 -1</clus>
<clus scale="   87.144">  7  8 -1 -1</clus>
<clus scale="   89.587">  5  6 -1 -1</clus>
<clus scale="  100.453">  2  7  1 -1</clus>
<clus scale="  102.579">  1  5  2 -1</clus>
</clustering>
</event>
<event>
 9    1  0.1484717E-005  0.2138511E+03  0.7546771E-02  0.1138593E+00
          1   -1    0    0  502    0  0.00000000000E+00  0.00000000000E+00  0.87686318430E+03  0.87686318430E+03  0.00000000000E+00 0. -1.
         -1   -1    0    0    0  501 -0.00000000000E+00 -0.00000000000E+00 -0.95749393566E+02  0.95749393566E+02  0.00000000000E+00 0.  1.
         23    2    1    2    0    0 -0.48948595330E+02 -0.18444762413E+03  0.22935843451E+03  0.31207150138E+03  0.91468242887E+02 0.  0.
         23    2    1    2    0    0  0.72761032537E+02  0.18082191778E+03  0.58281221027E+03  0.62123832728E+03  0.90973914030E+02 0.  0.
        -11    1    4    4    0    0  0.21458731515E+02  0.13223423789E+03  0.28148321845E+03  0.31173574242E+03  0.00000000000E+00 0.  1.
         11    1    4    4    0    0  0.51302301023E+02  0.48587679891E+02  0.30132899182E+03  0.30950258486E+03  0.00000000000E+00 0. -1.
        -11    1    3    3    0    0  0.27082453386E+02 -0.59212053179E+02  0.70971321489E+02  0.96314355093E+02  0.00000000000E+00 0. -1.
         11    1    3    3    0    0 -0.76031048716E+02 -0.12523557095E+03  0.15838711303E+03  0.21575714629E+03  0.00000000000E+00 0.  1.
         21    1    1    2  502  501 -0.23812437207E+02  0.36257063487E+01 -0.31056854048E+02  0.39302749212E+02  0.00000000000E+00 0.  1.
<scales pt_clust_5="13000.00000" pt_clust_6="13000.00000" pt_clust_7="13000.00000" pt_clust_8="13000.00000" pt_clust_9="24.08688"></scales>
<clustering>
<clus scale="   24.087">  2  9  1 -1</clus>
<clus scale="   90.974">  5  6 -1 -1</clus>
<clus scale="   91.468">  7  8 -1 -1</clus>
<clus scale="  213.640">  1  5  2 -1</clus>
<clus scale="  213.640">  1  5  2 -1</clus>
</clustering>
</event>
<event>
 9    1  0.1484717E-005  0.9999282E+02  0.7546771E-02  0.1281125E+00
          1   -1    0    0  502    0  0.00000000000E+00  0.00000000000E+00  0.20536286675E+03  0.20536286675E+03  0.00000000000E+00 0. -1.
         -1   -1    0    0    0  501 -0.00000000000E+00 -0.00000000000E+00 -0.68136321100E+02  0.68136321100E+02  0.00000000000E+00 0.  1.
         23    2    1    2    0    0  0.19698147529E+02 -0.37285041127E+02  0.52958939169E+02  0.10816362952E+03  0.84359529426E+02 0.  0.
         23    2    1    2    0    0 -0.12289031111E+01  0.61271848004E+02  0.84050622222E+02  0.13506136180E+03  0.86147053313E+02 0.  0.
        -13    1    4    4    0    0 -0.14759154279E+02  0.27890633725E+02 -0.10998088571E+02  0.33416732887E+02  0.00000000000E+00 0.  1.
         13    1    4    4    0    0  0.13530251167E+02  0.33381214279E+02  0.95048710792E+02  0.10164462891E+03  0.00000000000E+00 0. -1.
        -13    1    3    3    0    0 -0.23200201721E+02 -0.41902155064E+02  0.13668103204E+02  0.49808202177E+02  0.00000000000E+00 0.  1.
         13    1    3    3    0    0  0.42898349250E+02  0.46171139371E+01  0.39290835965E+02  0.58355427342E+02  0.00000000000E+00 0. -1.
         21    1    1    2  502  501 -0.18469244418E+02 -0.23986806877E+02  0.21698425964E+00  0.30274196533E+02  0.00000000000E+00 0.  1.
<scales pt_clust_5="13000.00000" pt_clust_6="13000.00000" pt_clust_7="13000.00000" pt_clust_8="13000.00000" pt_clust_9="30.27342"></scales>
<clustering>
<clus scale="   30.273">  2  9  1 -1</clus>
<clus scale="   84.360">  7  8 -1 -1</clus>
<clus scale="   86.147">  5  6 -1 -1</clus>
<clus scale="   98.457">  2  7  1 -1</clus>
<clus scale="   99.993">  1  5  2 -1</clus>
</clustering>
</event>
<event>
 9    1  0.1484717E-005  0.2060601E+03  0.7546771E-02  0.1144756E+00
         -2   -1    0    0    0  501 -0.00000000000E+00  0.00000000000E+00  0.51136915879E+03  0.51136915879E+03  0.00000000000E+00 0.  1.
          2   -1    0    0  502    0  0.00000000000E+00 -0.00000000000E+00 -0.17714252656E+03  0.17714252656E+03  0.00000000000E+00 0. -1.
         23    2    1    2    0    0  0.96317572510E+02 -0.13497941149E+03  0.17128445747E+03  0.25488491953E+03  0.90174500483E+02 0.  0.
         23    2    1    2    0    0 -0.13282642027E+03  0.14072822480E+03 -0.48660523451E+02  0.21882069813E+03  0.89818484797E+02 0.  0.
        -11    1    3    3    0    0  0.83607946027E+02 -0.81166072895E+02  0.16083803126E+03  0.19861292085E+03  0.00000000000E+00 0.  1.
         11    1    3    3    0    0  0.12709626482E+02 -0.53813338592E+02  0.10446426206E+02  0.56271998687E+02  0.00000000000E+00 0. -1.
        -13    1    4    4    0    0 -0.80897873425E+01  0.44279329298E+02  0.16870082985E+02  0.48069775975E+02  0.00000000000E+00 0.  1.
         13    1    4    4    0    0 -0.12473663293E+03  0.96448895502E+02 -0.65530606436E+02  0.17075092216E+03  0.00000000000E+00 0. -1.
         21    1    1    2  502  501  0.36508847760E+02 -0.57488133134E+01  0.21160269822E+03  0.21480606768E+03  0.00000000000E+00 0.  1.
<scales pt_clust_5="13000.00000" pt_clust_6="13000.00000" pt_clust_7="13000.00000" pt_clust_8="13000.00000" pt_clust_9="36.95869"></scales>
<clustering>
<clus scale="   36.959">  1  9  2 -1</clus>
<clus scale="   89.818">  7  8 -1 -1</clus>
<clus scale="   90.175">  5  6 -1 -1</clus>
<clus scale="  205.905">  2  7  1 -1</clus>
<clus scale="  205.905">  2  5  1 -1</clus>
</clustering>
</event>
<event>
 9    1  0.1484717E-005  0.1297495E+03  0.7546771E-02  0.1235934E+00
          1   -1    0    0  502    0  0.00000000000E+00  0.00000000000E+00  0.74329707726E+03  0.74329707726E+03  0.00000000000E+00 0. -1.
         -1   -1    0    0    0  501 -0.00000000000E+00 -0.00000000000E+00 -0.91835572804E+02  0.91835572804E+02  0.00000000000E+00 0.  1.
         23    2    1    2    0    0 -0.13487226407E+03 -0.10883328165E+02  0.32916443544E+03  0.37391610764E+03  0.11469549051E+03 0.  0.
         23    2    1    2    0    0  0.37371727879E+02  0.38795055369E+01  0.34663531956E+03  0.36048045888E+03  0.91533708896E+02 0.  0.
        -11    1    4    4    0    0 -0.30368098390E+02  0.34012059022E+01  0.89561409470E+02  0.94631050231E+02  0.00000000000E+00 0.  1.
         11    1    4    4    0    0  0.67739826269E+02  0.47829963466E+00  0.25707391008E+03  0.26584940865E+03  0.00000000000E+00 0. -1.
        -11    1    3    3    0    0 -0.14685383654E+03 -0.30486937659E+02  0.25053497132E+03  0.29199875775E+03  0.00000000000E+00 0.  1.
         11    1    3    3    0    0  0.11981572473E+02  0.19603609494E+02  0.78629464123E+02  0.81917349887E+02  0.00000000000E+00 0. -1.
         21    1    1    2  502  501  0.97500536188E+02  0.70038226281E+01 -0.24338250542E+02  0.10073608354E+03  0.00000000000E+00 0.  1.
<scales pt_clust_5="13000.00000" pt_clust_6="13000.00000" pt_clust_7="13000.00000" pt_clust_8="13000.00000" pt_clust_9="97.75177"></scales>
<clustering>
<clus scale="   91.534">  5  6 -1 -1</clus>
<clus scale="   97.752">  2  9  1 -1</clus>
<clus scale="  109.810">  1  5  2 -1</clus>
<clus scale="  114.695">  7  8 -1 -1</clus>
<clus scale="  109.810">  1  5  2 -1</clus>
</clustering>
</event>
<event>
 9    1  0.1484717E-005  0.9354271E+02  0.7546771E-02  0.1295443E+00
          1   -1    0    0  502    0  0.00000000000E+00  0.00000000000E+00  0.41716134683E+03  0.41716134683E+03  0.00000000000E+00 0. -1.
         -1   -1    0    0    0  501 -0.00000000000E+00 -0.00000000000E+00 -0.43140333109E+02  0.43140333109E+02  0.00000000000E+00 0.  1.
         23    2    1    2    0    0 -0.21120111762E+02  0.37195887985E+02  0.92449649332E+02  0.13641153018E+03  0.90728025987E+02 0.  0.
         23    2    1    2    0    0  0.19721680840E+02 -0.18148802270E+01  0.27246679995E+03  0.28732972837E+03  0.89039189373E+02 0.  0.
        -11    1    3    3    0    0  0.19546284536E+02 -0.14012984527E+02  0.11086150839E+01  0.24075921621E+02  0.00000000000E+00 0.  1.
         11    1    3    3    0    0 -0.40666396298E+02  0.51208872512E+02  0.91341034248E+02  0.11233560855E+03  0.00000000000E+00 0. -1.
        -11    1    4    4    0    0  0.53112095839E+02 -0.13797762984E+02  0.18421581054E+03  0.19221534236E+03  0.00000000000E+00 0.  1.
         11    1    4    4    0    0 -0.33390414999E+02  0.11982882757E+02  0.88250989408E+02  0.95114386001E+02  0.00000000000E+00 0. -1.
         21    1    1    2  502  501  0.13984309215E+01 -0.35381007758E+02  0.91045644401E+01  0.36560421396E+02  0.00000000000E+00 0. -1.
<scales pt_clust_5="13000.00000" pt_clust_6="13000.00000" pt_clust_7="13000.00000" pt_clust_8="13000.00000" pt_clust_9="35.40863"></scales>
<clustering>
<clus scale="   35.409">  2  9  1 -1</clus>
<clus scale="   89.039">  7  8 -1 -1</clus>
<clus scale="   90.728">  5  6 -1 -1</clus>
<clus scale="   91.906">  1  7  2 -1</clus>
<clus scale="   91.906">  1  5  2 -1</clus>
</clustering>
</event>
<event>
 9    1  0.1484717E-005  0.6691570E+03  0.7546771E-02  0.9858129E-01
          1   -1    0    0  502    0  0.00000000000E+00  0.00000000000E+00  0.10806080259E+04  0.10806080259E+04  0.00000000000E+00 0. -1.
         -1   -1    0    0    0  501 -0.00000000000E+00 -0.00000000000E+00 -0.11769321927E+04  0.11769321927E+04  0.00000000000E+00 0.  1.
         23    2    1    2    0    0  0.42850256141E+03 -0.60151784438E+03 -0.54392179749E+03  0.92147698921E+03  0.88491568069E+02 0.  0.
         23    2    1    2    0    0 -0.49415788369E+03 -0.42105540510E+02  0.46953045784E+03  0.68872812925E+03  0.89009519866E+02 0.  0.
        -11    1    4    4    0    0 -0.47755328534E+03 -0.57773665353E+02  0.44747121492E+03  0.65698205830E+03  0.00000000000E+00 0. -1.
         11    1    4    4    0    0 -0.16604598344E+02  0.15668124843E+02  0.22059242918E+02  0.31746070944E+02  0.00000000000E+00 0.  1.
        -13    1    3    3    0    0  0.40194740573E+03 -0.56314672643E+03 -0.47893404098E+03  0.84147119265E+03  0.00000000000E+00 0.  1.
         13    1    3    3    0    0  0.26555155679E+02 -0.38371117949E+02 -0.64987756515E+02  0.80005796556E+02  0.00000000000E+00 0. -1.
         21    1    1    2  502  501  0.65655322279E+02  0.64362338489E+03 -0.21932827203E+02  0.64733510010E+03  0.00000000000E+00 0. -1.
<scales pt_clust_5="13000.00000" pt_clust_6="13000.00000" pt_clust_7="13000.00000" pt_clust_8="13000.00000" pt_clust_9="663.28001"></scales>
<clustering>
<clus scale="   88.492">  7  8 -1 -1</clus>
<clus scale="   89.010">  5  6 -1 -1</clus>
<clus scale="  503.873">  1  5  2 -1</clus>
<clus scale="  663.280">  1  9  2 -1</clus>
<clus scale="  503.873">  1  5  2 -1</clus>
</clustering>
</event>
<event>
 9    1  0.1484717E-005  0.9695969E+02  0.7546771E-02  0.1290660E+00
          1   -1    0    0  502    0  0.00000000000E+00  0.00000000000E+00  0.45547493355E+03  0.45547493355E+03  0.00000000000E+00 0. -1.
         -1   -1    0    0    0  501 -0.00000000000E+00 -0.00000000000E+00 -0.34021664686E+02  0.34021664686E+02  0.00000000000E+00 0.  1.
         23    2    1    2    0    0  0.39098134485E+02 -0.15354462257E+02  0.17937557740E+03  0.20140014894E+03  0.81375663386E+02 0.  0.
         23    2    1    2    0    0 -0.23764413577E+02  0.31105304107E+02  0.24716823850E+03  0.26553263568E+03  0.88787134151E+02 0.  0.
        -11    1    4    4    0    0  0.12246017603E+02  0.52344453041E+02  0.16140622468E+03  0.17012312034E+03  0.00000000000E+00 0. -1.
         11    1    4    4    0    0 -0.36010431180E+02 -0.21239148934E+02  0.85762013824E+02  0.95409515335E+02  0.00000000000E+00 0.  1.
        -11    1    3    3    0    0  0.36567602662E+02  0.29110706300E+02  0.99984740925E+02  0.11037015540E+03  0.00000000000E+00 0. -1.
         11    1    3    3    0    0  0.25305318235E+01 -0.44465168557E+02  0.79390836478E+02  0.91029993534E+02  0.00000000000E+00 0.  1.
         21    1    1    2  502  501 -0.15333720908E+02 -0.15750841850E+02 -0.50905470413E+01  0.22563813619E+02  0.00000000000E+00 0.  1.
<scales pt_clust_5="13000.00000" pt_clust_6="13000.00000" pt_clust_7="13000.00000" pt_clust_8="13000.00000" pt_clust_9="21.98208"></scales>
<clustering>
<clus scale="   21.982">  2  9  1 -1</clus>
<clus scale="   81.376">  7  8 -1 -1</clus>
<clus scale="   88.787">  5  6 -1 -1</clus>
<clus scale="   90.222">  2  7  1 -1</clus>
<clus scale="   96.960">  1  5  2 -1</clus>
</clustering>
</event>
<event>
 9    1  0.1484717E-005  0.1132115E+03  0.7546771E-02  0.1257066E+00
          1   -1    0    0  502    0  0.00000000000E+00  0.00000000000E+00  0.23012690219E+03  0.23012690219E+03  0.00000000000E+00 0. -1.
         -1   -1    0    0    0  501 -0.00000000000E+00 -0.00000000000E+00 -0.14947231607E+03  0.14947231607E+03  0.00000000000E+00 0.  1.
         23    2    1    2    0    0 -0.44959448185E+02 -0.24229240409E+02 -0.94693921202E+02  0.13685987096E+03  0.84588873346E+02 0.  0.
         23    2    1    2    0    0  0.54984039377E+02  0.42815289368E+02  0.18645816992E+03  0.21887811834E+03  0.91019711980E+02 0.  0.
        -11    1    3    3    0    0  0.27707745951E+01  0.24941629338E+02 -0.47285851897E+02  0.53532362693E+02  0.00000000000E+00 0. -1.
         11    1    3    3    0    0 -0.47730222780E+02 -0.49170869747E+02 -0.47408069305E+02  0.83327508264E+02  0.00000000000E+00 0.  1.
        -13    1    4    4    0    0  0.11589569186E+02  0.34614289717E+02  0.16643027337E+03  0.17038633472E+03  0.00000000000E+00 0. -1.
         13    1    4    4    0    0  0.43394470191E+02  0.82009996515E+01  0.20027896554E+02  0.48491783622E+02  0.00000000000E+00 0.  1.
         21    1    1    2  502  501 -0.10024591192E+02 -0.18586048960E+02 -0.11109662601E+02  0.23861228963E+02  0.00000000000E+00 0.  1.
<scales pt_clust_5="13000.00000" pt_clust_6="13000.00000" pt_clust_7="13000.00000" pt_clust_8="13000.00000" pt_clust_9="21.11714"></scales>
<clustering>
<clus scale="   21.117">  2  9  1 -1</clus>
<clus scale="   84.589">  5  6 -1 -1</clus>
<clus scale="   91.020">  7  8 -1 -1</clus>
<clus scale="  108.109">  2  5  1 -1</clus>
<clus scale="  113.212">  1  5  2 -1</clus>
</clustering>
</event>
<event>
 9    1  0.1484717E-005  0.9721059E+02  0.7546771E-02  0.1290154E+00
          1   -1    0    0  502    0  0.00000000000E+00  0.00000000000E+00  0.32644334713E+03  0.32644334713E+03  0.00000000000E+00 0. -1.
         -1   -1    0    0    0  501 -0.00000000000E+00 -0.00000000000E+00 -0.41071617160E+02  0.41071617160E+02  0.00000000000E+00 0.  1.
         23    2    1    2    0    0 -0.12593925364E+02  0.23790281399E+01  0.10898821315E+03  0.14341502091E+03  0.92331851947E+02 0.  0.
         23    2    1    2    0    0  0.35827289713E+02 -0.27253940749E+02  0.15900525041E+03  0.18588273994E+03  0.85107880795E+02 0.  0.
        -11    1    4    4    0    0  0.58405505774E+02  0.28802012787E+01  0.10171090664E+03  0.11732266274E+03  0.00000000000E+00 0. -1.
         11    1    4    4    0    0 -0.22578216061E+02 -0.30134142028E+02  0.57294343777E+02  0.68560077196E+02  0.00000000000E+00 0.  1.
        -13    1    3    3    0    0  0.56167558022E+01 -0.43018232731E+02  0.41260095253E+02  0.59870792155E+02  0.00000000000E+00 0. -1.
         13    1    3    3    0    0 -0.18210681167E+02  0.45397260870E+02  0.67728117901E+02  0.83544228751E+02  0.00000000000E+00 0.  1.
         21    1    1    2  502  501 -0.23233364348E+02  0.24874912609E+02  0.17378266408E+02  0.38217203451E+02  0.00000000000E+00 0.  1.
<scales pt_clust_5="13000.00000" pt_clust_6="13000.00000" pt_clust_7="13000.00000" pt_clust_8="13000.00000" pt_clust_9="34.03749"></scales>
<clustering>
<clus scale="   34.037">  2  9  1 -1</clus>
<clus scale="   85.108">  5  6 -1 -1</clus>
<clus scale="   90.377">  1  5  2 -1</clus>
<clus scale="   92.332">  7  8 -1 -1</clus>
<clus scale="   90.377">  1  5  2 -1</clus>
</clustering>
</event>
<event>
 9    1  0.1484717E-005  0.1363642E+03  0.7546771E-02  0.1220091E+00
         -2   -1    0    0    0  501 -0.00000000000E+00  0.00000000000E+00  0.33075478639E+02  0.33075478639E+02  0.00000000000E+00 0.  1.
          2   -1    0    0  502    0  0.00000000000E+00 -0.00000000000E+00 -0.77202862792E+03  0.77202862792E+03  0.00000000000E+00 0. -1.
         23    2    1    2    0    0 -0.72277891408E+02 -0.44998590447E+02 -0.17094524906E+03  0.20762042588E+03  0.81455486838E+02 0.  0.
         23    2    1    2    0    0  0.10337316771E+03  0.45173434701E+02 -0.52531610656E+03  0.54466762229E+03  0.89326121326E+02 0.  0.
        -11    1    4    4    0    0  0.23776273304E+02  0.51346434670E+02 -0.13692540189E+03  0.14815644842E+03  0.00000000000E+00 0.  1.
         11    1    4    4    0    0  0.79596894402E+02 -0.61729999686E+01 -0.38839070467E+03  0.39651117387E+03  0.00000000000E+00 0. -1.
        -11    1    3    3    0    0 -0.29534709976E+02 -0.63876712978E+02 -0.91221102497E+02  0.11521207877E+03  0.00000000000E+00 0.  1.
         11    1    3    3    0    0 -0.42743181432E+02  0.18878122530E+02 -0.79724146566E+02  0.92408347106E+02  0.00000000000E+00 0. -1.
         21    1    1    2  502  501 -0.31095276297E+02 -0.17484425370E+00 -0.42691793656E+02  0.52816058392E+02  0.00000000000E+00 0.  1.
<scales pt_clust_5="13000.00000" pt_clust_6="13000.00000" pt_clust_7="13000.00000" pt_clust_8="13000.00000" pt_clust_9="31.09577"></scales>
<clustering>
<clus scale="   31.096">  1  9  2 -1</clus>
<clus scale="   81.455">  7  8 -1 -1</clus>
<clus scale="   89.326">  5  6 -1 -1</clus>
<clus scale="  131.343">  1  7  2 -1</clus>
<clus scale="  136.364">  2  5  1 -1</clus>
</clustering>
</event>
<event>
 9    1  0.1484717E-005  0.1098775E+03  0.7546771E-02  0.1261001E+00
          1   -1    0    0  502    0  0.00000000000E+00  0.00000000000E+00  0.86085866047E+02  0.86085866047E+02  0.00000000000E+00 0. -1.
         -1   -1    0    0    0  501 -0.00000000000E+00 -0.00000000000E+00 -0.27345771871E+03  0.27345771871E+03  0.00000000000E+00 0.  1.
         23    2    1    2    0    0  0.77652075310E+02  0.16919033999E+01 -0.50610810587E+02  0.13001026468E+03  0.91151014463E+02 0.  0.
         23    2    1    2    0    0 -0.48889721503E+02  0.68770335025E+01 -0.16306080741E+02  0.10539590675E+03  0.91678298589E+02 0.  0.
        -11    1    4    4    0    0 -0.61392740875E+02  0.32481484573E+02  0.52686853859E+01  0.69655398340E+02  0.00000000000E+00 0.  1.
         11    1    4    4    0    0  0.12503019372E+02 -0.25604451070E+02 -0.21574766127E+02  0.35740508411E+02  0.00000000000E+00 0. -1.
        -13    1    3    3    0    0  0.79147562457E+02 -0.18819512016E+02 -0.68309182832E+01  0.81640505388E+02  0.00000000000E+00 0. -1.
         13    1    3    3    0    0 -0.14954871468E+01  0.20511415416E+02 -0.43779892304E+02  0.48369759296E+02  0.00000000000E+00 0.  1.
         21    1    1    2  502  501 -0.28762353808E+02 -0.85689369023E+01 -0.12045496133E+03  0.12413741332E+03  0.00000000000E+00 0.  1.
<scales pt_clust_5="13000.00000" pt_clust_6="13000.00000" pt_clust_7="13000.00000" pt_clust_8="13000.00000" pt_clust_9="30.01166"></scales>
<clustering>
<clus scale="   30.012">  2  9  1 -1</clus>
<clus scale="   91.151">  7  8 -1 -1</clus>
<clus scale="   91.678">  5  6 -1 -1</clus>
<clus scale="  109.438">  2  7  1 -1</clus>
<clus scale="  109.877">  1  5  2 -1</clus>
</clustering>
</event>
<event>
 9    1  0.1484717E-005  0.1110683E+03  0.7546771E-02  0.1258918E+00
          1   -1    0    0  502    0  0.00000000000E+00  0.00000000000E+00  0.64151035857E+03  0.64151035857E+03  0.00000000000E+00 0. -1.
         -1   -1    0    0    0  501 -0.00000000000E+00 -0.00000000000E+00 -0.36179597099E+02  0.36179597099E+02  0.00000000000E+00 0.  1.
         23    2    1    2    0    0  0.28875398375E+02  0.63267207399E+01  0.13723610911E+03  0.16707947915E+03  0.90597939730E+02 0.  0.
         23    2    1    2    0    0 -0.79414616077E+02 -0.23753853977E+02  0.42311470592E+03  0.44074551333E+03  0.91430992183E+02 0.  0.
        -11    1    4    4    0    0  0.48335977005E+00  0.26280277499E+02  0.13704714171E+03  0.13954499515E+03  0.00000000000E+00 0. -1.
         11    1    4    4    0    0 -0.79897975847E+02 -0.50034131476E+02  0.28606756421E+03  0.30120051818E+03  0.00000000000E+00 0.  1.
        -13    1    3    3    0    0  0.37168235334E+02 -0.34353787288E+02  0.96214395288E+02  0.10871462772E+03  0.00000000000E+00 0. -1.
         13    1    3    3    0    0 -0.82928369586E+01  0.40680508028E+02  0.41021713824E+02  0.58364851437E+02  0.00000000000E+00 0.  1.
         21    1    1    2  502  501  0.50539217702E+02  0.17427133237E+02  0.44979946436E+02  0.69864963180E+02  0.00000000000E+00 0. -1.
<scales pt_clust_5="13000.00000" pt_clust_6="13000.00000" pt_clust_7="13000.00000" pt_clust_8="13000.00000" pt_clust_9="53.45949"></scales>
<clustering>
<clus scale="   53.459">  2  9  1 -1</clus>
<clus scale="   90.598">  7  8 -1 -1</clus>
<clus scale="   91.431">  5  6 -1 -1</clus>
<clus scale="  110.384">  2  7  1 -1</clus>
<clus scale="  111.068">  1  5  2 -1</clus>
</clustering>
</event>
<event>
 9    1  0.1484717E-005  0.1170711E+03  0.7546771E-02  0.1248131E+00
         -1   -1    0    0    0  501 -0.00000000000E+00  0.00000000000E+00  0.66039815623E+02  0.66039815623E+02  0.00000000000E+00 0.  1.
          1   -1    0    0  502    0  0.00000000000E+00 -0.00000000000E+00 -0.74020082725E+03  0.74020082725E+03  0.00000000000E+00 0. -1.
         23    2    1    2    0    0 -0.33575026667E+02  0.38739711359E+02 -0.13381715435E+03  0.16967314018E+03  0.90850955138E+02 0.  0.
         23    2    1    2    0    0  0.64692014969E+02 -0.50706658603E+02 -0.57536944778E+03  0.58821187450E+03  0.90481964200E+02 0.  0.
        -11    1    3    3    0    0 -0.26520827835E+02 -0.16115227482E+02 -0.10032709226E+03  0.10501704770E+03  0.00000000000E+00 0.  1.
         11    1    3    3    0    0 -0.70541988325E+01  0.54854938841E+02 -0.33490062084E+02  0.64656092480E+02  0.00000000000E+00 0. -1.
        -13    1    4    4    0    0 -0.26576082176E+01  0.21487410534E+02 -0.69379148598E+02  0.72679006275E+02  0.00000000000E+00 0.  1.
         13    1    4    4    0    0  0.67349623186E+02 -0.72194069137E+02 -0.50599029918E+03  0.51553286823E+03  0.00000000000E+00 0. -1.
         21    1    1    2  502  501 -0.31116988301E+02  0.11966947243E+02  0.35025590500E+02  0.48355628185E+02  0.00000000000E+00 0.  1.
<scales pt_clust_5="13000.00000" pt_clust_6="13000.00000" pt_clust_7="13000.00000" pt_clust_8="13000.00000" pt_clust_9="33.33879"></scales>
<clustering>
<clus scale="   33.339">  1  9  2 -1</clus>
<clus scale="   90.482">  7  8 -1 -1</clus>
<clus scale="   90.851">  5  6 -1 -1</clus>
<clus scale="  116.785">  2  7  1 -1</clus>
<clus scale="  116.785">  2  5  1 -1</clus>
</clustering>
</event>
<event>
 9    1  0.1484717E-005  0.1401025E+03  0.7546771E-02  0.1214042E+00
         -1   -1    0    0    0  501 -0.00000000000E+00  0.00000000000E+00  0.50400636073E+02  0.50400636073E+02  0.00000000000E+00 0.  1.
          1   -1    0    0  502    0  0.00000000000E+00 -0.00000000000E+00 -0.74252008510E+03  0.74252008510E+03  0.00000000000E+00 0. -1.
         23    2    1    2    0    0  0.37118464627E+02  0.65037141579E+02 -0.17974852207E+03  0.21499225074E+03  0.91129174756E+02 0.  0.
         23    2    1    2    0    0 -0.11308478233E+03 -0.66089784407E+02 -0.45451963442E+03  0.48243626378E+03  0.94871612923E+02 0.  0.
        -11    1    4    4    0    0 -0.58653171334E+02  0.15201762125E+02 -0.22322567378E+03  0.23130280913E+03  0.00000000000E+00 0.  1.
         11    1    4    4    0    0 -0.54431610999E+02 -0.81291546532E+02 -0.23129396064E+03  0.25113345465E+03  0.00000000000E+00 0. -1.
        -11    1    3    3    0    0  0.31038986974E+02  0.25967363490E+02 -0.11373140990E+02  0.42036543804E+02  0.00000000000E+00 0.  1.
         11    1    3    3    0    0  0.60794776527E+01  0.39069778089E+02 -0.16837538108E+03  0.17295570694E+03  0.00000000000E+00 0. -1.
         21    1    1    2  502  501  0.75966317707E+02  0.10526428280E+01 -0.57851292539E+02  0.95492206652E+02  0.00000000000E+00 0. -1.
<scales pt_clust_5="13000.00000" pt_clust_6="13000.00000" pt_clust_7="13000.00000" pt_clust_8="13000.00000" pt_clust_9="75.97361"></scales>
<clustering>
<clus scale="   75.974">  1  9  2 -1</clus>
<clus scale="   91.129">  7  8 -1 -1</clus>
<clus scale="   94.872">  5  6 -1 -1</clus>
<clus scale="  137.596">  1  7  2 -1</clus>
<clus scale="  140.103">  2  5  1 -1</clus>
</clustering>
</event>
<event>
 9    1  0.1484717E-005  0.1112368E+03  0.7546771E-02  0.1261470E+00
          1   -1    0    0  502    0  0.00000000000E+00  0.00000000000E+00  0.47246634454E+03  0.47246634454E+03  0.00000000000E+00 0. -1.
         -1   -1    0    0    0  501 -0.00000000000E+00 -0.00000000000E+00 -0.45580078515E+02  0.45580078515E+02  0.00000000000E+00 0.  1.
         23    2    1    2    0    0 -0.13092152661E+02  0.53790366622E+01  0.10074368621E+03  0.13862815198E+03  0.94170779510E+02 0.  0.
         23    2    1    2    0    0  0.50595969309E+02 -0.40994602246E+02  0.29577487977E+03  0.31944159243E+03  0.10158563848E+03 0.  0.
        -11    1    4    4    0    0  0.25879737409E+02 -0.41480940024E+02  0.28995046909E+03  0.29404371056E+03  0.00000000000E+00 0. -1.
         11    1    4    4    0    0  0.24716231900E+02  0.48633777827E+00  0.58244106828E+01  0.25397881871E+02  0.00000000000E+00 0.  1.
        -11    1    3    3    0    0 -0.17247280237E+02  0.36200242519E+02  0.81068756321E+01  0.40910239140E+02  0.00000000000E+00 0.  1.
         11    1    3    3    0    0  0.41551275755E+01 -0.30821205857E+02  0.92636810581E+02  0.97717912842E+02  0.00000000000E+00 0. -1.
         21    1    1    2  502  501 -0.37503816648E+02  0.35615565583E+02  0.30367700036E+02  0.59976678638E+02  0.00000000000E+00 0.  1.
<scales pt_clust_5="13000.00000" pt_clust_6="13000.00000" pt_clust_7="13000.00000" pt_clust_8="13000.00000" pt_clust_9="51.72045"></scales>
<clustering>
<clus scale="   51.720">  2  9  1 -1</clus>
<clus scale="   94.171">  7  8 -1 -1</clus>
<clus scale="  101.586">  5  6 -1 -1</clus>
<clus scale="  104.509">  2  7  1 -1</clus>
<clus scale="  111.237">  1  5  2 -1</clus>
</clustering>
</event>
<event>
 9    1  0.1484717E-005  0.1643605E+03  0.7546771E-02  0.1184999E+00
          1   -1    0    0  502    0  0.00000000000E+00  0.00000000000E+00  0.32461348560E+03  0.32461348560E+03  0.00000000000E+00 0. -1.
         -1   -1    0    0    0  501 -0.00000000000E+00 -0.00000000000E+00 -0.12214939579E+03  0.12214939579E+03  0.00000000000E+00 0.  1.
         23    2    1    2    0    0 -0.12414136676E+02 -0.15997103803E+03  0.45377693532E+02  0.18981094795E+03  0.90687469331E+02 0.  0.
         23    2    1    2    0    0  0.59702162564E+01  0.12727174585E+03  0.16321511541E+03  0.22306492977E+03  0.82976190698E+02 0.  0.
        -13    1    4    4    0    0 -0.31007197121E+02  0.59199039677E+02  0.11126263510E+03  0.12978962417E+03  0.00000000000E+00 0. -1.
         13    1    4    4    0    0  0.36977413377E+02  0.68072706173E+02  0.51952480313E+02  0.93275305609E+02  0.00000000000E+00 0.  1.
        -13    1    3    3    0    0 -0.29249548500E+02 -0.11779871820E+03  0.67949846553E+02  0.13910160223E+03  0.00000000000E+00 0. -1.
         13    1    3    3    0    0  0.16835411824E+02 -0.42172319833E+02 -0.22572153021E+02  0.50709345720E+02  0.00000000000E+00 0.  1.
         21    1    1    2  502  501  0.64439204201E+01  0.32699292181E+02 -0.61287191306E+01  0.33887003669E+02  0.00000000000E+00 0.  1.
<scales pt_clust_5="13000.00000" pt_clust_6="13000.00000" pt_clust_7="13000.00000" pt_clust_8="13000.00000" pt_clust_9="33.32818"></scales>
<clustering>
<clus scale="   33.328">  2  9  1 -1</clus>
<clus scale="   82.976">  5  6 -1 -1</clus>
<clus scale="   90.687">  7  8 -1 -1</clus>
<clus scale="  160.235">  1  5  2 -1</clus>
<clus scale="  160.235">  1  5  2 -1</clus>
</clustering>
</event>
<event>
 9    1  0.1484717E-005  0.9895256E+02  0.7546771E-02  0.1283575E+00
         -2   -1    0    0    0  501 -0.00000000000E+00  0.00000000000E+00  0.62162213589E+03  0.62162213589E+03  0.00000000000E+00 0.  1.
          2   -1    0    0  502    0  0.00000000000E+00 -0.00000000000E+00 -0.91250927711E+02  0.91250927711E+02  0.00000000000E+00 0. -1.
         23    2    1    2    0    0 -0.36571237669E+02  0.45052293795E+02  0.29839673493E+03  0.31685186961E+03  0.89371870630E+02 0.  0.
         23    2    1    2    0    0  0.37646053061E+02  0.78282617278E+01 -0.48593815107E+02  0.11051099660E+03  0.91503084704E+02 0.  0.
        -11    1    3    3    0    0  0.18594378587E+02  0.92689544869E+01  0.14244223153E+02  0.25190520549E+02  0.00000000000E+00 0. -1.
         11    1    3    3    0    0 -0.55165616256E+02  0.35783339308E+02  0.28415251177E+03  0.29166134906E+03  0.00000000000E+00 0.  1.
        -11    1    4    4    0    0  0.65467905215E+02  0.10765205858E+02 -0.49084684738E+02  0.82530252309E+02  0.00000000000E+00 0. -1.
         11    1    4    4    0    0 -0.27821852154E+02 -0.29369441303E+01  0.49086963089E+00  0.27980744291E+02  0.00000000000E+00 0.  1.
         21    1    1    2  502  501 -0.10748153921E+01 -0.52880555523E+02  0.28056828836E+03  0.28551019739E+03  0.00000000000E+00 0.  1.
<scales pt_clust_5="13000.00000" pt_clust_6="13000.00000" pt_clust_7="13000.00000" pt_clust_8="13000.00000" pt_clust_9="52.89148"></scales>
<clustering>
<clus scale="   52.891">  1  9  2 -1</clus>
<clus scale="   89.372">  5  6 -1 -1</clus>
<clus scale="   91.503">  7  8 -1 -1</clus>
<clus scale="   96.985">  1  5  2 -1</clus>
<clus scale="   98.953">  2  5  1 -1</clus>
</clustering>
</event>
<event>
 9    1  0.1484717E-005  0.1128309E+03  0.7546771E-02  0.1255639E+00
          3   -1    0    0  502    0  0.00000000000E+00  0.00000000000E+00  0.89331721693E+02  0.89331721693E+02  0.00000000000E+00 0. -1.
         -3   -1    0    0    0  501 -0.00000000000E+00 -0.00000000000E+00 -0.24180159966E+03  0.24180159966E+03  0.00000000000E+00 0.  1.
         23    2    1    2    0    0 -0.86840503787E+01  0.48815249193E+02 -0.12451668867E+03  0.16176604506E+03  0.90584249699E+02 0.  0.
         23    2    1    2    0    0  0.47361469612E+02 -0.58321006751E+02  0.41155112107E+01  0.11823310242E+03  0.91201318204E+02 0.  0.
        -13    1    4    4    0    0  0.71317299364E+02 -0.46953047287E+02 -0.13432773211E+02  0.86436018154E+02  0.00000000000E+00 0. -1.
         13    1    4    4    0    0 -0.23955829752E+02 -0.11367959464E+02  0.17548284422E+02  0.31797084263E+02  0.00000000000E+00 0.  1.
        -13    1    3    3    0    0  0.26061626236E+02 -0.14632819275E+02 -0.47352698270E+02  0.55996480206E+02  0.00000000000E+00 0. -1.
         13    1    3    3    0    0 -0.34745676615E+02  0.63448068469E+02 -0.77163990398E+02  0.10576956486E+03  0.00000000000E+00 0.  1.
         21    1    1    2  502  501 -0.38677419233E+02  0.95057575577E+01 -0.32068700505E+02  0.51134173870E+02  0.00000000000E+00 0. -1.
<scales pt_clust_5="13000.00000" pt_clust_6="13000.00000" pt_clust_7="13000.00000" pt_clust_8="13000.00000" pt_clust_9="39.82841"></scales>
<clustering>
<clus scale="   39.828">  2  9  1 -1</clus>
<clus scale="   90.584">  7  8 -1 -1</clus>
<clus scale="   91.201">  5  6 -1 -1</clus>
<clus scale="  112.333">  2  7  1 -1</clus>
<clus scale="  112.831">  1  5  2 -1</clus>
</clustering>
</event>
<event>
 9    1  0.1484717E-005  0.9411084E+02  0.7546771E-02  0.1293537E+00
         -3   -1    0    0    0  501 -0.00000000000E+00  0.00000000000E+00  0.60309364081E+02  0.60309364081E+02  0.00000000000E+00 0. -1.
          3   -1    0    0  502    0  0.00000000000E+00 -0.00000000000E+00 -0.20082588795E+03  0.20082588795E+03  0.00000000000E+00 0.  1.
         23    2    1    2    0    0  0.39000884173E+02 -0.18779659416E+01 -0.34257515215E+02  0.10451662862E+03  0.90694832201E+02 0.  0.
         23    2    1    2    0    0 -0.17810218612E+02  0.14984597686E+01 -0.96755870814E+02  0.13339152801E+03  0.90067485467E+02 0.  0.
        -11    1    4    4    0    0 -0.74123421049E+01 -0.35735137167E+02 -0.85755881890E+02  0.93198788203E+02  0.00000000000E+00 0.  1.
         11    1    4    4    0    0 -0.10397876507E+02  0.37233596935E+02 -0.10999988924E+02  0.40192739804E+02  0.00000000000E+00 0. -1.
        -11    1    3    3    0    0 -0.28295371497E+02  0.72561724380E+01 -0.19194328007E+02  0.34952858456E+02  0.00000000000E+00 0.  1.
         11    1    3    3    0    0  0.67296255670E+02 -0.91341383796E+01 -0.15063187208E+02  0.69563770168E+02  0.00000000000E+00 0. -1.
         21    1    1    2  502  501 -0.21190665561E+02  0.37950617298E+00 -0.95031378377E+01  0.23227095397E+02  0.00000000000E+00 0.  1.
<scales pt_clust_5="13000.00000" pt_clust_6="13000.00000" pt_clust_7="13000.00000" pt_clust_8="13000.00000" pt_clust_9="21.19406"></scales>
<clustering>
<clus scale="   21.194">  1  9  2 -1</clus>
<clus scale="   90.067">  5  6 -1 -1</clus>
<clus scale="   90.695">  7  8 -1 -1</clus>
<clus scale="   93.506">  2  5  1 -1</clus>
<clus scale="   93.506">  2  5  1 -1</clus>
</clustering>
</event>
<event>
 9    1  0.1484717E-005  0.1318378E+03  0.7546771E-02  0.1236304E+00
         -1   -1    0    0    0  501 -0.00000000000E+00  0.00000000000E+00  0.50540765683E+03  0.50540765683E+03  0.00000000000E+00 0.  1.
          1   -1    0    0  502    0  0.00000000000E+00 -0.00000000000E+00 -0.67960367465E+02  0.67960367465E+02  0.00000000000E+00 0. -1.
         23    2    1    2    0    0  0.10015112119E+03  0.36207128386E+02  0.15864875906E+03  0.21079887837E+03  0.89025474718E+02 0.  0.
         23    2    1    2    0    0 -0.22523353781E+02  0.62016941148E+01  0.84258976645E+02  0.14886323483E+03  0.12047790281E+03 0.  0.
        -11    1    3    3    0    0  0.23055963167E+02  0.52620206370E+02  0.47531581572E+02  0.74563495108E+02  0.00000000000E+00 0.  1.
         11    1    3    3    0    0  0.77095158019E+02 -0.16413077984E+02  0.11111717749E+03  0.13623538326E+03  0.00000000000E+00 0. -1.
        -13    1    4    4    0    0 -0.50018595650E+02  0.48478766296E+02  0.33439363037E+02  0.77267339107E+02  0.00000000000E+00 0. -1.
         13    1    4    4    0    0  0.27495241869E+02 -0.42277072181E+02  0.50819613608E+02  0.71595895727E+02  0.00000000000E+00 0.  1.
         21    1    1    2  502  501 -0.77627767405E+02 -0.42408822501E+02  0.19453955366E+03  0.21370591109E+03  0.00000000000E+00 0.  1.
<scales pt_clust_5="13000.00000" pt_clust_6="13000.00000" pt_clust_7="13000.00000" pt_clust_8="13000.00000" pt_clust_9="88.45665"></scales>
<clustering>
<clus scale="   88.457">  1  9  2 -1</clus>
<clus scale="   89.025">  5  6 -1 -1</clus>
<clus scale="  103.884">  1  5  2 -1</clus>
<clus scale="  120.478">  7  8 -1 -1</clus>
<clus scale="  131.838">  2  5  1 -1</clus>
</clustering>
</event>
<event>
 9    1  0.1484717E-005  0.1112374E+03  0.7546771E-02  0.1258301E+00
         -1   -1    0    0    0  501 -0.00000000000E+00  0.00000000000E+00  0.42909595891E+03  0.42909595891E+03  0.00000000000E+00 0.  1.
          1   -1    0    0  502    0  0.00000000000E+00 -0.00000000000E+00 -0.48965913042E+02  0.48965913042E+02  0.00000000000E+00 0. -1.
         23    2    1    2    0    0 -0.69133682339E+02 -0.54638882158E+02  0.23963830668E+03  0.27094690559E+03  0.90668815710E+02 0.  0.
         23    2    1    2    0    0  0.48216805879E+02  0.28073250012E+02  0.65842704405E+02  0.12516542746E+03  0.90654038922E+02 0.  0.
        -11    1    4    4    0    0 -0.78406760429E+01  0.34227423634E+02  0.58590221291E+02  0.68306710947E+02  0.00000000000E+00 0.  1.
         11    1    4    4    0    0  0.56057481922E+02 -0.61541736220E+01  0.72524831132E+01  0.56858716514E+02  0.00000000000E+00 0. -1.
        -13    1    3    3    0    0 -0.62602586905E+02 -0.12283036504E+02  0.64805038110E+02  0.90937615085E+02  0.00000000000E+00 0.  1.
         13    1    3    3    0    0 -0.65310954345E+01 -0.42355845655E+02  0.17483326857E+03  0.18000929050E+03  0.00000000000E+00 0. -1.
         21    1    1    2  502  501  0.20916876460E+02  0.26565632146E+02  0.74649034777E+02  0.81949538897E+02  0.00000000000E+00 0. -1.
<scales pt_clust_5="13000.00000" pt_clust_6="13000.00000" pt_clust_7="13000.00000" pt_clust_8="13000.00000" pt_clust_9="33.81196"></scales>
<clustering>
<clus scale="   33.812">  1  9  2 -1</clus>
<clus scale="   90.654">  5  6 -1 -1</clus>
<clus scale="   90.669">  7  8 -1 -1</clus>
<clus scale="  111.225">  2  5  1 -1</clus>
<clus scale="  111.225">  2  5  1 -1</clus>
</clustering>
</event>
<event>
 9    1  0.1484717E-005  0.1102587E+03  0.7546771E-02  0.1262016E+00
          2   -1    0    0  502    0  0.00000000000E+00  0.00000000000E+00  0.10684101600E+04  0.10684101600E+04  0.00000000000E+00 0. -1.
         -2   -1    0    0    0  501 -0.00000000000E+00 -0.00000000000E+00 -0.14624681655E+02  0.14624681655E+02  0.00000000000E+00 0.  1.
         23    2    1    2    0    0 -0.36250352190E+02 -0.31885038753E+02  0.33466837916E+03  0.35128349588E+03  0.95217785857E+02 0.  0.
         23    2    1    2    0    0  0.55160348080E+02  0.39351661144E+02  0.55587684110E+03  0.56724991643E+03  0.90455447501E+02 0.  0.
        -11    1    3    3    0    0  0.32375571837E+02 -0.38548648127E+01  0.10566302641E+03  0.11057898890E+03  0.00000000000E+00 0. -1.
         11    1    3    3    0    0 -0.68625924026E+02 -0.28030173941E+02  0.22900535274E+03  0.24070450699E+03  0.00000000000E+00 0.  1.
        -13    1    4    4    0    0  0.41284673389E+02 -0.24193488545E+02  0.24892716531E+03  0.25348467956E+03  0.00000000000E+00 0. -1.
         13    1    4    4    0    0  0.13875674691E+02  0.63545149688E+02  0.30694967580E+03  0.31376523687E+03  0.00000000000E+00 0.  1.
         21    1    1    2  502  501 -0.18909995890E+02 -0.74666223900E+01  0.16324025806E+03  0.16450142931E+03  0.00000000000E+00 0.  1.
<scales pt_clust_5="13000.00000" pt_clust_6="13000.00000" pt_clust_7="13000.00000" pt_clust_8="13000.00000" pt_clust_9="20.33073"></scales>
<clustering>
<clus scale="   20.331">  1  9  2 -1</clus>
<clus scale="   90.455">  7  8 -1 -1</clus>
<clus scale="   95.218">  5  6 -1 -1</clus>
<clus scale="  106.173">  1  7  2 -1</clus>
<clus scale="   20.331">  1  5  2 -1</clus>
</clustering>
</event>
<event>
 9    1  0.1484717E-005  0.2193039E+03  0.7546771E-02  0.1134674E+00
          2   -1    0    0  502    0  0.00000000000E+00  0.00000000000E+00  0.18713397565E+04  0.18713397565E+04  0.00000000000E+00 0. -1.
         -2   -1    0    0    0  501 -0.00000000000E+00 -0.00000000000E+00 -0.66485225887E+02  0.66485225887E+02  0.00000000000E+00 0.  1.
         23    2    1    2    0    0  0.14291602924E+03 -0.13298419936E+03  0.62020190146E+03  0.65710658178E+03  0.95020379664E+02 0.  0.
         23    2    1    2    0    0 -0.16602552982E+03  0.11118650964E+03  0.12162236294E+04  0.12359309431E+04  0.91643128230E+02 0.  0.
        -11    1    3    3    0    0  0.78418982968E+02 -0.12824504677E+03  0.38912315809E+03  0.41714884762E+03  0.00000000000E+00 0.  1.
         11    1    3    3    0    0  0.64497046273E+02 -0.47391525908E+01  0.23107874337E+03  0.23995773415E+03  0.00000000000E+00 0. -1.
        -11    1    4    4    0    0 -0.62560335437E+02 -0.51385355607E+01  0.29008965924E+03  0.29680331958E+03  0.00000000000E+00 0.  1.
         11    1    4    4    0    0 -0.10346519439E+03  0.11632504520E+03  0.92613397017E+03  0.93912762354E+03  0.00000000000E+00 0. -1.
         21    1    1    2  502  501  0.23109500583E+02  0.21797689717E+02 -0.31571000234E+02  0.44787457508E+02  0.00000000000E+00 0.  1.
<scales pt_clust_5="13000.00000" pt_clust_6="13000.00000" pt_clust_7="13000.00000" pt_clust_8="13000.00000" pt_clust_9="31.76772"></scales>
<clustering>
<clus scale="   31.768">  2  9  1 -1</clus>
<clus scale="   91.643">  7  8 -1 -1</clus>
<clus scale="   95.020">  5  6 -1 -1</clus>
<clus scale="  217.862">  1  7  2 -1</clus>
<clus scale="  217.862">  1  5  2 -1</clus>
</clustering>
</event>
<event>
 9    1  0.1484717E-005  0.2965266E+03  0.7546771E-02  0.1087743E+00
          2   -1    0    0  502    0  0.00000000000E+00  0.00000000000E+00  0.20289479901E+04  0.20289479901E+04  0.00000000000E+00 0. -1.
         -2   -1    0    0    0  501 -0.00000000000E+00 -0.00000000000E+00 -0.45820583192E+02  0.45820583192E+02  0.00000000000E+00 0.  1.
         23    2    1    2    0    0  0.17833140400E+03 -0.21654209018E+03  0.93145922702E+03  0.97648957125E+03  0.84988379714E+02 0.  0.
         23    2    1    2    0    0 -0.15862395455E+03  0.22572960764E+03  0.98910370872E+03  0.10320437615E+04  0.10330907154E+03 0.  0.
        -13    1    3    3    0    0  0.64557357561E+02 -0.33151393820E+02  0.31797730555E+03  0.32615369716E+03  0.00000000000E+00 0.  1.
         13    1    3    3    0    0  0.11377404644E+03 -0.18339069636E+03  0.61348192147E+03  0.65033587409E+03  0.00000000000E+00 0. -1.
        -13    1    4    4    0    0 -0.12315819382E+03  0.88704178318E+02  0.55968710699E+03  0.57990174140E+03  0.00000000000E+00 0.  1.
         13    1    4    4    0    0 -0.35465760729E+02  0.13702542932E+03  0.42941660173E+03  0.45214202007E+03  0.00000000000E+00 0. -1.
         21    1    1    2  502  501 -0.19707449453E+02 -0.91875174573E+01  0.62564471182E+02  0.66235240584E+02  0.00000000000E+00 0. -1.
<scales pt_clust_5="13000.00000" pt_clust_6="13000.00000" pt_clust_7="13000.00000" pt_clust_8="13000.00000" pt_clust_9="21.74383"></scales>
<clustering>
<clus scale="   21.744">  2  9  1 -1</clus>
<clus scale="   84.988">  5  6 -1 -1</clus>
<clus scale="  103.309">  7  8 -1 -1</clus>
<clus scale="  290.651">  2  5  1 -1</clus>
<clus scale="  296.527">  1  5  2 -1</clus>
</clustering>
</event>
<event>
 9    1  0.1484717E-005  0.1121771E+03  0.7546771E-02  0.1282945E+00
         -1   -1    0    0    0  501 -0.00000000000E+00  0.00000000000E+00  0.17537934390E+03  0.17537934390E+03  0.00000000000E+00 0.  1.
          1   -1    0    0  502    0  0.00000000000E+00 -0.00000000000E+00 -0.85187324985E+02  0.85187324985E+02  0.00000000000E+00 0. -1.
         23    2    1    2    0    0  0.10657601120E+02 -0.45516193364E+01  0.29207955869E+02  0.67583820535E+02  0.59834491824E+02 0.  0.
         23    2    1    2    0    0 -0.61748004764E+02 -0.99472307451E+01  0.20770019006E+02  0.12636741969E+03  0.10782192531E+03 0.  0.
        -11    1    4    4    0    0 -0.21420160921E+02  0.21109289867E+02  0.56618731468E+02  0.64110109699E+02  0.00000000000E+00 0.  1.
         11    1    4    4    0    0 -0.40327843843E+02 -0.31056520612E+02 -0.35848712462E+02  0.62257309987E+02  0.00000000000E+00 0. -1.
        -11    1    3    3    0    0  0.21357583166E+02  0.21556376887E+02  0.57377673505E+01  0.30882773797E+02  0.00000000000E+00 0.  1.
         11    1    3    3    0    0 -0.10699982046E+02 -0.26107996223E+02  0.23470188518E+02  0.36701046738E+02  0.00000000000E+00 0. -1.
         21    1    1    2  502  501  0.51090403644E+02  0.14498850081E+02  0.40214044040E+02  0.66615428665E+02  0.00000000000E+00 0.  1.
<scales pt_clust_5="13000.00000" pt_clust_6="13000.00000" pt_clust_7="13000.00000" pt_clust_8="13000.00000" pt_clust_9="53.10787"></scales>
<clustering>
<clus scale="   53.108">  1  9  2 -1</clus>
<clus scale="   59.834">  7  8 -1 -1</clus>
<clus scale="   67.367">  1  7  2 -1</clus>
<clus scale="  107.822">  5  6 -1 -1</clus>
<clus scale="  112.177">  2  5  1 -1</clus>
</clustering>
</event>
<event>
 9    1  0.1484717E-005  0.9198300E+02  0.7546771E-02  0.1300572E+00
         -1   -1    0    0    0  501 -0.00000000000E+00  0.00000000000E+00  0.13745826541E+03  0.13745826541E+03  0.00000000000E+00 0.  1.
          1   -1    0    0  502    0  0.00000000000E+00 -0.00000000000E+00 -0.19233594297E+03  0.19233594297E+03  0.00000000000E+00 0. -1.
         23    2    1    2    0    0 -0.12512142967E+02  0.13140293725E+02  0.23037776372E+02  0.91544711551E+02  0.86720666695E+02 0.  0.
         23    2    1    2    0    0 -0.21124383601E+02  0.31141005495E+01 -0.13853985670E+03  0.16703896767E+03  0.90844854682E+02 0.  0.
        -11    1    3    3    0    0 -0.39482033762E+01 -0.35024578028E+02 -0.42940290238E+01  0.35507014253E+02  0.00000000000E+00 0. -1.
         11    1    3    3    0    0 -0.85639395910E+01  0.48164871753E+02  0.27331805396E+02  0.56037697298E+02  0.00000000000E+00 0.  1.
        -13    1    4    4    0    0  0.22339856306E+02 -0.25554139119E+02 -0.88658718745E+02  0.94933932897E+02  0.00000000000E+00 0.  1.
         13    1    4    4    0    0 -0.43464239907E+02  0.28668239668E+02 -0.49881137955E+02  0.72105034776E+02  0.00000000000E+00 0. -1.
         21    1    1    2  502  501  0.33636526568E+02 -0.16254394275E+02  0.60624402763E+02  0.71210529159E+02  0.00000000000E+00 0.  1.
<scales pt_clust_5="13000.00000" pt_clust_6="13000.00000" pt_clust_7="13000.00000" pt_clust_8="13000.00000" pt_clust_9="37.35801"></scales>
<clustering>
<clus scale="   37.358">  1  9  2 -1</clus>
<clus scale="   86.721">  5  6 -1 -1</clus>
<clus scale="   87.912">  1  5  2 -1</clus>
<clus scale="   90.845">  7  8 -1 -1</clus>
<clus scale="   91.983">  2  5  1 -1</clus>
</clustering>
</event>
<event>
 9    1  0.1484717E-005  0.9871104E+02  0.7546771E-02  0.1284155E+00
         -1   -1    0    0    0  501 -0.00000000000E+00  0.00000000000E+00  0.13186438809E+03  0.13186438809E+03  0.00000000000E+00 0.  1.
          1   -1    0    0  502    0  0.00000000000E+00 -0.00000000000E+00 -0.19856272724E+03  0.19856272724E+03  0.00000000000E+00 0. -1.
         23    2    1    2    0    0 -0.30805777923E+02 -0.45536218319E+02  0.58386653754E+02  0.12126142300E+03  0.90954869243E+02 0.  0.
         23    2    1    2    0    0 -0.21285841842E+02  0.15934376161E+02 -0.31041685877E+02  0.97658071494E+02  0.88693411589E+02 0.  0.
        -11    1    3    3    0    0  0.76173277610E+01 -0.60786660528E+02  0.50009511913E+02  0.79082191815E+02  0.00000000000E+00 0. -1.
         11    1    3    3    0    0 -0.38423105684E+02  0.15250442209E+02  0.83771418410E+01  0.42179231185E+02  0.00000000000E+00 0.  1.
        -11    1    4    4    0    0 -0.54478408345E+02  0.18916913079E+02 -0.28244841259E+02  0.64214621653E+02  0.00000000000E+00 0.  1.
         11    1    4    4    0    0  0.33192566503E+02 -0.29825369176E+01 -0.27968446180E+01  0.33443449842E+02  0.00000000000E+00 0. -1.
         21    1    1    2  502  501  0.52091619765E+02  0.29601842158E+02 -0.94043307024E+02  0.11150762084E+03  0.00000000000E+00 0. -1.
<scales pt_clust_5="13000.00000" pt_clust_6="13000.00000" pt_clust_7="13000.00000" pt_clust_8="13000.00000" pt_clust_9="59.91499"></scales>
<clustering>
<clus scale="   59.915">  2  9  1 -1</clus>
<clus scale="   88.693">  7  8 -1 -1</clus>
<clus scale="   90.955">  5  6 -1 -1</clus>
<clus scale="   96.631">  2  7  1 -1</clus>
<clus scale="   59.915">  2  5  1 -1</clus>
</clustering>
</event>
<event>
 9    1  0.1484717E-005  0.9851762E+02  0.7546771E-02  0.1298682E+00
         -2   -1    0    0    0  501 -0.00000000000E+00  0.00000000000E+00  0.21922639163E+02  0.21922639163E+02  0.00000000000E+00 0.  1.
          2   -1    0    0  502    0  0.00000000000E+00 -0.00000000000E+00 -0.56024253444E+03  0.56024253444E+03  0.00000000000E+00 0. -1.
         23    2    1    2    0    0  0.19605431700E+02  0.11308160503E+02 -0.23342594532E+03  0.25320680079E+03  0.95466038850E+02 0.  0.
         23    2    1    2    0    0  0.65168242393E+01 -0.31137513078E+02 -0.27141771647E+03  0.28209438144E+03  0.69983208743E+02 0.  0.
        -11    1    4    4    0    0  0.12074439238E+02  0.20570820882E+02 -0.65402442312E+02  0.69616307106E+02  0.00000000000E+00 0. -1.
         11    1    4    4    0    0 -0.55576149985E+01 -0.51708333959E+02 -0.20601527416E+03  0.21247807433E+03  0.00000000000E+00 0.  1.
        -11    1    3    3    0    0  0.31180361561E+02 -0.31640273449E+02 -0.63097865787E+02  0.77166459798E+02  0.00000000000E+00 0.  1.
         11    1    3    3    0    0 -0.11574929861E+02  0.42948433953E+02 -0.17032807953E+03  0.17604034100E+03  0.00000000000E+00 0. -1.
         21    1    1    2  502  501 -0.26122255939E+02  0.19829352574E+02 -0.33476233491E+02  0.46863991375E+02  0.00000000000E+00 0. -1.
<scales pt_clust_5="13000.00000" pt_clust_6="13000.00000" pt_clust_7="13000.00000" pt_clust_8="13000.00000" pt_clust_9="32.79597"></scales>
<clustering>
<clus scale="   32.796">  1  9  2 -1</clus>
<clus scale="   69.983">  5  6 -1 -1</clus>
<clus scale="   74.092">  2  5  1 -1</clus>
<clus scale="   95.466">  7  8 -1 -1</clus>
<clus scale="   74.092">  2  5  1 -1</clus>
</clustering>
</event>
<event>
 9    1  0.1484717E-005  0.1279856E+03  0.7546771E-02  0.1230727E+00
          2   -1    0    0  502    0  0.00000000000E+00  0.00000000000E+00  0.40228719283E+03  0.40228719283E+03  0.00000000000E+00 0. -1.
         -2   -1    0    0    0  501 -0.00000000000E+00 -0.00000000000E+00 -0.82618418653E+02  0.82618418653E+02  0.00000000000E+00 0.  1.
         23    2    1    2    0    0  0.37256557907E+02  0.11715230531E+02  0.29488070470E+02  0.10317542541E+03  0.90831296232E+02 0.  0.
         23    2    1    2    0    0 -0.12156054848E+03  0.84897308016E+01  0.23079724092E+03  0.27665022156E+03  0.91754761180E+02 0.  0.
        -11    1    4    4    0    0 -0.13204711213E+02  0.37315970679E+02  0.48138915613E+02  0.62323360487E+02  0.00000000000E+00 0.  1.
         11    1    4    4    0    0 -0.10835583726E+03 -0.28826239878E+02  0.18265832531E+03  0.21432686108E+03  0.00000000000E+00 0. -1.
        -13    1    3    3    0    0  0.42170104199E+02  0.32655695997E+02 -0.13577754481E+02  0.55036965632E+02  0.00000000000E+00 0. -1.
         13    1    3    3    0    0 -0.49135462924E+01 -0.20940465467E+02  0.43065824951E+02  0.48138459779E+02  0.00000000000E+00 0.  1.
         21    1    1    2  502  501  0.84303990570E+02 -0.20204961332E+02  0.59383462781E+02  0.10507996451E+03  0.00000000000E+00 0.  1.
<scales pt_clust_5="13000.00000" pt_clust_6="13000.00000" pt_clust_7="13000.00000" pt_clust_8="13000.00000" pt_clust_9="86.69143"></scales>
<clustering>
<clus scale="   86.691">  2  9  1 -1</clus>
<clus scale="   90.831">  7  8 -1 -1</clus>
<clus scale="   91.755">  5  6 -1 -1</clus>
<clus scale="  127.325">  2  7  1 -1</clus>
<clus scale="  127.986">  1  5  2 -1</clus>
</clustering>
</event>
<event>
 9    1  0.1484717E-005  0.1126346E+03  0.7546771E-02  0.1256591E+00
         -2   -1    0    0    0  501 -0.00000000000E+00  0.00000000000E+00  0.30188179986E+02  0.30188179986E+02  0.00000000000E+00 0.  1.
          2   -1    0    0  502    0  0.00000000000E+00 -0.00000000000E+00 -0.55735648134E+03  0.55735648134E+03  0.00000000000E+00 0. -1.
         23    2    1    2    0    0 -0.21226173298E+01  0.50935153027E+02 -0.18647173041E+03  0.21287547180E+03  0.89136776553E+02 0.  0.
         23    2    1    2    0    0 -0.10829135928E+02 -0.78736525234E+02 -0.30137506159E+03  0.32480090996E+03  0.91389237721E+02 0.  0.
        -11    1    3    3    0    0  0.17301129275E+02  0.19888266387E+02 -0.38765814381E+01  0.26643950490E+02  0.00000000000E+00 0.  1.
         11    1    3    3    0    0 -0.19423746604E+02  0.31046886640E+02 -0.18259514897E+03  0.18623152131E+03  0.00000000000E+00 0. -1.
        -13    1    4    4    0    0  0.26743520539E+02  0.50869667096E+00 -0.12493593074E+03  0.12776721588E+03  0.00000000000E+00 0.  1.
         13    1    4    4    0    0 -0.37572656467E+02 -0.79245221905E+02 -0.17643913085E+03  0.19703369409E+03  0.00000000000E+00 0. -1.
         21    1    1    2  502  501  0.12951753258E+02  0.27801372207E+02 -0.39321509357E+02  0.49868279569E+02  0.00000000000E+00 0.  1.
<scales pt_clust_5="13000.00000" pt_clust_6="13000.00000" pt_clust_7="13000.00000" pt_clust_8="13000.00000" pt_clust_9="30.67025"></scales>
<clustering>
<clus scale="   30.670">  1  9  2 -1</clus>
<clus scale="   89.137">  5  6 -1 -1</clus>
<clus scale="   91.389">  7  8 -1 -1</clus>
<clus scale="  110.815">  1  5  2 -1</clus>
<clus scale="  112.635">  2  5  1 -1</clus>
</clustering>
</event>
<event>
 9    1  0.1484717E-005  0.1239915E+03  0.7546771E-02  0.1236905E+00
         -2   -1    0    0    0  501 -0.00000000000E+00  0.00000000000E+00  0.12709640499E+03  0.12709640499E+03  0.00000000000E+00 0. -1.
          2   -1    0    0  502    0  0.00000000000E+00 -0.00000000000E+00 -0.23736850940E+03  0.23736850940E+03  0.00000000000E+00 0.  1.
         23    2    1    2    0    0 -0.59160518386E+02  0.31915361787E+02  0.60139935909E+02  0.12871521921E+03  0.91827220979E+02 0.  0.
         23    2    1    2    0    0  0.80619669334E+02 -0.29389826777E+02 -0.17277029866E+03  0.21401412827E+03  0.92677818267E+02 0.  0.
        -11    1    3    3    0    0  0.17751241574E+02  0.31284305034E+02  0.26948292874E+02  0.44944686089E+02  0.00000000000E+00 0.  1.
         11    1    3    3    0    0 -0.76911759960E+02  0.63105675360E+00  0.33191643035E+02  0.83770533126E+02  0.00000000000E+00 0. -1.
        -11    1    4    4    0    0  0.52310592165E+02  0.16530992028E+02 -0.32586151772E+02  0.63808534205E+02  0.00000000000E+00 0. -1.
         11    1    4    4    0    0  0.28309077169E+02 -0.45920818805E+02 -0.14018414688E+03  0.15020559406E+03  0.00000000000E+00 0.  1.
         21    1    1    2  502  501 -0.21459150948E+02 -0.25255350104E+01  0.23582583426E+01  0.21735566910E+02  0.00000000000E+00 0.  1.
<scales pt_clust_5="13000.00000" pt_clust_6="13000.00000" pt_clust_7="13000.00000" pt_clust_8="13000.00000" pt_clust_9="21.60726"></scales>
<clustering>
<clus scale="   21.607">  1  9  2 -1</clus>
<clus scale="   91.827">  5  6 -1 -1</clus>
<clus scale="   92.678">  7  8 -1 -1</clus>
<clus scale="  123.357">  1  5  2 -1</clus>
<clus scale="  123.991">  2  5  1 -1</clus>
</clustering>
</event>
<event>
 9    1  0.1484717E-005  0.9532211E+02  0.7546771E-02  0.1291690E+00
         -1   -1    0    0    0  501 -0.00000000000E+00  0.00000000000E+00  0.39132371048E+02  0.39132371048E+02  0.00000000000E+00 0.  1.
          1   -1    0    0  502    0  0.00000000000E+00 -0.00000000000E+00 -0.56888564747E+03  0.56888564747E+03  0.00000000000E+00 0. -1.
         23    2    1    2    0    0 -0.27119990721E+02  0.18420360527E+02 -0.43220490316E+02  0.10442747246E+03  0.89231623553E+02 0.  0.
         23    2    1    2    0    0  0.44588188758E+02  0.54532540270E+00 -0.43662057572E+03  0.44741168944E+03  0.86898151593E+02 0.  0.
        -11    1    3    3    0    0 -0.53037196595E+02  0.16216926144E+01 -0.49887481804E+02  0.72830865369E+02  0.00000000000E+00 0. -1.
         11    1    3    3    0    0  0.25917205875E+02  0.16798667912E+02  0.66669914876E+01  0.31596607088E+02  0.00000000000E+00 0.  1.
        -11    1    4    4    0    0  0.26604643060E+02  0.42704749121E+02 -0.18886191733E+03  0.19544903798E+03  0.00000000000E+00 0.  1.
         11    1    4    4    0    0  0.17983545698E+02 -0.42159423718E+02 -0.24775865839E+03  0.25196265146E+03  0.00000000000E+00 0. -1.
         21    1    1    2  502  501 -0.17468198037E+02 -0.18965685930E+02 -0.49912210387E+02  0.56178856620E+02  0.00000000000E+00 0. -1.
<scales pt_clust_5="13000.00000" pt_clust_6="13000.00000" pt_clust_7="13000.00000" pt_clust_8="13000.00000" pt_clust_9="25.78440"></scales>
<clustering>
<clus scale="   25.784">  2  9  1 -1</clus>
<clus scale="   86.898">  7  8 -1 -1</clus>
<clus scale="   89.232">  5  6 -1 -1</clus>
<clus scale="   93.141">  2  7  1 -1</clus>
<clus scale="   25.784">  2  5  1 -1</clus>
</clustering>
</event>
<event>
 9    1  0.1484717E-005  0.1016382E+03  0.7546771E-02  0.1279021E+00
          1   -1    0    0  502    0  0.00000000000E+00  0.00000000000E+00  0.59617515159E+03  0.59617515159E+03  0.00000000000E+00 0. -1.
         -1   -1    0    0    0  501 -0.00000000000E+00 -0.00000000000E+00 -0.26848885077E+03  0.26848885077E+03  0.00000000000E+00 0.  1.
         23    2    1    2    0    0 -0.37209220749E+01  0.19696859390E+01 -0.16218423535E+03  0.18611152025E+03  0.91192361787E+02 0.  0.
         23    2    1    2    0    0  0.97868299260E+01  0.34278904048E+02  0.57597673956E+03  0.58493072302E+03  0.95519217565E+02 0.  0.
        -11    1    3    3    0    0 -0.22836374427E+02  0.37564327374E+02 -0.11953965938E+03  0.12736682792E+03  0.00000000000E+00 0.  1.
         11    1    3    3    0    0  0.19115452352E+02 -0.35594641435E+02 -0.42644575972E+02  0.58744692334E+02  0.00000000000E+00 0. -1.
        -13    1    4    4    0    0 -0.22655429866E+02 -0.25387723443E+02  0.19649038453E+03  0.19941483449E+03  0.00000000000E+00 0.  1.
         13    1    4    4    0    0  0.32442259792E+02  0.59666627491E+02  0.37948635503E+03  0.38551588853E+03  0.00000000000E+00 0. -1.
         21    1    1    2  502  501 -0.60659078512E+01 -0.36248589987E+02 -0.86106203382E+02  0.93621759089E+02  0.00000000000E+00 0. -1.
<scales pt_clust_5="13000.00000" pt_clust_6="13000.00000" pt_clust_7="13000.00000" pt_clust_8="13000.00000" pt_clust_9="36.75263"></scales>
<clustering>
<clus scale="   36.753">  2  9  1 -1</clus>
<clus scale="   91.192">  5  6 -1 -1</clus>
<clus scale="   95.519">  7  8 -1 -1</clus>
<clus scale="   97.583">  2  5  1 -1</clus>
<clus scale="  101.638">  1  5  2 -1</clus>
</clustering>
</event>
<event>
 9    1  0.1484717E-005  0.9761346E+02  0.7546771E-02  0.1285534E+00
          3   -1    0    0  502    0  0.00000000000E+00  0.00000000000E+00  0.11119102737E+03  0.11119102737E+03  0.00000000000E+00 0. -1.
         -3   -1    0    0    0  501 -0.00000000000E+00 -0.00000000000E+00 -0.15706815772E+03  0.15706815772E+03  0.00000000000E+00 0.  1.
         23    2    1    2    0    0 -0.17344482830E+02  0.39280120536E+02 -0.51422802885E+02  0.11353668367E+03  0.91665232931E+02 0.  0.
         23    2    1    2    0    0 -0.16688881646E+02 -0.29172742693E+02  0.39539613568E+02  0.10556950546E+03  0.91934605862E+02 0.  0.
        -13    1    4    4    0    0 -0.21104134614E+01  0.28328331773E+02 -0.80428674837E+01  0.29523481221E+02  0.00000000000E+00 0.  1.
         13    1    4    4    0    0 -0.14578468185E+02 -0.57501074467E+02  0.47582481052E+02  0.76046024239E+02  0.00000000000E+00 0. -1.
        -13    1    3    3    0    0 -0.53948987420E+02  0.13643813077E+02 -0.21014515635E+02  0.59483247611E+02  0.00000000000E+00 0.  1.
         13    1    3    3    0    0  0.36604504590E+02  0.25636307459E+02 -0.30408287250E+02  0.54053436060E+02  0.00000000000E+00 0. -1.
         21    1    1    2  502  501  0.34033364477E+02 -0.10107377842E+02 -0.33993941034E+02  0.49152995956E+02  0.00000000000E+00 0. -1.
<scales pt_clust_5="13000.00000" pt_clust_6="13000.00000" pt_clust_7="13000.00000" pt_clust_8="13000.00000" pt_clust_9="35.50252"></scales>
<clustering>
<clus scale="   35.503">  2  9  1 -1</clus>
<clus scale="   91.665">  7  8 -1 -1</clus>
<clus scale="   91.935">  5  6 -1 -1</clus>
<clus scale="   97.360">  2  7  1 -1</clus>
<clus scale="   97.613">  1  5  2 -1</clus>
</clustering>
</event>
<event>
 9    1  0.1484717E-005  0.1569708E+03  0.7546771E-02  0.1195077E+00
         -1   -1    0    0    0  501 -0.00000000000E+00  0.00000000000E+00  0.24369251036E+03  0.24369251036E+03  0.00000000000E+00 0.  1.
          1   -1    0    0  502    0  0.00000000000E+00 -0.00000000000E+00 -0.41662726384E+03  0.41662726384E+03  0.00000000000E+00 0. -1.
         23    2    1    2    0    0 -0.45784902072E+02  0.12463182264E+03  0.94215557025E+02  0.18630681630E+03  0.90577647044E+02 0.  0.
         23    2    1    2    0    0  0.48930941935E+02 -0.10316213218E+03 -0.35284147618E+03  0.38561713757E+03  0.10567311334E+03 0.  0.
        -11    1    3    3    0    0 -0.67019781752E+02  0.83528116869E+02  0.38303365872E+02  0.11373541793E+03  0.00000000000E+00 0.  1.
         11    1    3    3    0    0  0.21234879680E+02  0.41103705769E+02  0.55912191153E+02  0.72571398378E+02  0.00000000000E+00 0. -1.
        -11    1    4    4    0    0 -0.25507248158E+02 -0.37241972801E+02 -0.18595634026E+03  0.19135659050E+03  0.00000000000E+00 0. -1.
         11    1    4    4    0    0  0.74438190092E+02 -0.65920159379E+02 -0.16688513592E+03  0.19426054707E+03  0.00000000000E+00 0.  1.
         21    1    1    2  502  501 -0.31460398626E+01 -0.21469690458E+02  0.85691165676E+02  0.88395820320E+02  0.00000000000E+00 0. -1.
<scales pt_clust_5="13000.00000" pt_clust_6="13000.00000" pt_clust_7="13000.00000" pt_clust_8="13000.00000" pt_clust_9="21.69897"></scales>
<clustering>
<clus scale="   21.699">  1  9  2 -1</clus>
<clus scale="   90.578">  5  6 -1 -1</clus>
<clus scale="  105.673">  7  8 -1 -1</clus>
<clus scale="  147.232">  1  5  2 -1</clus>
<clus scale="  156.971">  2  5  1 -1</clus>
</clustering>
</event>
<event>
 9    1  0.1484717E-005  0.1003219E+03  0.7546771E-02  0.1279668E+00
          1   -1    0    0  502    0  0.00000000000E+00  0.00000000000E+00  0.30954558840E+03  0.30954558840E+03  0.00000000000E+00 0. -1.
         -1   -1    0    0    0  501 -0.00000000000E+00 -0.00000000000E+00 -0.11893178428E+03  0.11893178428E+03  0.00000000000E+00 0.  1.
         23    2    1    2    0    0  0.55029037728E+02 -0.11198189486E+02 -0.47112701123E+02  0.11702136190E+03  0.91218408735E+02 0.  0.
         23    2    1    2    0    0 -0.32439986996E+02  0.24532435337E+02  0.25908060544E+03  0.27763198203E+03  0.91118407539E+02 0.  0.
        -11    1    4    4    0    0  0.27655300178E+01  0.53760667857E+02  0.14864010520E+03  0.15808775550E+03  0.00000000000E+00 0. -1.
         11    1    4    4    0    0 -0.35205517014E+02 -0.29228232520E+02  0.11044050024E+03  0.11954422654E+03  0.00000000000E+00 0.  1.
        -11    1    3    3    0    0  0.18869997079E+02 -0.27373884915E+02  0.20210860711E+02  0.38908678412E+02  0.00000000000E+00 0. -1.
         11    1    3    3    0    0  0.36159040649E+02  0.16175695429E+02 -0.67323561834E+02  0.78112683485E+02  0.00000000000E+00 0.  1.
         21    1    1    2  502  501 -0.22589050732E+02 -0.13334245850E+02 -0.21354100196E+02  0.33824028745E+02  0.00000000000E+00 0. -1.
<scales pt_clust_5="13000.00000" pt_clust_6="13000.00000" pt_clust_7="13000.00000" pt_clust_8="13000.00000" pt_clust_9="26.23104"></scales>
<clustering>
<clus scale="   26.231">  2  9  1 -1</clus>
<clus scale="   91.118">  5  6 -1 -1</clus>
<clus scale="   91.218">  7  8 -1 -1</clus>
<clus scale="  100.231">  1  5  2 -1</clus>
<clus scale="  100.231">  1  5  2 -1</clus>
</clustering>
</event>
<event>
 9    1  0.1484717E-005  0.1063968E+03  0.7546771E-02  0.1270227E+00
         -2   -1    0    0    0  501 -0.00000000000E+00  0.00000000000E+00  0.25282224852E+03  0.25282224852E+03  0.00000000000E+00 0.  1.
          2   -1    0    0  502    0  0.00000000000E+00 -0.00000000000E+00 -0.72942674794E+02  0.72942674794E+02  0.00000000000E+00 0. -1.
         23    2    1    2    0    0 -0.24295651557E+02 -0.31139258674E+02  0.16096717383E+03  0.18899017814E+03  0.90812577697E+02 0.  0.
         23    2    1    2    0    0  0.44100530966E+02  0.39203507745E+02  0.11703220122E+02  0.11420845096E+03  0.97081579399E+02 0.  0.
        -11    1    4    4    0    0  0.54333338584E+02  0.56588257324E+02  0.32789797739E+02  0.85026545175E+02  0.00000000000E+00 0.  1.
         11    1    4    4    0    0 -0.10232807617E+02 -0.17384749580E+02 -0.21086577617E+02  0.29181905786E+02  0.00000000000E+00 0. -1.
        -11    1    3    3    0    0  0.31551058377E-01  0.28108680283E+02  0.21070795321E+02  0.35129436633E+02  0.00000000000E+00 0. -1.
         11    1    3    3    0    0 -0.24327202616E+02 -0.59247938957E+02  0.13989637851E+03  0.15386074151E+03  0.00000000000E+00 0.  1.
         21    1    1    2  502  501 -0.19804879409E+02 -0.80642490706E+01  0.72091797755E+01  0.22566294213E+02  0.00000000000E+00 0. -1.
<scales pt_clust_5="13000.00000" pt_clust_6="13000.00000" pt_clust_7="13000.00000" pt_clust_8="13000.00000" pt_clust_9="21.38376"></scales>
<clustering>
<clus scale="   21.384">  2  9  1 -1</clus>
<clus scale="   90.813">  7  8 -1 -1</clus>
<clus scale="   97.082">  5  6 -1 -1</clus>
<clus scale="  100.709">  1  7  2 -1</clus>
<clus scale="   21.384">  2  5  1 -1</clus>
</clustering>
</event>
<event>
 9    1  0.1484717E-005  0.2592426E+03  0.7546771E-02  0.1107650E+00
          1   -1    0    0  502    0  0.00000000000E+00  0.00000000000E+00  0.59026772667E+02  0.59026772667E+02  0.00000000000E+00 0. -1.
         -1   -1    0    0    0  501 -0.00000000000E+00 -0.00000000000E+00 -0.13721634381E+04  0.13721634381E+04  0.00000000000E+00 0.  1.
         23    2    1    2    0    0 -0.21565192137E+03 -0.54300092286E+02 -0.68070330767E+03  0.72199184152E+03  0.91983558020E+02 0.  0.
         23    2    1    2    0    0  0.25238461849E+03  0.49388598471E+02 -0.47789148922E+03  0.55027510807E+03  0.91023017837E+02 0.  0.
        -11    1    4    4    0    0  0.24936558956E+02 -0.18477768225E+02 -0.28915547235E+02  0.42418967020E+02  0.00000000000E+00 0. -1.
         11    1    4    4    0    0  0.22744805954E+03  0.67866366697E+02 -0.44897594198E+03  0.50785614105E+03  0.00000000000E+00 0.  1.
        -13    1    3    3    0    0 -0.36912287547E+02 -0.38727899429E+00 -0.39074660793E+02  0.53754033087E+02  0.00000000000E+00 0.  1.
         13    1    3    3    0    0 -0.17873963382E+03 -0.53912813292E+02 -0.64162864687E+03  0.66823780844E+03  0.00000000000E+00 0. -1.
         21    1    1    2  502  501 -0.36732697128E+02  0.49114938151E+01 -0.15454186851E+03  0.15892326114E+03  0.00000000000E+00 0. -1.
<scales pt_clust_5="13000.00000" pt_clust_6="13000.00000" pt_clust_7="13000.00000" pt_clust_8="13000.00000" pt_clust_9="37.05960"></scales>
<clustering>
<clus scale="   37.060">  2  9  1 -1</clus>
<clus scale="   91.023">  5  6 -1 -1</clus>
<clus scale="   91.984">  7  8 -1 -1</clus>
<clus scale="  258.903">  1  5  2 -1</clus>
<clus scale="  258.903">  1  5  2 -1</clus>
</clustering>
</event>
<event>
 9    1  0.1484717E-005  0.1215277E+03  0.7546771E-02  0.1241946E+00
          1   -1    0    0  502    0  0.00000000000E+00  0.00000000000E+00  0.14459049962E+03  0.14459049962E+03  0.00000000000E+00 0. -1.
         -1   -1    0    0    0  501 -0.00000000000E+00 -0.00000000000E+00 -0.19292042941E+03  0.19292042941E+03  0.00000000000E+00 0.  1.
         23    2    1    2    0    0 -0.46610393199E+02 -0.60441435576E+02 -0.33218736631E+02  0.12501469930E+03  0.93271081747E+02 0.  0.
         23    2    1    2    0    0  0.19111985126E+02  0.78569594531E+02  0.57128769266E+02  0.13310224529E+03  0.88961015413E+02 0.  0.
        -11    1    4    4    0    0 -0.30614089683E+02  0.19492681019E+02 -0.12257149381E+01  0.36313764299E+02  0.00000000000E+00 0.  1.
         11    1    4    4    0    0  0.49726074809E+02  0.59076913512E+02  0.58354484204E+02  0.96788480992E+02  0.00000000000E+00 0. -1.
        -13    1    3    3    0    0  0.12959599421E+02 -0.24300479907E+02 -0.46538646004E+02  0.54076890746E+02  0.00000000000E+00 0. -1.
         13    1    3    3    0    0 -0.59569992620E+02 -0.36140955669E+02  0.13319909373E+02  0.70937808559E+02  0.00000000000E+00 0.  1.
         21    1    1    2  502  501  0.27498408073E+02 -0.18128158955E+02 -0.72239962422E+02  0.79393984434E+02  0.00000000000E+00 0.  1.
<scales pt_clust_5="13000.00000" pt_clust_6="13000.00000" pt_clust_7="13000.00000" pt_clust_8="13000.00000" pt_clust_9="32.93619"></scales>
<clustering>
<clus scale="   32.936">  2  9  1 -1</clus>
<clus scale="   88.961">  5  6 -1 -1</clus>
<clus scale="   93.271">  7  8 -1 -1</clus>
<clus scale="  118.252">  1  5  2 -1</clus>
<clus scale="  118.252">  1  5  2 -1</clus>
</clustering>
</event>
<event>
 9    1  0.1484717E-005  0.1229535E+03  0.7546771E-02  0.1239410E+00
         -2   -1    0    0    0  501 -0.00000000000E+00  0.00000000000E+00  0.71746959510E+03  0.71746959510E+03  0.00000000000E+00 0.  1.
          2   -1    0    0  502    0  0.00000000000E+00 -0.00000000000E+00 -0.50673450011E+03  0.50673450011E+03  0.00000000000E+00 0. -1.
         23    2    1    2    0    0 -0.13890991667E+02 -0.53482994483E+02 -0.12070607458E+03  0.16320180837E+03  0.94928833690E+02 0.  0.
         23    2    1    2    0    0 -0.76532139838E+02  0.74815692884E+02 -0.34793066583E+03  0.37530737112E+03  0.91352713493E+02 0.  0.
        -11    1    3    3    0    0 -0.11110071559E+02 -0.78632751866E+02 -0.67262994503E+02  0.10407138793E+03  0.00000000000E+00 0.  1.
         11    1    3    3    0    0 -0.27809201074E+01  0.25149757383E+02 -0.53443080076E+02  0.59130420437E+02  0.00000000000E+00 0. -1.
        -13    1    4    4    0    0 -0.28916162112E+02 -0.11682291778E+02 -0.16006325543E+03  0.16307319250E+03  0.00000000000E+00 0.  1.
         13    1    4    4    0    0 -0.47615977726E+02  0.86497984662E+02 -0.18786741040E+03  0.21223417862E+03  0.00000000000E+00 0. -1.
         21    1    1    2  502  501  0.90423131504E+02 -0.21332698401E+02  0.67937183539E+03  0.68569491572E+03  0.00000000000E+00 0.  1.
<scales pt_clust_5="13000.00000" pt_clust_6="13000.00000" pt_clust_7="13000.00000" pt_clust_8="13000.00000" pt_clust_9="92.90547"></scales>
<clustering>
<clus scale="   91.353">  7  8 -1 -1</clus>
<clus scale="   92.905">  1  9  2 -1</clus>
<clus scale="   94.929">  5  6 -1 -1</clus>
<clus scale="  120.214">  2  7  1 -1</clus>
<clus scale="  120.214">  2  5  1 -1</clus>
</clustering>
</event>
<event>
 9    1  0.1484717E-005  0.1311544E+03  0.7546771E-02  0.1226596E+00
         -1   -1    0    0    0  501 -0.00000000000E+00  0.00000000000E+00  0.85480268195E+02  0.85480268195E+02  0.00000000000E+00 0.  1.
          1   -1    0    0  502    0  0.00000000000E+00 -0.00000000000E+00 -0.37562311095E+03  0.37562311095E+03  0.00000000000E+00 0. -1.
         23    2    1    2    0    0  0.11167300042E+03  0.11099051414E+02 -0.34120966427E+02  0.14866762016E+03  0.91344255267E+02 0.  0.
         23    2    1    2    0    0 -0.43302404560E+02 -0.10062704043E+01 -0.19138354347E+03  0.21780745095E+03  0.94532080041E+02 0.  0.
        -11    1    3    3    0    0  0.61838614603E+02  0.15004512099E+02 -0.64147737630E+02  0.90355309099E+02  0.00000000000E+00 0. -1.
         11    1    3    3    0    0  0.49834385817E+02 -0.39054606851E+01  0.30026771203E+02  0.58312311065E+02  0.00000000000E+00 0.  1.
        -11    1    4    4    0    0 -0.71007949030E+02 -0.84920200702E+01 -0.10718384886E+03  0.12885115711E+03  0.00000000000E+00 0.  1.
         11    1    4    4    0    0  0.27705544470E+02  0.74857496659E+01 -0.84199694603E+02  0.88956293840E+02  0.00000000000E+00 0. -1.
         21    1    1    2  502  501 -0.68370595859E+02 -0.10092781010E+02 -0.64638332863E+02  0.94628308037E+02  0.00000000000E+00 0. -1.
<scales pt_clust_5="13000.00000" pt_clust_6="13000.00000" pt_clust_7="13000.00000" pt_clust_8="13000.00000" pt_clust_9="69.11152"></scales>
<clustering>
<clus scale="   69.112">  2  9  1 -1</clus>
<clus scale="   91.344">  5  6 -1 -1</clus>
<clus scale="   94.532">  7  8 -1 -1</clus>
<clus scale="  128.876">  1  5  2 -1</clus>
<clus scale="   69.112">  2  5  1 -1</clus>
</clustering>
</event>
<event>
 9    1  0.1484717E-005  0.1038641E+03  0.7546771E-02  0.1274189E+00
          2   -1    0    0  502    0  0.00000000000E+00  0.00000000000E+00  0.72176557807E+03  0.72176557807E+03  0.00000000000E+00 0. -1.
         -2   -1    0    0    0  501 -0.00000000000E+00 -0.00000000000E+00 -0.28468797659E+02  0.28468797659E+02  0.00000000000E+00 0.  1.
         23    2    1    2    0    0  0.28084520321E+02 -0.44903674807E+02  0.12069869834E+03  0.16215250139E+03  0.94446692015E+02 0.  0.
         23    2    1    2    0    0 -0.37200494813E+02  0.19981297646E+02  0.51592108213E+03  0.52549986257E+03  0.90511952302E+02 0.  0.
        -11    1    3    3    0    0  0.66573716171E+01  0.29639268989E+02  0.39948930092E+02  0.50186889509E+02  0.00000000000E+00 0.  1.
         11    1    3    3    0    0  0.21427148704E+02 -0.74542943796E+02  0.80749768244E+02  0.11196561188E+03  0.00000000000E+00 0. -1.
        -13    1    4    4    0    0  0.28970791892E+02  0.17084573572E+02  0.17724906590E+03  0.18041180892E+03  0.00000000000E+00 0.  1.
         13    1    4    4    0    0 -0.66171286705E+02  0.28967240746E+01  0.33867201623E+03  0.34508805365E+03  0.00000000000E+00 0. -1.
         21    1    1    2  502  501  0.91159744920E+01  0.24922377160E+02  0.56676999946E+02  0.62582011769E+02  0.00000000000E+00 0. -1.
<scales pt_clust_5="13000.00000" pt_clust_6="13000.00000" pt_clust_7="13000.00000" pt_clust_8="13000.00000" pt_clust_9="26.53725"></scales>
<clustering>
<clus scale="   26.537">  2  9  1 -1</clus>
<clus scale="   90.512">  7  8 -1 -1</clus>
<clus scale="   94.447">  5  6 -1 -1</clus>
<clus scale="  100.300">  1  7  2 -1</clus>
<clus scale="  100.300">  1  5  2 -1</clus>
</clustering>
</event>
<event>
 9    1  0.1484717E-005  0.1676312E+03  0.7546771E-02  0.1180673E+00
         -2   -1    0    0    0  501 -0.00000000000E+00  0.00000000000E+00  0.24138471277E+03  0.24138471277E+03  0.00000000000E+00 0.  1.
          2   -1    0    0  502    0  0.00000000000E+00 -0.00000000000E+00 -0.31458684954E+03  0.31458684954E+03  0.00000000000E+00 0. -1.
         23    2    1    2    0    0 -0.12495398887E+03  0.58620820370E+02  0.13609111918E+03  0.21514404745E+03  0.93360958226E+02 0.  0.
         23    2    1    2    0    0  0.13943142094E+03 -0.16115858900E+02 -0.23545436433E+03  0.28885953067E+03  0.91105591047E+02 0.  0.
        -11    1    4    4    0    0  0.44069144520E+02 -0.39547515140E+02 -0.13957582835E+03  0.15161631612E+03  0.00000000000E+00 0. -1.
         11    1    4    4    0    0  0.95362276421E+02  0.23431656241E+02 -0.95878535980E+02  0.13724321455E+03  0.00000000000E+00 0.  1.
        -13    1    3    3    0    0 -0.12609305734E+03  0.21988425724E+02  0.91054465550E+02  0.15707917008E+03  0.00000000000E+00 0.  1.
         13    1    3    3    0    0  0.11390684766E+01  0.36632394646E+02  0.45036653630E+02  0.58064877376E+02  0.00000000000E+00 0. -1.
         21    1    1    2  502  501 -0.14477432076E+02 -0.42504961471E+02  0.26161108381E+02  0.51967984191E+02  0.00000000000E+00 0. -1.
<scales pt_clust_5="13000.00000" pt_clust_6="13000.00000" pt_clust_7="13000.00000" pt_clust_8="13000.00000" pt_clust_9="44.90287"></scales>
<clustering>
<clus scale="   44.903">  1  9  2 -1</clus>
<clus scale="   91.106">  5  6 -1 -1</clus>
<clus scale="   93.361">  7  8 -1 -1</clus>
<clus scale="  166.386">  2  5  1 -1</clus>
<clus scale="  166.386">  2  5  1 -1</clus>
</clustering>
</event>
<event>
 9    1  0.1484717E-005  0.1253518E+03  0.7546771E-02  0.1235471E+00
         -2   -1    0    0    0  501 -0.00000000000E+00  0.00000000000E+00  0.50496959475E+02  0.50496959475E+02  0.00000000000E+00 0.  1.
          2   -1    0    0  502    0  0.00000000000E+00 -0.00000000000E+00 -0.62524575595E+03  0.62524575595E+03  0.00000000000E+00 0. -1.
         23    2    1    2    0    0 -0.29581291893E+02  0.10091794436E+03 -0.28360961139E+03  0.31601932972E+03  0.91511314910E+02 0.  0.
         23    2    1    2    0    0 -0.32347805064E+02 -0.66097545283E+02 -0.25082974829E+03  0.27803786718E+03  0.94732396661E+02 0.  0.
        -11    1    3    3    0    0 -0.53018918789E+02  0.47125216725E+02 -0.95445802324E+02  0.11891885041E+03  0.00000000000E+00 0.  1.
         11    1    3    3    0    0  0.23437626895E+02  0.53792727632E+02 -0.18816380907E+03  0.19710047931E+03  0.00000000000E+00 0. -1.
        -13    1    4    4    0    0 -0.10028999926E+02  0.21895618818E+02 -0.91957818017E+02  0.95059135581E+02  0.00000000000E+00 0. -1.
         13    1    4    4    0    0 -0.22318805138E+02 -0.87993164100E+02 -0.15887193027E+03  0.18297873160E+03  0.00000000000E+00 0.  1.
         21    1    1    2  502  501  0.61929096958E+02 -0.34820399075E+02 -0.40309436792E+02  0.81685518522E+02  0.00000000000E+00 0.  1.
<scales pt_clust_5="13000.00000" pt_clust_6="13000.00000" pt_clust_7="13000.00000" pt_clust_8="13000.00000" pt_clust_9="71.04698"></scales>
<clustering>
<clus scale="   71.047">  1  9  2 -1</clus>
<clus scale="   91.511">  5  6 -1 -1</clus>
<clus scale="   94.732">  7  8 -1 -1</clus>
<clus scale="  122.936">  1  5  2 -1</clus>
<clus scale="  125.352">  2  5  1 -1</clus>
</clustering>
</event>
<event>
 9    1  0.1484717E-005  0.1034764E+03  0.7546771E-02  0.1273683E+00
         -1   -1    0    0    0  501 -0.00000000000E+00  0.00000000000E+00  0.23730669286E+03  0.23730669286E+03  0.00000000000E+00 0.  1.
          1   -1    0    0  502    0  0.00000000000E+00 -0.00000000000E+00 -0.17423014432E+03  0.17423014432E+03  0.00000000000E+00 0. -1.
         23    2    1    2    0    0  0.51341015758E+02 -0.68182780526E+01  0.15997223169E+03  0.19226165501E+03  0.93225748919E+02 0.  0.
         23    2    1    2    0    0 -0.27014236270E+02  0.10538367741E+02  0.21056242541E+02  0.98783323350E+02  0.92054079031E+02 0.  0.
        -11    1    4    4    0    0 -0.60248437506E+02  0.13532701489E+02  0.55826791624E+01  0.62001407549E+02  0.00000000000E+00 0. -1.
         11    1    4    4    0    0  0.33234201236E+02 -0.29943337480E+01  0.15473563378E+02  0.36781915801E+02  0.00000000000E+00 0.  1.
        -13    1    3    3    0    0  0.41987198494E+02  0.39751424684E+02  0.10267608316E+03  0.11783666091E+03  0.00000000000E+00 0.  1.
         13    1    3    3    0    0  0.93538172638E+01 -0.46569702737E+02  0.57296148528E+02  0.74424994098E+02  0.00000000000E+00 0. -1.
         21    1    1    2  502  501 -0.24326779488E+02 -0.37200896880E+01 -0.11795192569E+03  0.12049185882E+03  0.00000000000E+00 0. -1.
<scales pt_clust_5="13000.00000" pt_clust_6="13000.00000" pt_clust_7="13000.00000" pt_clust_8="13000.00000" pt_clust_9="24.60958"></scales>
<clustering>
<clus scale="   24.610">  2  9  1 -1</clus>
<clus scale="   92.054">  5  6 -1 -1</clus>
<clus scale="   93.226">  7  8 -1 -1</clus>
<clus scale="  102.422">  2  5  1 -1</clus>
<clus scale="   24.610">  2  5  1 -1</clus>
</clustering>
</event>
<event>
 9    1  0.1484717E-005  0.1850494E+03  0.7546771E-02  0.1163559E+00
         -1   -1    0    0    0  501 -0.00000000000E+00  0.00000000000E+00  0.21273085315E+03  0.21273085315E+03  0.00000000000E+00 0.  1.
          1   -1    0    0  502    0  0.00000000000E+00 -0.00000000000E+00 -0.27040040348E+03  0.27040040348E+03  0.00000000000E+00 0. -1.
         23    2    1    2    0    0 -0.11033657809E+03 -0.15187057613E+02  0.34505571477E+02  0.14960114550E+03  0.93728656708E+02 0.  0.
         23    2    1    2    0    0  0.18350192041E+03  0.59607881365E+02 -0.11938998271E+03  0.24371348932E+03  0.88973268941E+02 0.  0.
        -11    1    4    4    0    0  0.73504036370E+02 -0.11205616020E+02 -0.13859756606E+02  0.75634000597E+02  0.00000000000E+00 0.  1.
         11    1    4    4    0    0  0.10999788404E+03  0.70813497386E+02 -0.10553022611E+03  0.16807948872E+03  0.00000000000E+00 0. -1.
        -13    1    3    3    0    0 -0.17877128448E+02 -0.34074897753E+02 -0.17026948346E+02  0.42078585390E+02  0.00000000000E+00 0. -1.
         13    1    3    3    0    0 -0.92459449641E+02  0.18887840140E+02  0.51532519824E+02  0.10752256011E+03  0.00000000000E+00 0.  1.
         21    1    1    2  502  501 -0.73165342325E+02 -0.44420823752E+02  0.27214860898E+02  0.89816621814E+02  0.00000000000E+00 0.  1.
<scales pt_clust_5="13000.00000" pt_clust_6="13000.00000" pt_clust_7="13000.00000" pt_clust_8="13000.00000" pt_clust_9="85.59426"></scales>
<clustering>
<clus scale="   85.594">  1  9  2 -1</clus>
<clus scale="   88.973">  5  6 -1 -1</clus>
<clus scale="   93.729">  7  8 -1 -1</clus>
<clus scale="  182.687">  2  5  1 -1</clus>
<clus scale="  182.687">  2  5  1 -1</clus>
</clustering>
</event>
<event>
 9    1  0.1484717E-005  0.1097380E+03  0.7546771E-02  0.1261252E+00
         -3   -1    0    0    0  501 -0.00000000000E+00  0.00000000000E+00  0.28955884901E+03  0.28955884901E+03  0.00000000000E+00 0.  1.
          3   -1    0    0  502    0  0.00000000000E+00 -0.00000000000E+00 -0.10027430274E+03  0.10027430274E+03  0.00000000000E+00 0. -1.
         23    2    1    2    0    0 -0.55349752757E+02 -0.42524963523E+02  0.15025356634E+03  0.19040238828E+03  0.93834788916E+02 0.  0.
         23    2    1    2    0    0  0.33448735609E+02  0.42995073652E+02 -0.41655172922E+02  0.11582376126E+03  0.93341287589E+02 0.  0.
        -11    1    4    4    0    0  0.15875933168E+02  0.68178103276E+02 -0.83112537935E+01  0.70493800862E+02  0.00000000000E+00 0. -1.
         11    1    4    4    0    0  0.17572802441E+02 -0.25183029625E+02 -0.33343919129E+02  0.45329960397E+02  0.00000000000E+00 0.  1.
        -13    1    3    3    0    0  0.13914479701E+02 -0.19176804969E+02  0.97299677717E+02  0.10014284736E+03  0.00000000000E+00 0.  1.
         13    1    3    3    0    0 -0.69264232459E+02 -0.23348158554E+02  0.52953888628E+02  0.90259540918E+02  0.00000000000E+00 0. -1.
         21    1    1    2  502  501  0.21901017148E+02 -0.47011012894E+00  0.80686152848E+02  0.83607002201E+02  0.00000000000E+00 0.  1.
<scales pt_clust_5="13000.00000" pt_clust_6="13000.00000" pt_clust_7="13000.00000" pt_clust_8="13000.00000" pt_clust_9="21.90606"></scales>
<clustering>
<clus scale="   21.906">  1  9  2 -1</clus>
<clus scale="   93.341">  5  6 -1 -1</clus>
<clus scale="   93.835">  7  8 -1 -1</clus>
<clus scale="  109.316">  2  5  1 -1</clus>
<clus scale="  109.316">  2  5  1 -1</clus>
</clustering>
</event>
<event>
 9    1  0.1484717E-005  0.9642951E+02  0.7546771E-02  0.1305126E+00
         -1   -1    0    0    0  501 -0.00000000000E+00  0.00000000000E+00  0.68915604220E+03  0.68915604220E+03  0.00000000000E+00 0.  1.
          1   -1    0    0  502    0  0.00000000000E+00 -0.00000000000E+00 -0.18677952019E+02  0.18677952019E+02  0.00000000000E+00 0. -1.
         23    2    1    2    0    0 -0.12380192111E+02 -0.33072319776E+02  0.40006879674E+03  0.41280733745E+03  0.95434837620E+02 0.  0.
         23    2    1    2    0    0 -0.12121254388E+02 -0.77369042277E+01  0.16661913761E+03  0.18084211276E+03  0.68812413374E+02 0.  0.
        -13    1    4    4    0    0  0.21608763110E+02  0.12897620842E+02  0.10222444021E+03  0.10527641447E+03  0.00000000000E+00 0.  1.
         13    1    4    4    0    0 -0.33730017497E+02 -0.20634525070E+02  0.64394697395E+02  0.75565698288E+02  0.00000000000E+00 0. -1.
        -13    1    3    3    0    0 -0.41201324541E+02  0.10701264583E+02  0.25571431845E+03  0.25923325186E+03  0.00000000000E+00 0.  1.
         13    1    3    3    0    0  0.28821132430E+02 -0.43773584359E+02  0.14435447829E+03  0.15357408559E+03  0.00000000000E+00 0. -1.
         21    1    1    2  502  501  0.24501446499E+02  0.40809224004E+02  0.10379015583E+03  0.11418454401E+03  0.00000000000E+00 0.  1.
<scales pt_clust_5="13000.00000" pt_clust_6="13000.00000" pt_clust_7="13000.00000" pt_clust_8="13000.00000" pt_clust_9="47.59951"></scales>
<clustering>
<clus scale="   47.600">  2  9  1 -1</clus>
<clus scale="   68.812">  5  6 -1 -1</clus>
<clus scale="   70.185">  2  5  1 -1</clus>
<clus scale="   95.435">  7  8 -1 -1</clus>
<clus scale="   47.600">  2  5  1 -1</clus>
</clustering>
</event>
<event>
 9    1  0.1484717E-005  0.9432706E+02  0.7546771E-02  0.1301288E+00
         -1   -1    0    0    0  501 -0.00000000000E+00  0.00000000000E+00  0.55362238451E+02  0.55362238451E+02  0.00000000000E+00 0.  1.
          1   -1    0    0  502    0  0.00000000000E+00 -0.00000000000E+00 -0.28385474079E+03  0.28385474079E+03  0.00000000000E+00 0. -1.
         23    2    1    2    0    0 -0.16362061792E+01  0.12511499999E+02 -0.32520766875E+02  0.98507974131E+02  0.92124947144E+02 0.  0.
         23    2    1    2    0    0 -0.25622726260E+02  0.35706468431E+00 -0.19387759619E+03  0.21049253983E+03  0.77858431918E+02 0.  0.
        -13    1    4    4    0    0 -0.53719962169E+02 -0.17971971078E+01 -0.13018106749E+03  0.14084095493E+03  0.00000000000E+00 0. -1.
         13    1    4    4    0    0  0.28097235910E+02  0.21542617921E+01 -0.63696528705E+02  0.69651584897E+02  0.00000000000E+00 0.  1.
        -13    1    3    3    0    0 -0.17231744522E+02  0.36953472045E+02 -0.50104965567E+02  0.64598759198E+02  0.00000000000E+00 0. -1.
         13    1    3    3    0    0  0.15595538343E+02 -0.24441972046E+02  0.17584198692E+02  0.33909214933E+02  0.00000000000E+00 0.  1.
         21    1    1    2  502  501  0.27258932439E+02 -0.12868564683E+02 -0.20941392656E+01  0.30216465279E+02  0.00000000000E+00 0.  1.
<scales pt_clust_5="13000.00000" pt_clust_6="13000.00000" pt_clust_7="13000.00000" pt_clust_8="13000.00000" pt_clust_9="30.14381"></scales>
<clustering>
<clus scale="   30.144">  1  9  2 -1</clus>
<clus scale="   77.858">  5  6 -1 -1</clus>
<clus scale="   80.452">  2  5  1 -1</clus>
<clus scale="   92.125">  7  8 -1 -1</clus>
<clus scale="   80.452">  2  5  1 -1</clus>
</clustering>
</event>
<event>
 9    1  0.1484717E-005  0.1111622E+03  0.7546771E-02  0.1260212E+00
          2   -1    0    0  502    0  0.00000000000E+00  0.00000000000E+00  0.19221115452E+03  0.19221115452E+03  0.00000000000E+00 0. -1.
         -2   -1    0    0    0  501 -0.00000000000E+00 -0.00000000000E+00 -0.12244233947E+03  0.12244233947E+03  0.00000000000E+00 0.  1.
         23    2    1    2    0    0 -0.26781020489E+02  0.34324702569E+02 -0.57169645743E+02  0.11807156092E+03  0.93686268144E+02 0.  0.
         23    2    1    2    0    0  0.34618588769E+02 -0.53175707200E+02  0.13575253516E+03  0.17434512216E+03  0.89114355154E+02 0.  0.
        -13    1    4    4    0    0  0.29420162050E+02 -0.74358086055E+02  0.74375845581E+02  0.10920822910E+03  0.00000000000E+00 0.  1.
         13    1    4    4    0    0  0.51984267194E+01  0.21182378855E+02  0.61376689580E+02  0.65136893065E+02  0.00000000000E+00 0. -1.
        -13    1    3    3    0    0 -0.59068629147E+02  0.11563764239E+02 -0.49273693111E+02  0.77786376863E+02  0.00000000000E+00 0.  1.
         13    1    3    3    0    0  0.32287608658E+02  0.22760938330E+02 -0.78959526324E+01  0.40285184057E+02  0.00000000000E+00 0. -1.
         21    1    1    2  502  501 -0.78375682798E+01  0.18851004631E+02 -0.88140743697E+01  0.22236810903E+02  0.00000000000E+00 0.  1.
<scales pt_clust_5="13000.00000" pt_clust_6="13000.00000" pt_clust_7="13000.00000" pt_clust_8="13000.00000" pt_clust_9="20.41538"></scales>
<clustering>
<clus scale="   20.415">  2  9  1 -1</clus>
<clus scale="   89.114">  5  6 -1 -1</clus>
<clus scale="   93.686">  7  8 -1 -1</clus>
<clus scale="  107.337">  1  5  2 -1</clus>
<clus scale="  107.337">  1  5  2 -1</clus>
</clustering>
</event>
<event>
 9    1  0.1484717E-005  0.1117085E+03  0.7546771E-02  0.1259171E+00
          1   -1    0    0  502    0  0.00000000000E+00  0.00000000000E+00  0.20079384333E+03  0.20079384333E+03  0.00000000000E+00 0. -1.
         -1   -1    0    0    0  501 -0.00000000000E+00 -0.00000000000E+00 -0.93242311293E+02  0.93242311293E+02  0.00000000000E+00 0.  1.
         23    2    1    2    0    0 -0.37978886702E+02 -0.33601812652E+02  0.88846293640E+01  0.10604538663E+03  0.92710353992E+02 0.  0.
         23    2    1    2    0    0  0.56235041493E+02  0.65058068376E+02  0.82207915951E+02  0.14806982793E+03  0.88156680665E+02 0.  0.
        -11    1    4    4    0    0  0.39242129125E+02 -0.85544163683E+01  0.54282225603E+02  0.67525423020E+02  0.00000000000E+00 0.  1.
         11    1    4    4    0    0  0.16992912369E+02  0.73612484744E+02  0.27925690348E+02  0.80544404911E+02  0.00000000000E+00 0. -1.
        -13    1    3    3    0    0 -0.48643351980E+02 -0.66233947513E+01 -0.29999004987E+02  0.57532472136E+02  0.00000000000E+00 0.  1.
         13    1    3    3    0    0  0.10664465278E+02 -0.26978417901E+02  0.38883634351E+02  0.48512914491E+02  0.00000000000E+00 0. -1.
         21    1    1    2  502  501 -0.18256154791E+02 -0.31456255724E+02  0.16458986727E+02  0.39920940069E+02  0.00000000000E+00 0.  1.
<scales pt_clust_5="13000.00000" pt_clust_6="13000.00000" pt_clust_7="13000.00000" pt_clust_8="13000.00000" pt_clust_9="36.37009"></scales>
<clustering>
<clus scale="   36.370">  1  9  2 -1</clus>
<clus scale="   88.157">  5  6 -1 -1</clus>
<clus scale="   92.710">  7  8 -1 -1</clus>
<clus scale="  107.959">  1  5  2 -1</clus>
<clus scale="   36.370">  1  5  2 -1</clus>
</clustering>
</event>
<event>
 9    1  0.1484717E-005  0.1080353E+03  0.7546771E-02  0.1266887E+00
         -2   -1    0    0    0  501 -0.00000000000E+00  0.00000000000E+00  0.21695458337E+03  0.21695458337E+03  0.00000000000E+00 0.  1.
          2   -1    0    0  502    0  0.00000000000E+00 -0.00000000000E+00 -0.14463719194E+03  0.14463719194E+03  0.00000000000E+00 0. -1.
         23    2    1    2    0    0  0.10450182113E+02  0.82180062820E+02  0.11923621407E+03  0.17185201664E+03  0.91940588671E+02 0.  0.
         23    2    1    2    0    0 -0.17124937617E+02 -0.50076296909E+02 -0.90433106271E+02  0.13525400800E+03  0.85525440490E+02 0.  0.
        -13    1    3    3    0    0  0.68817360705E+01  0.46106414476E+02  0.12655767187E+03  0.13487032311E+03  0.00000000000E+00 0.  1.
         13    1    3    3    0    0  0.35684460429E+01  0.36073648344E+02 -0.73214577955E+01  0.36981693529E+02  0.00000000000E+00 0. -1.
        -13    1    4    4    0    0  0.64865926931E+01 -0.66055433048E+02 -0.40496821118E+02  0.77752097339E+02  0.00000000000E+00 0.  1.
         13    1    4    4    0    0 -0.23611530310E+02  0.15979136139E+02 -0.49936285154E+02  0.57501910666E+02  0.00000000000E+00 0. -1.
         21    1    1    2  502  501  0.66747555035E+01 -0.32103765911E+02  0.43514283623E+02  0.54485750669E+02  0.00000000000E+00 0. -1.
<scales pt_clust_5="13000.00000" pt_clust_6="13000.00000" pt_clust_7="13000.00000" pt_clust_8="13000.00000" pt_clust_9="32.79031"></scales>
<clustering>
<clus scale="   32.790">  1  9  2 -1</clus>
<clus scale="   85.525">  7  8 -1 -1</clus>
<clus scale="   91.941">  5  6 -1 -1</clus>
<clus scale="  102.631">  2  7  1 -1</clus>
<clus scale="  102.631">  2  5  1 -1</clus>
</clustering>
</event>
<event>
 9    1  0.1656540E-005  0.9278819E+02  0.7546771E-02  0.1297638E+00
         -2   -1    0    0    0  501 -0.00000000000E+00  0.00000000000E+00  0.70163966542E+02  0.70163966542E+02  0.00000000000E+00 0.  1.
          2   -1    0    0  502    0  0.00000000000E+00 -0.00000000000E+00 -0.45192064189E+03  0.45192064189E+03  0.00000000000E+00 0. -1.
         23    2    1    2    0    0  0.29331518221E+02 -0.39089027253E+02 -0.13082421585E+01  0.10240252330E+03  0.89979304670E+02 0.  0.
         23    2    1    2    0    0 -0.60916055150E+01 -0.21453920101E+01 -0.35305341568E+03  0.36499334900E+03  0.92367310932E+02 0.  0.
        -11    1    3    3    0    0 -0.68666307383E+00 -0.37892462618E+02 -0.38881098550E+02  0.54295948779E+02  0.00000000000E+00 0. -1.
         11    1    3    3    0    0  0.30018181294E+02 -0.11965646351E+01  0.37572856392E+02  0.48106574525E+02  0.00000000000E+00 0.  1.
        -13    1    4    4    0    0  0.42494313773E+02  0.50246124642E+01 -0.14237240936E+03  0.14866376956E+03  0.00000000000E+00 0.  1.
         13    1    4    4    0    0 -0.48585919288E+02 -0.71700044743E+01 -0.21068100632E+03  0.21632957944E+03  0.00000000000E+00 0. -1.
         21    1    1    2  502  501 -0.23239912706E+02  0.41234419263E+02 -0.27395017512E+02  0.54688736125E+02  0.00000000000E+00 0.  1.
<scales pt_clust_5="13000.00000" pt_clust_6="13000.00000" pt_clust_7="13000.00000" pt_clust_8="13000.00000" pt_clust_9="47.33256"></scales>
<clustering>
<clus scale="   47.333">  1  9  2 -1</clus>
<clus scale="   89.979">  5  6 -1 -1</clus>
<clus scale="   90.411">  1  5  2 -1</clus>
<clus scale="   92.367">  7  8 -1 -1</clus>
<clus scale="   92.788">  2  5  1 -1</clus>
</clustering>
</event>
<event>
 9    1  0.1484717E-005  0.1418870E+03  0.7546771E-02  0.1213375E+00
          1   -1    0    0  502    0  0.00000000000E+00  0.00000000000E+00  0.30138695399E+03  0.30138695399E+03  0.00000000000E+00 0. -1.
         -1   -1    0    0    0  501 -0.00000000000E+00 -0.00000000000E+00 -0.11515103839E+03  0.11515103839E+03  0.00000000000E+00 0.  1.
         23    2    1    2    0    0 -0.39402600265E+02  0.87735400334E+02 -0.28505647635E+02  0.13497944547E+03  0.90315078323E+02 0.  0.
         23    2    1    2    0    0  0.28071282571E+02 -0.11128858369E+03  0.19909552682E+03  0.25109628071E+03  0.10117888919E+03 0.  0.
        -13    1    4    4    0    0 -0.28099577167E+02 -0.38905154621E+02  0.24413622305E+02  0.53844426333E+02  0.00000000000E+00 0.  1.
         13    1    4    4    0    0  0.56170859738E+02 -0.72383429072E+02  0.17468190452E+03  0.19725185437E+03  0.00000000000E+00 0. -1.
        -13    1    3    3    0    0 -0.62879332881E+02  0.73314969937E+02 -0.40748373171E+02  0.10482998253E+03  0.00000000000E+00 0.  1.
         13    1    3    3    0    0  0.23476732615E+02  0.14420430397E+02  0.12242725536E+02  0.30149462942E+02  0.00000000000E+00 0. -1.
         21    1    1    2  502  501  0.11331317695E+02  0.23553183359E+02  0.15646036409E+02  0.30462266205E+02  0.00000000000E+00 0. -1.
<scales pt_clust_5="13000.00000" pt_clust_6="13000.00000" pt_clust_7="13000.00000" pt_clust_8="13000.00000" pt_clust_9="26.13716"></scales>
<clustering>
<clus scale="   26.137">  1  9  2 -1</clus>
<clus scale="   90.315">  7  8 -1 -1</clus>
<clus scale="  101.179">  5  6 -1 -1</clus>
<clus scale="  134.356">  2  7  1 -1</clus>
<clus scale="   26.137">  1  5  2 -1</clus>
</clustering>
</event>
<event>
 9    1  0.1484717E-005  0.1015550E+03  0.7546771E-02  0.1277488E+00
         -2   -1    0    0    0  501 -0.00000000000E+00  0.00000000000E+00  0.81432353946E+02  0.81432353946E+02  0.00000000000E+00 0.  1.
          2   -1    0    0  502    0  0.00000000000E+00 -0.00000000000E+00 -0.37080741701E+03  0.37080741701E+03  0.00000000000E+00 0. -1.
         23    2    1    2    0    0 -0.47328387843E+02 -0.20034250489E+02 -0.41571265069E+02  0.11180498717E+03  0.90171157184E+02 0.  0.
         23    2    1    2    0    0  0.21750944548E+02  0.42786580049E+02 -0.27730916203E+03  0.29524141467E+03  0.89237472903E+02 0.  0.
        -11    1    3    3    0    0 -0.24848847402E+02  0.35673896565E+02 -0.21229851412E+02  0.48381801375E+02  0.00000000000E+00 0.  1.
         11    1    3    3    0    0 -0.22479540441E+02 -0.55708147054E+02 -0.20341413657E+02  0.63423185793E+02  0.00000000000E+00 0. -1.
        -13    1    4    4    0    0 -0.10467211960E+01  0.64552010215E+02 -0.13720169147E+03  0.15163232436E+03  0.00000000000E+00 0.  1.
         13    1    4    4    0    0  0.22797665744E+02 -0.21765430166E+02 -0.14010747056E+03  0.14360909031E+03  0.00000000000E+00 0. -1.
         21    1    1    2  502  501  0.25577443295E+02 -0.22752329560E+02  0.29505364031E+02  0.45193369121E+02  0.00000000000E+00 0.  1.
<scales pt_clust_5="13000.00000" pt_clust_6="13000.00000" pt_clust_7="13000.00000" pt_clust_8="13000.00000" pt_clust_9="34.23265"></scales>
<clustering>
<clus scale="   34.233">  1  9  2 -1</clus>
<clus scale="   89.237">  7  8 -1 -1</clus>
<clus scale="   90.171">  5  6 -1 -1</clus>
<clus scale="  100.727">  2  7  1 -1</clus>
<clus scale="  100.727">  2  5  1 -1</clus>
</clustering>
</event>
<event>
 9    1  0.1484717E-005  0.1111156E+03  0.7546771E-02  0.1258750E+00
         -2   -1    0    0    0  501 -0.00000000000E+00  0.00000000000E+00  0.33699586062E+02  0.33699586062E+02  0.00000000000E+00 0.  1.
          2   -1    0    0  502    0  0.00000000000E+00 -0.00000000000E+00 -0.59073482224E+03  0.59073482224E+03  0.00000000000E+00 0. -1.
         23    2    1    2    0    0 -0.58334639218E+02  0.16999712898E+02 -0.11581175702E+03  0.15704975767E+03  0.86950232599E+02 0.  0.
         23    2    1    2    0    0  0.73247476436E+02  0.74867798732E+01 -0.40811435698E+03  0.42358744737E+03  0.86300362218E+02 0.  0.
        -11    1    3    3    0    0 -0.49980516016E+02  0.47389798569E+02 -0.53472317006E+02  0.87195949880E+02  0.00000000000E+00 0.  1.
         11    1    3    3    0    0 -0.83541232020E+01 -0.30390085670E+02 -0.62339440013E+02  0.69853807789E+02  0.00000000000E+00 0. -1.
        -11    1    4    4    0    0 -0.16483800447E+02  0.15206016519E+02 -0.61426433022E+02  0.65392241813E+02  0.00000000000E+00 0.  1.
         11    1    4    4    0    0  0.89731276883E+02 -0.77192366461E+01 -0.34668792395E+03  0.35819520555E+03  0.00000000000E+00 0. -1.
         21    1    1    2  502  501 -0.14912837218E+02 -0.24486492772E+02 -0.33109122181E+02  0.43797203264E+02  0.00000000000E+00 0. -1.
<scales pt_clust_5="13000.00000" pt_clust_6="13000.00000" pt_clust_7="13000.00000" pt_clust_8="13000.00000" pt_clust_9="28.67021"></scales>
<clustering>
<clus scale="   28.670">  1  9  2 -1</clus>
<clus scale="   86.300">  7  8 -1 -1</clus>
<clus scale="   86.950">  5  6 -1 -1</clus>
<clus scale="  110.608">  2  7  1 -1</clus>
<clus scale="  110.608">  2  5  1 -1</clus>
</clustering>
</event>
<event>
 9    1  0.1484717E-005  0.1247317E+03  0.7546771E-02  0.1238849E+00
          3   -1    0    0  502    0  0.00000000000E+00  0.00000000000E+00  0.24240950659E+03  0.24240950659E+03  0.00000000000E+00 0. -1.
         -3   -1    0    0    0  501 -0.00000000000E+00 -0.00000000000E+00 -0.15111191323E+03  0.15111191323E+03  0.00000000000E+00 0.  1.
         23    2    1    2    0    0  0.41971442781E+02 -0.50248409825E+02 -0.78500287149E+02  0.13629540928E+03  0.90153418172E+02 0.  0.
         23    2    1    2    0    0 -0.14321464867E+02  0.75279625988E+02  0.17866144763E+03  0.21889004984E+03  0.10060225944E+03 0.  0.
        -11    1    4    4    0    0  0.79967593099E+01  0.45619697827E+02  0.17564500679E+03  0.18164876382E+03  0.00000000000E+00 0. -1.
         11    1    4    4    0    0 -0.22318224177E+02  0.29659928161E+02  0.30164408471E+01  0.37241286018E+02  0.00000000000E+00 0.  1.
        -13    1    3    3    0    0 -0.23170214543E+02  0.62943744596E+01 -0.94470324154E+01  0.25801635864E+02  0.00000000000E+00 0. -1.
         13    1    3    3    0    0  0.65141657323E+02 -0.56542784284E+02 -0.69053254734E+02  0.11049377341E+03  0.00000000000E+00 0.  1.
         21    1    1    2  502  501 -0.27649977914E+02 -0.25031216163E+02 -0.88635671192E+01  0.38335960707E+02  0.00000000000E+00 0.  1.
<scales pt_clust_5="13000.00000" pt_clust_6="13000.00000" pt_clust_7="13000.00000" pt_clust_8="13000.00000" pt_clust_9="37.29723"></scales>
<clustering>
<clus scale="   37.297">  2  9  1 -1</clus>
<clus scale="   90.153">  7  8 -1 -1</clus>
<clus scale="  100.602">  5  6 -1 -1</clus>
<clus scale="  116.468">  2  7  1 -1</clus>
<clus scale="  124.732">  1  5  2 -1</clus>
</clustering>
</event>
<event>
 9    1  0.1484717E-005  0.1321637E+03  0.7546771E-02  0.1226652E+00
          1   -1    0    0  502    0  0.00000000000E+00  0.00000000000E+00  0.50829124940E+03  0.50829124940E+03  0.00000000000E+00 0. -1.
         -1   -1    0    0    0  501 -0.00000000000E+00 -0.00000000000E+00 -0.72992353570E+02  0.72992353570E+02  0.00000000000E+00 0.  1.
         23    2    1    2    0    0 -0.38455721474E+02  0.68195431886E+01  0.55257336063E+02  0.12253776350E+03  0.10216056780E+03 0.  0.
         23    2    1    2    0    0  0.99109462599E+02  0.23685340513E+02  0.36332723487E+03  0.38882593601E+03  0.93782983442E+02 0.  0.
        -11    1    4    4    0    0  0.44863055647E+02  0.11433675208E+02  0.41329030100E+02  0.62060546402E+02  0.00000000000E+00 0.  1.
         11    1    4    4    0    0  0.54246406953E+02  0.12251665305E+02  0.32199820477E+03  0.32676538961E+03  0.00000000000E+00 0. -1.
        -13    1    3    3    0    0  0.18682070716E+02 -0.21590238397E+02 -0.10956070231E+02  0.30580935813E+02  0.00000000000E+00 0.  1.
         13    1    3    3    0    0 -0.57137792190E+02  0.28409781586E+02  0.66213406294E+02  0.91956827692E+02  0.00000000000E+00 0. -1.
         21    1    1    2  502  501 -0.60653741125E+02 -0.30504883701E+02  0.16714324893E+02  0.69919903452E+02  0.00000000000E+00 0.  1.
<scales pt_clust_5="13000.00000" pt_clust_6="13000.00000" pt_clust_7="13000.00000" pt_clust_8="13000.00000" pt_clust_9="67.89274"></scales>
<clustering>
<clus scale="   67.893">  2  9  1 -1</clus>
<clus scale="   93.783">  5  6 -1 -1</clus>
<clus scale="  102.161">  7  8 -1 -1</clus>
<clus scale="  125.800">  1  5  2 -1</clus>
<clus scale="  125.800">  1  5  2 -1</clus>
</clustering>
</event>
<event>
 9    1  0.1484717E-005  0.1566225E+03  0.7546771E-02  0.1192617E+00
          2   -1    0    0  502    0  0.00000000000E+00  0.00000000000E+00  0.34688126362E+03  0.34688126362E+03  0.00000000000E+00 0. -1.
         -2   -1    0    0    0  501 -0.00000000000E+00 -0.00000000000E+00 -0.15208984358E+03  0.15208984358E+03  0.00000000000E+00 0.  1.
         23    2    1    2    0    0  0.98987208608E+02 -0.89780660435E+02  0.61213085926E+02  0.17368493323E+03  0.92522319943E+02 0.  0.
         23    2    1    2    0    0 -0.15034485826E+02  0.13385482688E+03  0.15793808409E+03  0.22738832297E+03  0.92832432779E+02 0.  0.
        -13    1    4    4    0    0 -0.17660526836E+02  0.10708095060E+03  0.56322758082E+02  0.12227214428E+03  0.00000000000E+00 0. -1.
         13    1    4    4    0    0  0.26260410098E+01  0.26773876276E+02  0.10161532601E+03  0.10511617869E+03  0.00000000000E+00 0.  1.
        -13    1    3    3    0    0  0.97107891460E+02 -0.34928658789E+02  0.20168948492E+02  0.10515103552E+03  0.00000000000E+00 0.  1.
         13    1    3    3    0    0  0.18793171478E+01 -0.54852001646E+02  0.41044137433E+02  0.68533897709E+02  0.00000000000E+00 0. -1.
         21    1    1    2  502  501 -0.83952722782E+02 -0.44074166441E+02 -0.24359749974E+02  0.97897850991E+02  0.00000000000E+00 0.  1.
<scales pt_clust_5="13000.00000" pt_clust_6="13000.00000" pt_clust_7="13000.00000" pt_clust_8="13000.00000" pt_clust_9="94.81873"></scales>
<clustering>
<clus scale="   92.522">  7  8 -1 -1</clus>
<clus scale="   92.832">  5  6 -1 -1</clus>
<clus scale="   94.819">  2  9  1 -1</clus>
<clus scale="  156.439">  2  7  1 -1</clus>
<clus scale="  156.622">  1  5  2 -1</clus>
</clustering>
</event>
<event>
 9    1  0.1484717E-005  0.9745215E+02  0.7546771E-02  0.1286974E+00
          3   -1    0    0  502    0  0.00000000000E+00  0.00000000000E+00  0.94340014138E+02  0.94340014138E+02  0.00000000000E+00 0. -1.
         -3   -1    0    0    0  501 -0.00000000000E+00 -0.00000000000E+00 -0.31171213775E+03  0.31171213775E+03  0.00000000000E+00 0.  1.
         23    2    1    2    0    0  0.18055667083E+02 -0.16973068616E+02 -0.11065071738E+03  0.14632478392E+03  0.92483884872E+02 0.  0.
         23    2    1    2    0    0  0.60530885409E+01  0.24054583108E+02  0.43664021470E+02  0.10725718462E+03  0.94774965218E+02 0.  0.
        -11    1    3    3    0    0 -0.15736997498E+02  0.30587568518E+02 -0.24317114902E+02  0.42125698989E+02  0.00000000000E+00 0. -1.
         11    1    3    3    0    0  0.33792664581E+02 -0.47560637134E+02 -0.86333602481E+02  0.10419908494E+03  0.00000000000E+00 0.  1.
        -11    1    4    4    0    0 -0.25935262650E+02  0.42878813424E+02  0.48607307948E+02  0.69813328780E+02  0.00000000000E+00 0. -1.
         11    1    4    4    0    0  0.31988351191E+02 -0.18824230316E+02 -0.49432864780E+01  0.37443855839E+02  0.00000000000E+00 0.  1.
         21    1    1    2  502  501 -0.24108755624E+02 -0.70815144919E+01 -0.15038542770E+03  0.15247018335E+03  0.00000000000E+00 0. -1.
<scales pt_clust_5="13000.00000" pt_clust_6="13000.00000" pt_clust_7="13000.00000" pt_clust_8="13000.00000" pt_clust_9="25.12727"></scales>
<clustering>
<clus scale="   25.127">  2  9  1 -1</clus>
<clus scale="   92.484">  5  6 -1 -1</clus>
<clus scale="   94.775">  7  8 -1 -1</clus>
<clus scale="   95.225">  2  5  1 -1</clus>
<clus scale="   97.452">  1  5  2 -1</clus>
</clustering>
</event>
<event>
 9    1  0.1484717E-005  0.1608094E+03  0.7546771E-02  0.1188105E+00
         -1   -1    0    0    0  501 -0.00000000000E+00  0.00000000000E+00  0.38380962461E+03  0.38380962461E+03  0.00000000000E+00 0.  1.
          1   -1    0    0  502    0  0.00000000000E+00 -0.00000000000E+00 -0.14687281199E+03  0.14687281199E+03  0.00000000000E+00 0. -1.
         23    2    1    2    0    0 -0.18580393293E+02 -0.14184790533E+03  0.40114557530E+02  0.17425548575E+03  0.91047994636E+02 0.  0.
         23    2    1    2    0    0  0.64318378675E+02  0.10931471175E+03  0.58706819110E+01  0.15739711568E+03  0.93020573411E+02 0.  0.
        -11    1    3    3    0    0 -0.14226693748E+01 -0.20706148377E+02 -0.27509083937E+02  0.34460386936E+02  0.00000000000E+00 0. -1.
         11    1    3    3    0    0 -0.17157723918E+02 -0.12114175695E+03  0.67623641466E+02  0.13979509881E+03  0.00000000000E+00 0.  1.
        -11    1    4    4    0    0  0.87700810741E+02  0.73618076627E+02  0.69053495173E+01  0.11471153936E+03  0.00000000000E+00 0. -1.
         11    1    4    4    0    0 -0.23382432066E+02  0.35696635124E+02 -0.10346676063E+01  0.42685576318E+02  0.00000000000E+00 0.  1.
         21    1    1    2  502  501 -0.45737985382E+02  0.32533193576E+02  0.19095157318E+03  0.19902983518E+03  0.00000000000E+00 0.  1.
<scales pt_clust_5="13000.00000" pt_clust_6="13000.00000" pt_clust_7="13000.00000" pt_clust_8="13000.00000" pt_clust_9="56.12817"></scales>
<clustering>
<clus scale="   56.128">  1  9  2 -1</clus>
<clus scale="   91.048">  5  6 -1 -1</clus>
<clus scale="   93.021">  7  8 -1 -1</clus>
<clus scale="  159.676">  1  5  2 -1</clus>
<clus scale="  160.809">  2  5  1 -1</clus>
</clustering>
</event>
<event>
 9    1  0.1484717E-005  0.1042840E+03  0.7546771E-02  0.1271665E+00
          1   -1    0    0  502    0  0.00000000000E+00  0.00000000000E+00  0.97863512162E+02  0.97863512162E+02  0.00000000000E+00 0. -1.
         -1   -1    0    0    0  501 -0.00000000000E+00 -0.00000000000E+00 -0.19614790053E+03  0.19614790053E+03  0.00000000000E+00 0.  1.
         23    2    1    2    0    0  0.23151739127E+01 -0.59386918085E+02 -0.59833937664E+02  0.12282291593E+03  0.89292790923E+02 0.  0.
         23    2    1    2    0    0  0.16458212951E+02  0.49090381707E+02  0.23095581964E+02  0.10602429760E+03  0.89593567990E+02 0.  0.
        -11    1    4    4    0    0  0.48699491229E+02  0.22980153312E+02  0.33282017477E+02  0.63304190853E+02  0.00000000000E+00 0.  1.
         11    1    4    4    0    0 -0.32241278278E+02  0.26110228395E+02 -0.10186435513E+02  0.42720106745E+02  0.00000000000E+00 0. -1.
        -13    1    3    3    0    0  0.38888430830E+02 -0.47607771073E+02 -0.57748970567E+02  0.84343070376E+02  0.00000000000E+00 0.  1.
         13    1    3    3    0    0 -0.36573256917E+02 -0.11779147012E+02 -0.20849670967E+01  0.38479845552E+02  0.00000000000E+00 0. -1.
         21    1    1    2  502  501 -0.18773386863E+02  0.10296536379E+02 -0.61546032664E+02  0.65164199162E+02  0.00000000000E+00 0. -1.
<scales pt_clust_5="13000.00000" pt_clust_6="13000.00000" pt_clust_7="13000.00000" pt_clust_8="13000.00000" pt_clust_9="21.41165"></scales>
<clustering>
<clus scale="   21.412">  2  9  1 -1</clus>
<clus scale="   89.293">  7  8 -1 -1</clus>
<clus scale="   89.594">  5  6 -1 -1</clus>
<clus scale="  104.026">  2  7  1 -1</clus>
<clus scale="  104.284">  1  5  2 -1</clus>
</clustering>
</event>
<event>
 9    1  0.1484717E-005  0.1682123E+03  0.7546771E-02  0.1180118E+00
         -1   -1    0    0    0  501 -0.00000000000E+00  0.00000000000E+00  0.94450781196E+02  0.94450781196E+02  0.00000000000E+00 0.  1.
          1   -1    0    0  502    0  0.00000000000E+00 -0.00000000000E+00 -0.66227255082E+03  0.66227255082E+03  0.00000000000E+00 0. -1.
         23    2    1    2    0    0 -0.12284040035E+02 -0.12166745179E+03 -0.88903860235E+00  0.15068834255E+03  0.88047258472E+02 0.  0.
         23    2    1    2    0    0 -0.41758001249E+01  0.14509579385E+03 -0.54083916036E+03  0.56729627525E+03  0.90817618514E+02 0.  0.
        -13    1    4    4    0    0 -0.28317791898E+02  0.51312098216E+02 -0.99676867153E+02  0.11563004197E+03  0.00000000000E+00 0.  1.
         13    1    4    4    0    0  0.24141991773E+02  0.93783695632E+02 -0.44116229321E+03  0.45166623328E+03  0.00000000000E+00 0. -1.
        -13    1    3    3    0    0 -0.83194442734E+01 -0.67033271691E+02  0.43363656909E+02  0.80268794728E+02  0.00000000000E+00 0.  1.
         13    1    3    3    0    0 -0.39645957611E+01 -0.54634180103E+02 -0.44252695511E+02  0.70419547819E+02  0.00000000000E+00 0. -1.
         21    1    1    2  502  501  0.16459840159E+02 -0.23428342053E+02 -0.26093570654E+02  0.38738714214E+02  0.00000000000E+00 0.  1.
<scales pt_clust_5="13000.00000" pt_clust_6="13000.00000" pt_clust_7="13000.00000" pt_clust_8="13000.00000" pt_clust_9="28.63239"></scales>
<clustering>
<clus scale="   28.632">  1  9  2 -1</clus>
<clus scale="   88.047">  7  8 -1 -1</clus>
<clus scale="   90.818">  5  6 -1 -1</clus>
<clus scale="  166.733">  1  7  2 -1</clus>
<clus scale="  168.212">  2  5  1 -1</clus>
</clustering>
</event>
<event>
 9    1  0.1484717E-005  0.1063240E+03  0.7546771E-02  0.1269004E+00
         -1   -1    0    0    0  501 -0.00000000000E+00  0.00000000000E+00  0.39277237265E+02  0.39277237265E+02  0.00000000000E+00 0.  1.
          1   -1    0    0  502    0  0.00000000000E+00 -0.00000000000E+00 -0.54073624389E+03  0.54073624389E+03  0.00000000000E+00 0. -1.
         23    2    1    2    0    0  0.52449112925E+02  0.56474142933E+02 -0.13884908304E+03  0.18308587743E+03  0.91110550363E+02 0.  0.
         23    2    1    2    0    0 -0.10536015970E+02 -0.12134118905E+02 -0.17343355278E+03  0.19815525983E+03  0.94488439997E+02 0.  0.
        -11    1    3    3    0    0 -0.15182168903E+02  0.27668706064E+02 -0.88571641986E+02  0.94026545784E+02  0.00000000000E+00 0.  1.
         11    1    3    3    0    0  0.67631281828E+02  0.28805436869E+02 -0.50277441056E+02  0.89059331650E+02  0.00000000000E+00 0. -1.
        -13    1    4    4    0    0  0.25474954442E+02 -0.29104059155E+02 -0.14273943063E+03  0.14788699950E+03  0.00000000000E+00 0. -1.
         13    1    4    4    0    0 -0.36010970412E+02  0.16969940250E+02 -0.30694122147E+02  0.50268260329E+02  0.00000000000E+00 0.  1.
         21    1    1    2  502  501 -0.41913096955E+02 -0.44340024028E+02 -0.18917637081E+03  0.19877234390E+03  0.00000000000E+00 0.  1.
<scales pt_clust_5="13000.00000" pt_clust_6="13000.00000" pt_clust_7="13000.00000" pt_clust_8="13000.00000" pt_clust_9="61.01431"></scales>
<clustering>
<clus scale="   61.014">  2  9  1 -1</clus>
<clus scale="   91.111">  5  6 -1 -1</clus>
<clus scale="   94.488">  7  8 -1 -1</clus>
<clus scale="  103.334">  1  5  2 -1</clus>
<clus scale="   61.014">  2  5  1 -1</clus>
</clustering>
</event>
<event>
 9    1  0.1484717E-005  0.1009684E+03  0.7546771E-02  0.1278630E+00
         -1   -1    0    0    0  501 -0.00000000000E+00  0.00000000000E+00  0.10505124289E+03  0.10505124289E+03  0.00000000000E+00 0.  1.
          1   -1    0    0  502    0  0.00000000000E+00 -0.00000000000E+00 -0.37548622406E+03  0.37548622406E+03  0.00000000000E+00 0. -1.
         23    2    1    2    0    0 -0.26471011423E+02  0.42900041769E+02  0.96279482472E+01  0.10451601199E+03  0.91048181444E+02 0.  0.
         23    2    1    2    0    0 -0.56635823392E+01 -0.43705539271E+02 -0.31375908482E+03  0.32945202474E+03  0.90286338774E+02 0.  0.
        -11    1    3    3    0    0 -0.49038740927E+02  0.51913033902E+02 -0.11477937139E+02  0.72329138261E+02  0.00000000000E+00 0. -1.
         11    1    3    3    0    0  0.22567729504E+02 -0.90129921331E+01  0.21105885386E+02  0.32186873724E+02  0.00000000000E+00 0.  1.
        -13    1    4    4    0    0  0.13570841014E+02 -0.67784309783E+02 -0.20090694378E+03  0.21246759856E+03  0.00000000000E+00 0. -1.
         13    1    4    4    0    0 -0.19234423353E+02  0.24078770512E+02 -0.11285214104E+03  0.11698442618E+03  0.00000000000E+00 0.  1.
         21    1    1    2  502  501  0.32134593762E+02  0.80549750129E+00  0.33696155407E+02  0.46569430227E+02  0.00000000000E+00 0.  1.
<scales pt_clust_5="13000.00000" pt_clust_6="13000.00000" pt_clust_7="13000.00000" pt_clust_8="13000.00000" pt_clust_9="32.14469"></scales>
<clustering>
<clus scale="   32.145">  1  9  2 -1</clus>
<clus scale="   90.286">  7  8 -1 -1</clus>
<clus scale="   91.048">  5  6 -1 -1</clus>
<clus scale="  100.282">  2  7  1 -1</clus>
<clus scale="  100.282">  2  5  1 -1</clus>
</clustering>
</event>
<event>
 9    1  0.1484717E-005  0.1450391E+03  0.7546771E-02  0.1207057E+00
         -2   -1    0    0    0  501 -0.00000000000E+00  0.00000000000E+00  0.58284475247E+02  0.58284475247E+02  0.00000000000E+00 0.  1.
          2   -1    0    0  502    0  0.00000000000E+00 -0.00000000000E+00 -0.57410879635E+03  0.57410879635E+03  0.00000000000E+00 0. -1.
         23    2    1    2    0    0  0.71402527063E+02 -0.62030436351E+02 -0.18017284791E+03  0.22250959055E+03  0.90012037309E+02 0.  0.
         23    2    1    2    0    0 -0.79346828124E+02  0.10026932640E+03 -0.33577636214E+03  0.37082807673E+03  0.91748788369E+02 0.  0.
        -11    1    4    4    0    0 -0.33761718024E+02  0.69041739894E+02 -0.87421817105E+02  0.11640098607E+03  0.00000000000E+00 0.  1.
         11    1    4    4    0    0 -0.45585110100E+02  0.31227586503E+02 -0.24835454504E+03  0.25442709066E+03  0.00000000000E+00 0. -1.
        -11    1    3    3    0    0 -0.20661935803E+02 -0.18995296581E+02 -0.29043892514E+02  0.40389164087E+02  0.00000000000E+00 0.  1.
         11    1    3    3    0    0  0.92064462866E+02 -0.43035139770E+02 -0.15112895539E+03  0.18212042647E+03  0.00000000000E+00 0. -1.
         21    1    1    2  502  501  0.79443010609E+01 -0.38238890046E+02  0.12488894467E+00  0.39055604316E+02  0.00000000000E+00 0. -1.
<scales pt_clust_5="13000.00000" pt_clust_6="13000.00000" pt_clust_7="13000.00000" pt_clust_8="13000.00000" pt_clust_9="39.05540"></scales>
<clustering>
<clus scale="   39.055">  1  9  2 -1</clus>
<clus scale="   90.012">  7  8 -1 -1</clus>
<clus scale="   91.749">  5  6 -1 -1</clus>
<clus scale="  143.947">  1  7  2 -1</clus>
<clus scale="  145.039">  2  5  1 -1</clus>
</clustering>
</event>
<event>
 9    1  0.1484717E-005  0.1053700E+03  0.7546771E-02  0.1270731E+00
          1   -1    0    0  502    0  0.00000000000E+00  0.00000000000E+00  0.27012468640E+03  0.27012468640E+03  0.00000000000E+00 0. -1.
         -1   -1    0    0    0  501 -0.00000000000E+00 -0.00000000000E+00 -0.16887113538E+03  0.16887113538E+03  0.00000000000E+00 0.  1.
         23    2    1    2    0    0 -0.13216657254E+02 -0.96066248145E+01 -0.48543569540E+02  0.10762810111E+03  0.94659192557E+02 0.  0.
         23    2    1    2    0    0  0.36604081106E+02 -0.38430133414E+02  0.21939870686E+03  0.24362444427E+03  0.91653387100E+02 0.  0.
        -11    1    3    3    0    0 -0.10522030226E+02  0.21855659171E+02 -0.66859160200E+02  0.71123345397E+02  0.00000000000E+00 0.  1.
         11    1    3    3    0    0 -0.26946270280E+01 -0.31462283986E+02  0.18315590660E+02  0.36504755712E+02  0.00000000000E+00 0. -1.
        -13    1    4    4    0    0  0.17040137633E+02 -0.67748287656E+02  0.13110096369E+03  0.14855187461E+03  0.00000000000E+00 0. -1.
         13    1    4    4    0    0  0.19563943472E+02  0.29318154242E+02  0.88297743174E+02  0.95072569661E+02  0.00000000000E+00 0.  1.
         21    1    1    2  502  501 -0.23387423852E+02  0.48036758228E+02 -0.69601586311E+02  0.87743276395E+02  0.00000000000E+00 0.  1.
<scales pt_clust_5="13000.00000" pt_clust_6="13000.00000" pt_clust_7="13000.00000" pt_clust_8="13000.00000" pt_clust_9="53.42754"></scales>
<clustering>
<clus scale="   53.428">  2  9  1 -1</clus>
<clus scale="   91.653">  7  8 -1 -1</clus>
<clus scale="   94.659">  5  6 -1 -1</clus>
<clus scale="  102.678">  1  7  2 -1</clus>
<clus scale="  102.678">  1  5  2 -1</clus>
</clustering>
</event>
<event>
 9    1  0.1484717E-005  0.1004247E+03  0.7546771E-02  0.1279421E+00
         -2   -1    0    0    0  501 -0.00000000000E+00  0.00000000000E+00  0.98894644083E+02  0.98894644083E+02  0.00000000000E+00 0.  1.
          2   -1    0    0  502    0  0.00000000000E+00 -0.00000000000E+00 -0.17983671996E+03  0.17983671996E+03  0.00000000000E+00 0. -1.
         23    2    1    2    0    0 -0.35859348928E+02  0.35728985061E+01  0.36129550104E+02  0.10303528021E+03  0.89511262239E+02 0.  0.
         23    2    1    2    0    0  0.41291750972E+02 -0.26712923819E+02 -0.11169000161E+03  0.15132532997E+03  0.89476868698E+02 0.  0.
        -11    1    4    4    0    0  0.29094360946E+02  0.17679794856E+02 -0.97310389456E+02  0.10309398082E+03  0.00000000000E+00 0. -1.
         11    1    4    4    0    0  0.12197390026E+02 -0.44392718675E+02 -0.14379612155E+02  0.48231349147E+02  0.00000000000E+00 0.  1.
        -13    1    3    3    0    0  0.22563965206E+02  0.24961985399E+02  0.18360514450E+02  0.38331993579E+02  0.00000000000E+00 0. -1.
         13    1    3    3    0    0 -0.58423314134E+02 -0.21389086893E+02  0.17769035654E+02  0.64703286629E+02  0.00000000000E+00 0.  1.
         21    1    1    2  502  501 -0.54324020437E+01  0.23140025313E+02 -0.53816243742E+01  0.24370753873E+02  0.00000000000E+00 0.  1.
<scales pt_clust_5="13000.00000" pt_clust_6="13000.00000" pt_clust_7="13000.00000" pt_clust_8="13000.00000" pt_clust_9="23.76913"></scales>
<clustering>
<clus scale="   23.769">  1  9  2 -1</clus>
<clus scale="   89.477">  5  6 -1 -1</clus>
<clus scale="   89.511">  7  8 -1 -1</clus>
<clus scale="  100.394">  2  5  1 -1</clus>
<clus scale="  100.394">  2  5  1 -1</clus>
</clustering>
</event>
<event>
 9    1  0.1484717E-005  0.1094273E+03  0.7546771E-02  0.1262676E+00
          1   -1    0    0  502    0  0.00000000000E+00  0.00000000000E+00  0.83599690228E+02  0.83599690228E+02  0.00000000000E+00 0. -1.
         -1   -1    0    0    0  501 -0.00000000000E+00 -0.00000000000E+00 -0.24075109198E+03  0.24075109198E+03  0.00000000000E+00 0.  1.
         23    2    1    2    0    0 -0.34547087229E+02  0.41924386113E+02 -0.42711478056E+02  0.11597555278E+03  0.93139159850E+02 0.  0.
         23    2    1    2    0    0  0.24185545779E+01 -0.57458419478E+02 -0.28336759795E+02  0.11516952340E+03  0.95675115830E+02 0.  0.
        -11    1    4    4    0    0  0.34457925073E+02 -0.24030075847E+01 -0.37306217599E+02  0.50841684839E+02  0.00000000000E+00 0.  1.
         11    1    4    4    0    0 -0.32039370495E+02 -0.55055411893E+02  0.89694578041E+01  0.64327838559E+02  0.00000000000E+00 0. -1.
        -13    1    3    3    0    0  0.10040440856E+02  0.53532066741E+02 -0.43794928153E+02  0.69889114704E+02  0.00000000000E+00 0.  1.
         13    1    3    3    0    0 -0.44587528084E+02 -0.11607680628E+02  0.10834500976E+01  0.46086438074E+02  0.00000000000E+00 0. -1.
         21    1    1    2  502  501  0.32128532651E+02  0.15534033364E+02 -0.86103163906E+02  0.93205706035E+02  0.00000000000E+00 0.  1.
<scales pt_clust_5="13000.00000" pt_clust_6="13000.00000" pt_clust_7="13000.00000" pt_clust_8="13000.00000" pt_clust_9="35.68682"></scales>
<clustering>
<clus scale="   35.687">  2  9  1 -1</clus>
<clus scale="   93.139">  7  8 -1 -1</clus>
<clus scale="   95.675">  5  6 -1 -1</clus>
<clus scale="  107.217">  2  7  1 -1</clus>
<clus scale="  109.427">  1  5  2 -1</clus>
</clustering>
</event>
<event>
 9    1  0.1484717E-005  0.9597719E+02  0.7546771E-02  0.1289209E+00
          2   -1    0    0  502    0  0.00000000000E+00  0.00000000000E+00  0.91489817753E+02  0.91489817753E+02  0.00000000000E+00 0. -1.
         -2   -1    0    0    0  501 -0.00000000000E+00 -0.00000000000E+00 -0.27948660099E+03  0.27948660099E+03  0.00000000000E+00 0.  1.
         23    2    1    2    0    0 -0.11855108179E+02 -0.28960364810E+01 -0.20675564371E+03  0.22682387511E+03  0.92478340701E+02 0.  0.
         23    2    1    2    0    0  0.99489172602E+01  0.26439221709E+02  0.47143491006E+02  0.10722555641E+03  0.92069527011E+02 0.  0.
        -11    1    3    3    0    0 -0.11687289810E+02  0.39663038607E+02 -0.52631138046E+02  0.66931203983E+02  0.00000000000E+00 0.  1.
         11    1    3    3    0    0 -0.16781836897E+00 -0.42559075088E+02 -0.15412450566E+03  0.15989267113E+03  0.00000000000E+00 0. -1.
        -13    1    4    4    0    0  0.43325084297E+01  0.57415894471E+02  0.49116413649E+02  0.75682082800E+02  0.00000000000E+00 0.  1.
         13    1    4    4    0    0  0.56164088305E+01 -0.30976672763E+02 -0.19729226435E+01  0.31543473609E+02  0.00000000000E+00 0. -1.
         21    1    1    2  502  501  0.19061909184E+01 -0.23543185228E+02 -0.28384630532E+02  0.36926987217E+02  0.00000000000E+00 0.  1.
<scales pt_clust_5="13000.00000" pt_clust_6="13000.00000" pt_clust_7="13000.00000" pt_clust_8="13000.00000" pt_clust_9="23.62023"></scales>
<clustering>
<clus scale="   23.620">  2  9  1 -1</clus>
<clus scale="   92.070">  7  8 -1 -1</clus>
<clus scale="   92.478">  5  6 -1 -1</clus>
<clus scale="   95.583">  1  7  2 -1</clus>
<clus scale="   95.583">  1  5  2 -1</clus>
</clustering>
</event>
<event>
 9    1  0.1484717E-005  0.9481440E+02  0.7546771E-02  0.1291862E+00
          1   -1    0    0  502    0  0.00000000000E+00  0.00000000000E+00  0.50868376741E+03  0.50868376741E+03  0.00000000000E+00 0. -1.
         -1   -1    0    0    0  501 -0.00000000000E+00 -0.00000000000E+00 -0.45102764982E+02  0.45102764982E+02  0.00000000000E+00 0.  1.
         23    2    1    2    0    0  0.19285502442E+02  0.29822746167E+02  0.51242519461E+02  0.11046942818E+03  0.91194144378E+02 0.  0.
         23    2    1    2    0    0 -0.27227726266E+02  0.52362284412E+01  0.38914558516E+03  0.40053718920E+03  0.90702735968E+02 0.  0.
        -11    1    4    4    0    0 -0.53367903763E+01  0.45378943721E+02  0.14113408098E+03  0.14834607739E+03  0.00000000000E+00 0. -1.
         11    1    4    4    0    0 -0.21890935890E+02 -0.40142715280E+02  0.24801150419E+03  0.25219111180E+03  0.00000000000E+00 0.  1.
        -13    1    3    3    0    0  0.48078068713E+02  0.12750792606E+02  0.57520506333E+00  0.49743484640E+02  0.00000000000E+00 0.  1.
         13    1    3    3    0    0 -0.28792566271E+02  0.17071953561E+02  0.50667314398E+02  0.60725943542E+02  0.00000000000E+00 0. -1.
         21    1    1    2  502  501  0.79422238243E+01 -0.35058974608E+02  0.23192897804E+02  0.42779915011E+02  0.00000000000E+00 0.  1.
<scales pt_clust_5="13000.00000" pt_clust_6="13000.00000" pt_clust_7="13000.00000" pt_clust_8="13000.00000" pt_clust_9="35.94733"></scales>
<clustering>
<clus scale="   35.947">  2  9  1 -1</clus>
<clus scale="   90.703">  5  6 -1 -1</clus>
<clus scale="   91.194">  7  8 -1 -1</clus>
<clus scale="   94.342">  1  5  2 -1</clus>
<clus scale="   94.342">  1  5  2 -1</clus>
</clustering>
</event>
<event>
 9    1  0.1484717E-005  0.1271127E+03  0.7546771E-02  0.1231989E+00
         -1   -1    0    0    0  501 -0.00000000000E+00  0.00000000000E+00  0.28200347618E+03  0.28200347618E+03  0.00000000000E+00 0.  1.
          1   -1    0    0  502    0  0.00000000000E+00 -0.00000000000E+00 -0.26630279281E+03  0.26630279281E+03  0.00000000000E+00 0. -1.
         23    2    1    2    0    0 -0.51794311667E+01  0.42551996402E+02  0.18620124240E+03  0.21180494235E+03  0.91394376337E+02 0.  0.
         23    2    1    2    0    0  0.26742287426E+02 -0.88366029267E+02 -0.22657985134E+03  0.26094492781E+03  0.90720015731E+02 0.  0.
        -13    1    4    4    0    0 -0.32344020256E+02 -0.42570645530E+02 -0.11243550634E+03  0.12449955259E+03  0.00000000000E+00 0.  1.
         13    1    4    4    0    0  0.59086307682E+02 -0.45795383736E+02 -0.11414434499E+03  0.13644537523E+03  0.00000000000E+00 0. -1.
        -13    1    3    3    0    0  0.21596648082E+02  0.56121616880E+02  0.72423986553E+02  0.94134398165E+02  0.00000000000E+00 0. -1.
         13    1    3    3    0    0 -0.26776079248E+02 -0.13569620478E+02  0.11377725585E+03  0.11767054418E+03  0.00000000000E+00 0.  1.
         21    1    1    2  502  501 -0.21562856259E+02  0.45814032865E+02  0.56079292312E+02  0.75556398826E+02  0.00000000000E+00 0. -1.
<scales pt_clust_5="13000.00000" pt_clust_6="13000.00000" pt_clust_7="13000.00000" pt_clust_8="13000.00000" pt_clust_9="50.63479"></scales>
<clustering>
<clus scale="   50.635">  1  9  2 -1</clus>
<clus scale="   90.720">  5  6 -1 -1</clus>
<clus scale="   91.394">  7  8 -1 -1</clus>
<clus scale="  126.629">  2  5  1 -1</clus>
<clus scale="  126.629">  2  5  1 -1</clus>
</clustering>
</event>
<event>
 9    1  0.1484717E-005  0.1544467E+03  0.7546771E-02  0.1201721E+00
         -2   -1    0    0    0  501 -0.00000000000E+00  0.00000000000E+00  0.12135762908E+03  0.12135762908E+03  0.00000000000E+00 0.  1.
          2   -1    0    0  502    0  0.00000000000E+00 -0.00000000000E+00 -0.26320207793E+03  0.26320207793E+03  0.00000000000E+00 0. -1.
         23    2    1    2    0    0  0.83797832771E+02 -0.10927266802E+02 -0.43758021342E+02  0.13239803048E+03  0.92048857167E+02 0.  0.
         23    2    1    2    0    0 -0.10904024098E+03 -0.39197915038E+02 -0.10246607650E+03  0.19586874313E+03  0.12016246089E+03 0.  0.
        -11    1    3    3    0    0  0.32056717152E+02  0.37671661955E+02 -0.35602296792E+02  0.60945145548E+02  0.00000000000E+00 0.  1.
         11    1    3    3    0    0  0.51741115619E+02 -0.48598928757E+02 -0.81557245504E+01  0.71452884929E+02  0.00000000000E+00 0. -1.
        -11    1    4    4    0    0 -0.87982213383E+01 -0.63214336011E+02 -0.40879801520E+02  0.75793265851E+02  0.00000000000E+00 0. -1.
         11    1    4    4    0    0 -0.10024201964E+03  0.24016420974E+02 -0.61586274979E+02  0.12007547728E+03  0.00000000000E+00 0.  1.
         21    1    1    2  502  501  0.25242408205E+02  0.50125181839E+02  0.43796489918E+01  0.56292933408E+02  0.00000000000E+00 0.  1.
<scales pt_clust_5="13000.00000" pt_clust_6="13000.00000" pt_clust_7="13000.00000" pt_clust_8="13000.00000" pt_clust_9="56.12230"></scales>
<clustering>
<clus scale="   56.122">  1  9  2 -1</clus>
<clus scale="   92.049">  5  6 -1 -1</clus>
<clus scale="  120.162">  7  8 -1 -1</clus>
<clus scale="  133.745">  1  5  2 -1</clus>
<clus scale="  154.447">  2  5  1 -1</clus>
</clustering>
</event>
<event>
 9    1  0.1484717E-005  0.3244104E+03  0.7546771E-02  0.1073686E+00
          2   -1    0    0  502    0  0.00000000000E+00  0.00000000000E+00  0.11422953362E+04  0.11422953362E+04  0.00000000000E+00 0. -1.
         -2   -1    0    0    0  501 -0.00000000000E+00 -0.00000000000E+00 -0.11968947643E+03  0.11968947643E+03  0.00000000000E+00 0.  1.
         23    2    1    2    0    0  0.32358387365E+03  0.18161409869E+02  0.26989782487E+03  0.43154235224E+03  0.91365233049E+02 0.  0.
         23    2    1    2    0    0 -0.30435817116E+03 -0.25947935006E+02  0.74044702237E+03  0.80634702436E+03  0.92879163852E+02 0.  0.
        -11    1    4    4    0    0 -0.13251092817E+02 -0.24818557833E+02  0.62342787789E+02  0.68397189000E+02  0.00000000000E+00 0.  1.
         11    1    4    4    0    0 -0.29110707835E+03 -0.11293771726E+01  0.67810423458E+03  0.73794983536E+03  0.00000000000E+00 0. -1.
        -13    1    3    3    0    0  0.46034934943E+02 -0.15461503306E+02  0.79947643922E+02  0.93540895272E+02  0.00000000000E+00 0. -1.
         13    1    3    3    0    0  0.27754893871E+03  0.33622913175E+02  0.18995018095E+03  0.33800145697E+03  0.00000000000E+00 0.  1.
         21    1    1    2  502  501 -0.19225702490E+02  0.77865251367E+01  0.12261012571E+02  0.24095436066E+02  0.00000000000E+00 0. -1.
<scales pt_clust_5="13000.00000" pt_clust_6="13000.00000" pt_clust_7="13000.00000" pt_clust_8="13000.00000" pt_clust_9="20.74265"></scales>
<clustering>
<clus scale="   20.743">  2  9  1 -1</clus>
<clus scale="   91.365">  7  8 -1 -1</clus>
<clus scale="   92.879">  5  6 -1 -1</clus>
<clus scale="  323.980">  2  7  1 -1</clus>
<clus scale="  324.410">  1  5  2 -1</clus>
</clustering>
</event>
<event>
 9    1  0.1484717E-005  0.1088243E+03  0.7546771E-02  0.1266408E+00
         -2   -1    0    0    0  501 -0.00000000000E+00  0.00000000000E+00  0.92466939563E+02  0.92466939563E+02  0.00000000000E+00 0.  1.
          2   -1    0    0  502    0  0.00000000000E+00 -0.00000000000E+00 -0.26116743612E+03  0.26116743612E+03  0.00000000000E+00 0. -1.
         23    2    1    2    0    0 -0.15610978831E+02  0.36826234809E+01 -0.34559232067E+02  0.97209335013E+02  0.89431817140E+02 0.  0.
         23    2    1    2    0    0  0.17846327755E+02 -0.87059024562E+02 -0.10238268093E+03  0.16717691088E+03  0.97816874838E+02 0.  0.
        -11    1    3    3    0    0  0.11382078238E+02 -0.19352079358E+02  0.21354974216E+02  0.30985312718E+02  0.00000000000E+00 0. -1.
         11    1    3    3    0    0 -0.26993057068E+02  0.23034702839E+02 -0.55914206283E+02  0.66224022295E+02  0.00000000000E+00 0.  1.
        -13    1    4    4    0    0 -0.32318983314E+02 -0.12951968373E+02 -0.54332905843E+01  0.35239052395E+02  0.00000000000E+00 0.  1.
         13    1    4    4    0    0  0.50165311069E+02 -0.74107056189E+02 -0.96949390347E+02  0.13193785848E+03  0.00000000000E+00 0. -1.
         21    1    1    2  502  501 -0.22353489246E+01  0.83376401081E+02 -0.31758583557E+02  0.89248129793E+02  0.00000000000E+00 0.  1.
<scales pt_clust_5="13000.00000" pt_clust_6="13000.00000" pt_clust_7="13000.00000" pt_clust_8="13000.00000" pt_clust_9="83.40636"></scales>
<clustering>
<clus scale="   83.406">  1  9  2 -1</clus>
<clus scale="   89.432">  5  6 -1 -1</clus>
<clus scale="   97.817">  7  8 -1 -1</clus>
<clus scale="  101.354">  1  5  2 -1</clus>
<clus scale="  108.824">  2  5  1 -1</clus>
</clustering>
</event>
<event>
 9    1  0.1484717E-005  0.1044852E+03  0.7546771E-02  0.1276663E+00
          1   -1    0    0  502    0  0.00000000000E+00  0.00000000000E+00  0.64752499857E+03  0.64752499857E+03  0.00000000000E+00 0. -1.
         -1   -1    0    0    0  501 -0.00000000000E+00 -0.00000000000E+00 -0.64990943449E+02  0.64990943449E+02  0.00000000000E+00 0.  1.
         23    2    1    2    0    0  0.31048583015E+01  0.23477134357E+02  0.21989231659E+03  0.24184608021E+03  0.97857445484E+02 0.  0.
         23    2    1    2    0    0  0.14585780697E+02 -0.41941977006E+02  0.40754858068E+03  0.41899265605E+03  0.86528179081E+02 0.  0.
        -11    1    4    4    0    0  0.44622367380E+01 -0.68213037466E+02  0.31092352658E+03  0.31834944545E+03  0.00000000000E+00 0. -1.
         11    1    4    4    0    0  0.10123543959E+02  0.26271060460E+02  0.96625054097E+02  0.10064321060E+03  0.00000000000E+00 0.  1.
        -13    1    3    3    0    0 -0.38504546344E+02  0.35346166761E+02  0.15727911740E+03  0.16573675623E+03  0.00000000000E+00 0.  1.
         13    1    3    3    0    0  0.41609404646E+02 -0.11869032403E+02  0.62613199185E+02  0.76109323984E+02  0.00000000000E+00 0. -1.
         21    1    1    2  502  501 -0.17690638998E+02  0.18464842648E+02 -0.44906842153E+02  0.51677205752E+02  0.00000000000E+00 0.  1.
<scales pt_clust_5="13000.00000" pt_clust_6="13000.00000" pt_clust_7="13000.00000" pt_clust_8="13000.00000" pt_clust_9="25.57165"></scales>
<clustering>
<clus scale="   25.572">  2  9  1 -1</clus>
<clus scale="   86.528">  5  6 -1 -1</clus>
<clus scale="   93.958">  1  5  2 -1</clus>
<clus scale="   97.857">  7  8 -1 -1</clus>
<clus scale="   93.958">  1  5  2 -1</clus>
</clustering>
</event>
<event>
 9    1  0.1484717E-005  0.1166647E+03  0.7546771E-02  0.1248707E+00
          1   -1    0    0  502    0  0.00000000000E+00  0.00000000000E+00  0.76268727718E+03  0.76268727718E+03  0.00000000000E+00 0. -1.
         -1   -1    0    0    0  501 -0.00000000000E+00 -0.00000000000E+00 -0.23815979906E+02  0.23815979906E+02  0.00000000000E+00 0.  1.
         23    2    1    2    0    0  0.37163736253E+01  0.79962691469E+02  0.27427753215E+03  0.29989879806E+03  0.91122340694E+02 0.  0.
         23    2    1    2    0    0  0.17115790951E+02 -0.67637496294E+02  0.42475461426E+03  0.43998850190E+03  0.91135164836E+02 0.  0.
        -11    1    3    3    0    0  0.27302365926E+02  0.91167759263E+02  0.21371488150E+03  0.23394663941E+03  0.00000000000E+00 0.  1.
         11    1    3    3    0    0 -0.23585992301E+02 -0.11205067793E+02  0.60562650650E+02  0.65952158652E+02  0.00000000000E+00 0. -1.
        -11    1    4    4    0    0 -0.55108336040E+01  0.21452393068E+02  0.10345008657E+03  0.10579458808E+03  0.00000000000E+00 0.  1.
         11    1    4    4    0    0  0.22626624555E+02 -0.89089889363E+02  0.32130452769E+03  0.33419391383E+03  0.00000000000E+00 0. -1.
         21    1    1    2  502  501 -0.20832164576E+02 -0.12325195175E+02  0.39839150862E+02  0.46615957123E+02  0.00000000000E+00 0.  1.
<scales pt_clust_5="13000.00000" pt_clust_6="13000.00000" pt_clust_7="13000.00000" pt_clust_8="13000.00000" pt_clust_9="24.20515"></scales>
<clustering>
<clus scale="   24.205">  2  9  1 -1</clus>
<clus scale="   91.122">  5  6 -1 -1</clus>
<clus scale="   91.135">  7  8 -1 -1</clus>
<clus scale="  116.655">  2  5  1 -1</clus>
<clus scale="  116.665">  1  5  2 -1</clus>
</clustering>
</event>
<event>
 9    1  0.1484717E-005  0.1280697E+03  0.7546771E-02  0.1234768E+00
         -1   -1    0    0    0  501 -0.00000000000E+00  0.00000000000E+00  0.75981140165E+02  0.75981140165E+02  0.00000000000E+00 0.  1.
          1   -1    0    0  502    0  0.00000000000E+00 -0.00000000000E+00 -0.29158836746E+03  0.29158836746E+03  0.00000000000E+00 0. -1.
         23    2    1    2    0    0 -0.93954192190E+02 -0.52124816904E+02 -0.10074919545E+03  0.16489224537E+03  0.74126010484E+02 0.  0.
         23    2    1    2    0    0  0.74169627435E+02  0.24063073174E+02 -0.11824799551E+03  0.16817534467E+03  0.90665279943E+02 0.  0.
        -11    1    4    4    0    0  0.11494253598E+02 -0.20819514962E+02  0.35363390508E+01  0.24043206169E+02  0.00000000000E+00 0.  1.
         11    1    4    4    0    0  0.62675373837E+02  0.44882588136E+02 -0.12178433456E+03  0.14413213850E+03  0.00000000000E+00 0. -1.
        -13    1    3    3    0    0 -0.76946439450E+02 -0.63419872159E+02 -0.52917355459E+02  0.11288525695E+03  0.00000000000E+00 0.  1.
         13    1    3    3    0    0 -0.17007752740E+02  0.11295055256E+02 -0.47831839996E+02  0.52006988414E+02  0.00000000000E+00 0. -1.
         21    1    1    2  502  501  0.19784564755E+02  0.28061743730E+02  0.33899636705E+01  0.34501917590E+02  0.00000000000E+00 0. -1.
<scales pt_clust_5="13000.00000" pt_clust_6="13000.00000" pt_clust_7="13000.00000" pt_clust_8="13000.00000" pt_clust_9="34.33497"></scales>
<clustering>
<clus scale="   34.335">  1  9  2 -1</clus>
<clus scale="   74.126">  7  8 -1 -1</clus>
<clus scale="   90.665">  5  6 -1 -1</clus>
<clus scale="  116.946">  1  7  2 -1</clus>
<clus scale="  128.070">  2  5  1 -1</clus>
</clustering>
</event>
<event>
 9    1  0.1484717E-005  0.1033920E+03  0.7546771E-02  0.1273425E+00
          3   -1    0    0  502    0  0.00000000000E+00  0.00000000000E+00  0.87413894904E+02  0.87413894904E+02  0.00000000000E+00 0. -1.
         -3   -1    0    0    0  501 -0.00000000000E+00 -0.00000000000E+00 -0.28143291936E+03  0.28143291936E+03  0.00000000000E+00 0.  1.
         23    2    1    2    0    0  0.21515944241E+02 -0.17305224420E+01 -0.15914101805E+03  0.18640549015E+03  0.94631984901E+02 0.  0.
         23    2    1    2    0    0 -0.40385644261E+02  0.23295058604E+02  0.31699575777E+02  0.10995912459E+03  0.94405963576E+02 0.  0.
        -11    1    3    3    0    0  0.23033985627E+02  0.25500279981E+02 -0.15506814808E+03  0.15882996985E+03  0.00000000000E+00 0.  1.
         11    1    3    3    0    0 -0.15180413859E+01 -0.27230802423E+02 -0.40728699774E+01  0.27575520305E+02  0.00000000000E+00 0. -1.
        -11    1    4    4    0    0 -0.65716369633E+02  0.17269102701E+02  0.44218034559E+02  0.81068475539E+02  0.00000000000E+00 0. -1.
         11    1    4    4    0    0  0.25330725373E+02  0.60259559027E+01 -0.12518458781E+02  0.28890649053E+02  0.00000000000E+00 0.  1.
         21    1    1    2  502  501  0.18869700019E+02 -0.21564536162E+02 -0.66577582176E+02  0.72482199519E+02  0.00000000000E+00 0. -1.
<scales pt_clust_5="13000.00000" pt_clust_6="13000.00000" pt_clust_7="13000.00000" pt_clust_8="13000.00000" pt_clust_9="28.65475"></scales>
<clustering>
<clus scale="   28.655">  2  9  1 -1</clus>
<clus scale="   94.406">  7  8 -1 -1</clus>
<clus scale="   94.632">  5  6 -1 -1</clus>
<clus scale="  103.185">  1  7  2 -1</clus>
<clus scale="  103.185">  1  5  2 -1</clus>
</clustering>
</event>
<event>
 9    1  0.1484717E-005  0.1003948E+03  0.7546771E-02  0.1279588E+00
          1   -1    0    0  502    0  0.00000000000E+00  0.00000000000E+00  0.14369217432E+03  0.14369217432E+03  0.00000000000E+00 0. -1.
         -1   -1    0    0    0  501 -0.00000000000E+00 -0.00000000000E+00 -0.19437474829E+03  0.19437474829E+03  0.00000000000E+00 0.  1.
         23    2    1    2    0    0  0.30058327486E+02 -0.38179008606E+02 -0.68036936466E+02  0.12492773004E+03  0.92826576260E+02 0.  0.
         23    2    1    2    0    0 -0.43057669195E+02 -0.16112997707E+02 -0.58641805062E+02  0.11884167236E+03  0.92579102488E+02 0.  0.
        -11    1    4    4    0    0  0.29234585234E+02 -0.72988361507E+01 -0.22050284495E+02  0.37338305121E+02  0.00000000000E+00 0.  1.
         11    1    4    4    0    0 -0.72292254429E+02 -0.88141615563E+01 -0.36591520567E+02  0.81503367242E+02  0.00000000000E+00 0. -1.
        -11    1    3    3    0    0 -0.20722088958E+02 -0.48682419985E+02 -0.35267257330E+02  0.63585866558E+02  0.00000000000E+00 0. -1.
         11    1    3    3    0    0  0.50780416444E+02  0.10503411379E+02 -0.32769679136E+02  0.61341863483E+02  0.00000000000E+00 0.  1.
         21    1    1    2  502  501  0.12999341709E+02  0.54292006313E+02  0.75996167553E+02  0.94297520207E+02  0.00000000000E+00 0. -1.
<scales pt_clust_5="13000.00000" pt_clust_6="13000.00000" pt_clust_7="13000.00000" pt_clust_8="13000.00000" pt_clust_9="55.82656"></scales>
<clustering>
<clus scale="   55.827">  1  9  2 -1</clus>
<clus scale="   92.579">  5  6 -1 -1</clus>
<clus scale="   92.827">  7  8 -1 -1</clus>
<clus scale="  100.166">  1  5  2 -1</clus>
<clus scale="   55.827">  1  5  2 -1</clus>
</clustering>
</event>
<event>
 9    1  0.1484717E-005  0.1198215E+03  0.7546771E-02  0.1243394E+00
          2   -1    0    0  502    0  0.00000000000E+00  0.00000000000E+00  0.36433015766E+03  0.36433015766E+03  0.00000000000E+00 0. -1.
         -2   -1    0    0    0  501 -0.00000000000E+00 -0.00000000000E+00 -0.56952049411E+02  0.56952049411E+02  0.00000000000E+00 0.  1.
         23    2    1    2    0    0  0.85253261727E+01  0.97785221557E+02  0.10062566877E+03  0.16710850661E+03  0.90360926436E+02 0.  0.
         23    2    1    2    0    0  0.25556607356E+00 -0.69371441194E+02  0.18526352104E+03  0.21748282150E+03  0.90353435190E+02 0.  0.
        -11    1    4    4    0    0 -0.30903829930E+02 -0.32993709955E+02  0.15347845790E+03  0.15999771449E+03  0.00000000000E+00 0. -1.
         11    1    4    4    0    0  0.31159396003E+02 -0.36377731238E+02  0.31785063141E+02  0.57485107012E+02  0.00000000000E+00 0.  1.
        -13    1    3    3    0    0 -0.10619552364E+02  0.77418987556E+02  0.18426884703E+02  0.80287138487E+02  0.00000000000E+00 0.  1.
         13    1    3    3    0    0  0.19144878536E+02  0.20366234001E+02  0.82198784066E+02  0.86821368127E+02  0.00000000000E+00 0. -1.
         21    1    1    2  502  501 -0.87808922462E+01 -0.28413780363E+02  0.21488918438E+02  0.36690878959E+02  0.00000000000E+00 0. -1.
<scales pt_clust_5="13000.00000" pt_clust_6="13000.00000" pt_clust_7="13000.00000" pt_clust_8="13000.00000" pt_clust_9="29.73965"></scales>
<clustering>
<clus scale="   29.740">  2  9  1 -1</clus>
<clus scale="   90.353">  5  6 -1 -1</clus>
<clus scale="   90.361">  7  8 -1 -1</clus>
<clus scale="  119.816">  1  5  2 -1</clus>
<clus scale="  119.816">  1  5  2 -1</clus>
</clustering>
</event>
<event>
 9    1  0.1484717E-005  0.1213480E+03  0.7546771E-02  0.1242621E+00
          1   -1    0    0  502    0  0.00000000000E+00  0.00000000000E+00  0.46209136807E+03  0.46209136807E+03  0.00000000000E+00 0. -1.
         -1   -1    0    0    0  501 -0.00000000000E+00 -0.00000000000E+00 -0.77306798125E+02  0.77306798125E+02  0.00000000000E+00 0.  1.
         23    2    1    2    0    0  0.68845541308E+02 -0.12486662647E+03  0.19480712067E+03  0.25801347531E+03  0.91048098355E+02 0.  0.
         23    2    1    2    0    0 -0.17662388280E+02  0.48052167782E+02  0.15170313866E+03  0.18145922330E+03  0.85396935858E+02 0.  0.
        -11    1    4    4    0    0  0.69992149835E+01  0.65720407102E+02  0.12332152143E+03  0.13991554083E+03  0.00000000000E+00 0.  1.
         11    1    4    4    0    0 -0.24661603263E+02 -0.17668239319E+02  0.28381617230E+02  0.41543682465E+02  0.00000000000E+00 0. -1.
        -11    1    3    3    0    0  0.15753730255E+02  0.13602462191E+02  0.26397545751E+02  0.33616029157E+02  0.00000000000E+00 0.  1.
         11    1    3    3    0    0  0.53091811053E+02 -0.13846908867E+03  0.16840957492E+03  0.22439744615E+03  0.00000000000E+00 0. -1.
         21    1    1    2  502  501 -0.51183153029E+02  0.76814458692E+02  0.38274310618E+02  0.99925467581E+02  0.00000000000E+00 0.  1.
<scales pt_clust_5="13000.00000" pt_clust_6="13000.00000" pt_clust_7="13000.00000" pt_clust_8="13000.00000" pt_clust_9="92.30480"></scales>
<clustering>
<clus scale="   85.397">  5  6 -1 -1</clus>
<clus scale="   91.048">  7  8 -1 -1</clus>
<clus scale="   92.305">  2  9  1 -1</clus>
<clus scale="  117.168">  1  5  2 -1</clus>
<clus scale="  117.168">  1  5  2 -1</clus>
</clustering>
</event>
<event>
 9    1  0.1484717E-005  0.1126682E+03  0.7546771E-02  0.1258368E+00
         -2   -1    0    0    0  501 -0.00000000000E+00  0.00000000000E+00  0.55156370284E+02  0.55156370284E+02  0.00000000000E+00 0.  1.
          2   -1    0    0  502    0  0.00000000000E+00 -0.00000000000E+00 -0.74027514602E+03  0.74027514602E+03  0.00000000000E+00 0. -1.
         23    2    1    2    0    0  0.29344905750E+02  0.11865735675E+03 -0.22718153481E+03  0.27361492933E+03  0.91175588793E+02 0.  0.
         23    2    1    2    0    0 -0.26130911044E+02 -0.28589989549E+02 -0.40243373127E+03  0.41597188951E+03  0.97874883322E+02 0.  0.
        -11    1    4    4    0    0 -0.44249796001E+02  0.23151651086E+02 -0.17175436524E+03  0.17886756378E+03  0.00000000000E+00 0. -1.
         11    1    4    4    0    0  0.18118884957E+02 -0.51741640635E+02 -0.23067936603E+03  0.23710432573E+03  0.00000000000E+00 0.  1.
        -13    1    3    3    0    0  0.59719480800E+00  0.96233817016E+02 -0.21435313455E+03  0.23496504095E+03  0.00000000000E+00 0. -1.
         13    1    3    3    0    0  0.28747710942E+02  0.22423539733E+02 -0.12828400259E+02  0.38649888380E+02  0.00000000000E+00 0.  1.
         21    1    1    2  502  501 -0.32139947059E+01 -0.90067367200E+02 -0.55503509659E+02  0.10584469746E+03  0.00000000000E+00 0.  1.
<scales pt_clust_5="13000.00000" pt_clust_6="13000.00000" pt_clust_7="13000.00000" pt_clust_8="13000.00000" pt_clust_9="90.12469"></scales>
<clustering>
<clus scale="   90.125">  1  9  2 -1</clus>
<clus scale="   91.176">  7  8 -1 -1</clus>
<clus scale="   97.875">  5  6 -1 -1</clus>
<clus scale="  106.900">  1  7  2 -1</clus>
<clus scale="  112.668">  2  5  1 -1</clus>
</clustering>
</event>
<event>
 9    1  0.1484717E-005  0.9884457E+02  0.7546771E-02  0.1282930E+00
          2   -1    0    0  502    0  0.00000000000E+00  0.00000000000E+00  0.55801084496E+03  0.55801084496E+03  0.00000000000E+00 0. -1.
         -2   -1    0    0    0  501 -0.00000000000E+00 -0.00000000000E+00 -0.85478476716E+02  0.85478476716E+02  0.00000000000E+00 0.  1.
         23    2    1    2    0    0  0.66982523400E+02  0.17568854167E+02  0.29107156905E+03  0.31269768804E+03  0.90894789301E+02 0.  0.
         23    2    1    2    0    0 -0.78706897533E+01 -0.18200862494E+02  0.23401464474E+03  0.25169349842E+03  0.90518197295E+02 0.  0.
        -11    1    4    4    0    0 -0.17948460512E+02  0.25209226642E+02  0.17514742234E+03  0.17786025946E+03  0.00000000000E+00 0.  1.
         11    1    4    4    0    0  0.10077770759E+02 -0.43410089137E+02  0.58867222399E+02  0.73833238960E+02  0.00000000000E+00 0. -1.
        -13    1    3    3    0    0  0.50738425239E+02  0.33716414777E+02  0.28125723143E+03  0.28777910740E+03  0.00000000000E+00 0. -1.
         13    1    3    3    0    0  0.16244098160E+02 -0.16147560609E+02  0.98143376177E+01  0.24918580649E+02  0.00000000000E+00 0.  1.
         21    1    1    2  502  501 -0.59111833646E+02  0.63200832709E+00 -0.52553845548E+02  0.79098135208E+02  0.00000000000E+00 0.  1.
<scales pt_clust_5="13000.00000" pt_clust_6="13000.00000" pt_clust_7="13000.00000" pt_clust_8="13000.00000" pt_clust_9="59.11521"></scales>
<clustering>
<clus scale="   59.115">  2  9  1 -1</clus>
<clus scale="   90.518">  5  6 -1 -1</clus>
<clus scale="   90.895">  7  8 -1 -1</clus>
<clus scale="   98.498">  1  5  2 -1</clus>
<clus scale="   98.498">  1  5  2 -1</clus>
</clustering>
</event>
<event>
 9    1  0.1484717E-005  0.9832033E+02  0.7546771E-02  0.1287151E+00
          1   -1    0    0  502    0  0.00000000000E+00  0.00000000000E+00  0.14709300289E+03  0.14709300289E+03  0.00000000000E+00 0. -1.
         -1   -1    0    0    0  501 -0.00000000000E+00 -0.00000000000E+00 -0.93085981330E+02  0.93085981330E+02  0.00000000000E+00 0.  1.
         23    2    1    2    0    0  0.21296409498E+02  0.32285655033E+01 -0.92694654913E+01  0.92644947959E+02  0.89628135645E+02 0.  0.
         23    2    1    2    0    0 -0.14270587987E+02  0.24944972551E+02  0.63685280748E+02  0.11849479511E+03  0.95704232651E+02 0.  0.
        -11    1    3    3    0    0  0.25451041239E+02  0.38515819918E+02  0.16203523348E+02  0.48926251164E+02  0.00000000000E+00 0.  1.
         11    1    3    3    0    0 -0.41546317413E+01 -0.35287254414E+02 -0.25472988840E+02  0.43718696795E+02  0.00000000000E+00 0. -1.
        -11    1    4    4    0    0 -0.77149970216E+01 -0.33433141703E+02  0.36596484682E+01  0.34506364197E+02  0.00000000000E+00 0.  1.
         11    1    4    4    0    0 -0.65555909650E+01  0.58378114254E+02  0.60025632279E+02  0.83988430914E+02  0.00000000000E+00 0. -1.
         21    1    1    2  502  501 -0.70258215109E+01 -0.28173538054E+02 -0.40879369408E+00  0.29039241152E+02  0.00000000000E+00 0.  1.
<scales pt_clust_5="13000.00000" pt_clust_6="13000.00000" pt_clust_7="13000.00000" pt_clust_8="13000.00000" pt_clust_9="29.03636"></scales>
<clustering>
<clus scale="   29.036">  2  9  1 -1</clus>
<clus scale="   89.628">  5  6 -1 -1</clus>
<clus scale="   92.416">  2  5  1 -1</clus>
<clus scale="   95.704">  7  8 -1 -1</clus>
<clus scale="   98.320">  1  5  2 -1</clus>
</clustering>
</event>
<event>
 9    1  0.1484717E-005  0.1299598E+03  0.7546771E-02  0.1228036E+00
          1   -1    0    0  502    0  0.00000000000E+00  0.00000000000E+00  0.20307265491E+03  0.20307265491E+03  0.00000000000E+00 0. -1.
         -1   -1    0    0    0  501 -0.00000000000E+00 -0.00000000000E+00 -0.51987586918E+03  0.51987586918E+03  0.00000000000E+00 0.  1.
         23    2    1    2    0    0 -0.14996959555E+02 -0.63005743902E+01 -0.21371897033E+03  0.23207437818E+03  0.88983777723E+02 0.  0.
         23    2    1    2    0    0  0.10107977689E+03 -0.97645309715E+01  0.16197553970E+03  0.21172359879E+03  0.90985380489E+02 0.  0.
        -13    1    4    4    0    0  0.52586800978E+02  0.39098248563E+02  0.61088834451E+02  0.89587333773E+02  0.00000000000E+00 0.  1.
         13    1    4    4    0    0  0.48492975908E+02 -0.48862779535E+02  0.10088670525E+03  0.12213626502E+03  0.00000000000E+00 0. -1.
        -13    1    3    3    0    0 -0.48613136028E+02 -0.21391073211E+02 -0.13793981556E+03  0.14781139240E+03  0.00000000000E+00 0.  1.
         13    1    3    3    0    0  0.33616176472E+02  0.15090498821E+02 -0.75779154770E+02  0.84262985783E+02  0.00000000000E+00 0. -1.
         21    1    1    2  502  501 -0.86082817331E+02  0.16065105362E+02 -0.26505978364E+03  0.27915054712E+03  0.00000000000E+00 0.  1.
<scales pt_clust_5="13000.00000" pt_clust_6="13000.00000" pt_clust_7="13000.00000" pt_clust_8="13000.00000" pt_clust_9="87.56905"></scales>
<clustering>
<clus scale="   87.569">  2  9  1 -1</clus>
<clus scale="   88.984">  7  8 -1 -1</clus>
<clus scale="   90.985">  5  6 -1 -1</clus>
<clus scale="  128.566">  2  7  1 -1</clus>
<clus scale="  129.960">  1  5  2 -1</clus>
</clustering>
</event>
<event>
 9    1  0.1484717E-005  0.1210425E+03  0.7546771E-02  0.1241509E+00
          3   -1    0    0  502    0  0.00000000000E+00  0.00000000000E+00  0.18809251765E+03  0.18809251765E+03  0.00000000000E+00 0. -1.
         -3   -1    0    0    0  501 -0.00000000000E+00 -0.00000000000E+00 -0.15034049246E+03  0.15034049246E+03  0.00000000000E+00 0.  1.
         23    2    1    2    0    0 -0.63648094257E+02 -0.41007104986E+02  0.16469404808E+02  0.12010391945E+03  0.91766266191E+02 0.  0.
         23    2    1    2    0    0  0.93446321664E+02 -0.29726164090E+02  0.38931660979E+02  0.13957238717E+03  0.91372409240E+02 0.  0.
        -11    1    3    3    0    0 -0.32562974001E+02  0.26050685946E+02  0.19701689372E+02  0.46120950534E+02  0.00000000000E+00 0.  1.
         11    1    3    3    0    0 -0.31085120256E+02 -0.67057790933E+02 -0.32322845647E+01  0.73982968916E+02  0.00000000000E+00 0. -1.
        -13    1    4    4    0    0  0.33520863847E+02  0.32006980477E+02  0.33457516640E+01  0.46468152174E+02  0.00000000000E+00 0.  1.
         13    1    4    4    0    0  0.59925457817E+02 -0.61733144567E+02  0.35585909315E+02  0.93104234998E+02  0.00000000000E+00 0. -1.
         21    1    1    2  502  501 -0.29798227407E+02  0.70733269076E+02 -0.17649040598E+02  0.78756703491E+02  0.00000000000E+00 0.  1.
<scales pt_clust_5="13000.00000" pt_clust_6="13000.00000" pt_clust_7="13000.00000" pt_clust_8="13000.00000" pt_clust_9="76.75370"></scales>
<clustering>
<clus scale="   76.754">  2  9  1 -1</clus>
<clus scale="   91.372">  7  8 -1 -1</clus>
<clus scale="   91.766">  5  6 -1 -1</clus>
<clus scale="  120.744">  1  7  2 -1</clus>
<clus scale="  120.744">  1  5  2 -1</clus>
</clustering>
</event>
<event>
 9    1  0.1484717E-005  0.1172513E+03  0.7546771E-02  0.1248150E+00
          1   -1    0    0  502    0  0.00000000000E+00  0.00000000000E+00  0.37280021880E+02  0.37280021880E+02  0.00000000000E+00 0. -1.
         -1   -1    0    0    0  501 -0.00000000000E+00 -0.00000000000E+00 -0.74744545297E+03  0.74744545297E+03  0.00000000000E+00 0.  1.
         23    2    1    2    0    0 -0.73620031953E+02  0.56909894304E+02 -0.33395438665E+03  0.35806508321E+03  0.89590324661E+02 0.  0.
         23    2    1    2    0    0  0.65080913755E+02 -0.20016860140E+02 -0.11126164946E+03  0.15901847712E+03  0.90947904870E+02 0.  0.
        -13    1    3    3    0    0 -0.69142312442E+01  0.60589815865E+02 -0.13345127635E+03  0.14672482933E+03  0.00000000000E+00 0.  1.
         13    1    3    3    0    0 -0.66705800708E+02 -0.36799215618E+01 -0.20050311030E+03  0.21134025388E+03  0.00000000000E+00 0. -1.
        -13    1    4    4    0    0 -0.47953235088E+00  0.30531445094E+02 -0.25051494595E+02  0.39496537472E+02  0.00000000000E+00 0.  1.
         13    1    4    4    0    0  0.65560446106E+02 -0.50548305234E+02 -0.86210154861E+02  0.11952193965E+03  0.00000000000E+00 0. -1.
         21    1    1    2  502  501  0.85391181977E+01 -0.36893034164E+02 -0.26494939498E+03  0.26764191452E+03  0.00000000000E+00 0. -1.
<scales pt_clust_5="13000.00000" pt_clust_6="13000.00000" pt_clust_7="13000.00000" pt_clust_8="13000.00000" pt_clust_9="37.86836"></scales>
<clustering>
<clus scale="   37.868">  2  9  1 -1</clus>
<clus scale="   89.590">  5  6 -1 -1</clus>
<clus scale="   90.948">  7  8 -1 -1</clus>
<clus scale="  116.201">  2  5  1 -1</clus>
<clus scale="  117.251">  1  5  2 -1</clus>
</clustering>
</event>
<event>
 9    1  0.1484717E-005  0.1333216E+03  0.7546771E-02  0.1224747E+00
         -1   -1    0    0    0  501 -0.00000000000E+00  0.00000000000E+00  0.14789480999E+03  0.14789480999E+03  0.00000000000E+00 0.  1.
          1   -1    0    0  502    0  0.00000000000E+00 -0.00000000000E+00 -0.14121676900E+03  0.14121676900E+03  0.00000000000E+00 0. -1.
         23    2    1    2    0    0 -0.30195421690E+02 -0.10605254505E+03 -0.48071644463E+01  0.13721862655E+03  0.81528748539E+02 0.  0.
         23    2    1    2    0    0  0.23015854942E+02  0.83438214280E+02 -0.90193670833E+00  0.12512738827E+03  0.90356984365E+02 0.  0.
        -13    1    3    3    0    0 -0.39156894871E+02 -0.36924954492E+02  0.27442771003E+02  0.60413743143E+02  0.00000000000E+00 0.  1.
         13    1    3    3    0    0  0.89614731809E+01 -0.69127590558E+02 -0.32249935450E+02  0.76804883403E+02  0.00000000000E+00 0. -1.
        -13    1    4    4    0    0  0.57194040852E+02  0.54429856502E+02  0.82161471971E+01  0.79380555948E+02  0.00000000000E+00 0. -1.
         13    1    4    4    0    0 -0.34178185910E+02  0.29008357778E+02 -0.91180839054E+01  0.45746832319E+02  0.00000000000E+00 0.  1.
         21    1    1    2  502  501  0.71795667479E+01  0.22614330770E+02  0.12387142143E+02  0.26765564170E+02  0.00000000000E+00 0. -1.
<scales pt_clust_5="13000.00000" pt_clust_6="13000.00000" pt_clust_7="13000.00000" pt_clust_8="13000.00000" pt_clust_9="23.72665"></scales>
<clustering>
<clus scale="   23.727">  1  9  2 -1</clus>
<clus scale="   81.529">  5  6 -1 -1</clus>
<clus scale="   90.357">  7  8 -1 -1</clus>
<clus scale="  127.504">  1  5  2 -1</clus>
<clus scale="  133.322">  2  5  1 -1</clus>
</clustering>
</event>
<event>
 9    1  0.1484717E-005  0.1159486E+03  0.7546771E-02  0.1250230E+00
         -2   -1    0    0    0  501 -0.00000000000E+00  0.00000000000E+00  0.37235920605E+02  0.37235920605E+02  0.00000000000E+00 0.  1.
          2   -1    0    0  502    0  0.00000000000E+00 -0.00000000000E+00 -0.71671658276E+03  0.71671658276E+03  0.00000000000E+00 0. -1.
         23    2    1    2    0    0  0.39486029726E+01  0.49280846802E+02 -0.10650567580E+03  0.14873176265E+03  0.91287923164E+02 0.  0.
         23    2    1    2    0    0  0.38243241536E+02 -0.71378418009E+02 -0.52001899141E+03  0.53399720671E+03  0.90420358684E+02 0.  0.
        -11    1    4    4    0    0  0.53583903914E+02 -0.76388758992E+01 -0.28013040762E+03  0.28531146570E+03  0.00000000000E+00 0. -1.
         11    1    4    4    0    0 -0.15340662378E+02 -0.63739542110E+02 -0.23988858378E+03  0.24868574101E+03  0.00000000000E+00 0.  1.
        -13    1    3    3    0    0  0.29508985786E+02  0.31467224575E+02 -0.60565920358E+01  0.43562010647E+02  0.00000000000E+00 0.  1.
         13    1    3    3    0    0 -0.25560382813E+02  0.17813622228E+02 -0.10044908377E+03  0.10516975200E+03  0.00000000000E+00 0. -1.
         21    1    1    2  502  501 -0.42191844509E+02  0.22097571206E+02 -0.52955994941E+02  0.71223534007E+02  0.00000000000E+00 0.  1.
<scales pt_clust_5="13000.00000" pt_clust_6="13000.00000" pt_clust_7="13000.00000" pt_clust_8="13000.00000" pt_clust_9="47.62829"></scales>
<clustering>
<clus scale="   47.628">  1  9  2 -1</clus>
<clus scale="   90.420">  5  6 -1 -1</clus>
<clus scale="   91.288">  7  8 -1 -1</clus>
<clus scale="  115.267">  2  5  1 -1</clus>
<clus scale="  115.267">  2  5  1 -1</clus>
</clustering>
</event>
<event>
 9    1  0.2808145E-005  0.1489893E+03  0.7546771E-02  0.1202441E+00
          2   -1    0    0  502    0  0.00000000000E+00  0.00000000000E+00  0.57521873675E+03  0.57521873675E+03  0.00000000000E+00 0. -1.
         -2   -1    0    0    0  501 -0.00000000000E+00 -0.00000000000E+00 -0.13706949669E+03  0.13706949669E+03  0.00000000000E+00 0.  1.
         23    2    1    2    0    0 -0.16181605964E+02  0.93377651831E+02 -0.79309478808E+02  0.15433436375E+03  0.92454703355E+02 0.  0.
         23    2    1    2    0    0  0.26884482306E+02 -0.11575400084E+03  0.51133943940E+03  0.53240591207E+03  0.88691988510E+02 0.  0.
        -13    1    4    4    0    0 -0.30371854101E+02 -0.54464279794E+02  0.17544426548E+03  0.18619746933E+03  0.00000000000E+00 0.  1.
         13    1    4    4    0    0  0.57256336406E+02 -0.61289721049E+02  0.33589517392E+03  0.34620844274E+03  0.00000000000E+00 0. -1.
        -13    1    3    3    0    0 -0.46930164631E+02  0.21524448281E+02 -0.46806418264E+02  0.69689188665E+02  0.00000000000E+00 0.  1.
         13    1    3    3    0    0  0.30748558667E+02  0.71853203549E+02 -0.32503060543E+02  0.84645175084E+02  0.00000000000E+00 0. -1.
         21    1    1    2  502  501 -0.10702876342E+02  0.22376349013E+02  0.61192794685E+01  0.25547957616E+02  0.00000000000E+00 0. -1.
<scales pt_clust_5="13000.00000" pt_clust_6="13000.00000" pt_clust_7="13000.00000" pt_clust_8="13000.00000" pt_clust_9="24.80429"></scales>
<clustering>
<clus scale="   24.804">  2  9  1 -1</clus>
<clus scale="   88.692">  5  6 -1 -1</clus>
<clus scale="   92.455">  7  8 -1 -1</clus>
<clus scale="  146.684">  1  5  2 -1</clus>
<clus scale="  146.684">  1  5  2 -1</clus>
</clustering>
</event>
<event>
 9    1  0.1484717E-005  0.1541054E+03  0.7546771E-02  0.1195932E+00
         -1   -1    0    0    0  501 -0.00000000000E+00  0.00000000000E+00  0.97275723183E+02  0.97275723183E+02  0.00000000000E+00 0.  1.
          1   -1    0    0  502    0  0.00000000000E+00 -0.00000000000E+00 -0.31673602386E+03  0.31673602386E+03  0.00000000000E+00 0. -1.
         23    2    1    2    0    0 -0.12486122729E+03 -0.38810384167E+02 -0.56069407740E+02  0.16974202787E+03  0.92585125918E+02 0.  0.
         23    2    1    2    0    0  0.10573472864E+03  0.56723187456E+02 -0.15712733122E+03  0.21732674834E+03  0.90247240911E+02 0.  0.
        -11    1    3    3    0    0 -0.21359951389E+02  0.20251861768E+02  0.12809132964E+02  0.32100768148E+02  0.00000000000E+00 0.  1.
         11    1    3    3    0    0 -0.10350127590E+03 -0.59062245935E+02 -0.68878540704E+02  0.13764125972E+03  0.00000000000E+00 0. -1.
        -13    1    4    4    0    0  0.10596539475E+02  0.20294075576E+02  0.71855955220E+01  0.23995185670E+02  0.00000000000E+00 0.  1.
         13    1    4    4    0    0  0.95138189161E+02  0.36429111880E+02 -0.16431292674E+03  0.19333156267E+03  0.00000000000E+00 0. -1.
         21    1    1    2  502  501  0.19126498652E+02 -0.17912803288E+02 -0.62635617201E+01  0.26942970841E+02  0.00000000000E+00 0. -1.
<scales pt_clust_5="13000.00000" pt_clust_6="13000.00000" pt_clust_7="13000.00000" pt_clust_8="13000.00000" pt_clust_9="26.20480"></scales>
<clustering>
<clus scale="   26.205">  1  9  2 -1</clus>
<clus scale="   90.247">  7  8 -1 -1</clus>
<clus scale="   92.585">  5  6 -1 -1</clus>
<clus scale="  152.712">  2  7  1 -1</clus>
<clus scale="  152.712">  2  5  1 -1</clus>
</clustering>
</event>
<event>
 9    1  0.1484717E-005  0.1295026E+03  0.7546771E-02  0.1228536E+00
         -2   -1    0    0    0  501 -0.00000000000E+00  0.00000000000E+00  0.54013169560E+02  0.54013169560E+02  0.00000000000E+00 0.  1.
          2   -1    0    0  502    0  0.00000000000E+00 -0.00000000000E+00 -0.40540497685E+03  0.40540497685E+03  0.00000000000E+00 0. -1.
         23    2    1    2    0    0  0.74455526851E+02 -0.19940150152E+02 -0.11761840167E+03  0.16569513694E+03  0.87633069825E+02 0.  0.
         23    2    1    2    0    0 -0.10310992645E+03  0.40625615821E+02 -0.19453188994E+03  0.24091335449E+03  0.88963422673E+02 0.  0.
        -11    1    4    4    0    0 -0.71623521618E+02  0.20396915006E+02 -0.45537012954E+02  0.87290220182E+02  0.00000000000E+00 0. -1.
         11    1    4    4    0    0 -0.31486404835E+02  0.20228700815E+02 -0.14899487699E+03  0.15362313431E+03  0.00000000000E+00 0.  1.
        -11    1    3    3    0    0  0.77835357550E+02  0.15156149955E+02 -0.65924581842E+02  0.10312178362E+03  0.00000000000E+00 0. -1.
         11    1    3    3    0    0 -0.33798306994E+01 -0.35096300107E+02 -0.51693819830E+02  0.62573353317E+02  0.00000000000E+00 0.  1.
         21    1    1    2  502  501  0.28654399602E+02 -0.20685465669E+02 -0.39241515679E+02  0.52809654982E+02  0.00000000000E+00 0.  1.
<scales pt_clust_5="13000.00000" pt_clust_6="13000.00000" pt_clust_7="13000.00000" pt_clust_8="13000.00000" pt_clust_9="35.34067"></scales>
<clustering>
<clus scale="   35.341">  1  9  2 -1</clus>
<clus scale="   87.633">  7  8 -1 -1</clus>
<clus scale="   88.963">  5  6 -1 -1</clus>
<clus scale="  128.592">  1  7  2 -1</clus>
<clus scale="  129.503">  2  5  1 -1</clus>
</clustering>
</event>
<event>
 9    1  0.1484717E-005  0.9806891E+02  0.7546771E-02  0.1284727E+00
         -3   -1    0    0    0  501 -0.00000000000E+00  0.00000000000E+00  0.46438275498E+02  0.46438275498E+02  0.00000000000E+00 0.  1.
          3   -1    0    0  502    0  0.00000000000E+00 -0.00000000000E+00 -0.36816350007E+03  0.36816350007E+03  0.00000000000E+00 0. -1.
         23    2    1    2    0    0  0.39951579494E+02  0.21988527772E+02 -0.14249457447E+03  0.17513909179E+03  0.91045997512E+02 0.  0.
         23    2    1    2    0    0 -0.28320641694E+02 -0.31571631846E+01 -0.19145698883E+03  0.21417667252E+03  0.91672471641E+02 0.  0.
        -11    1    4    4    0    0 -0.17268510855E+02  0.27628164693E+02 -0.17414908542E+03  0.17717059831E+03  0.00000000000E+00 0.  1.
         11    1    4    4    0    0 -0.11052130839E+02 -0.30785327878E+02 -0.17307903409E+02  0.37006074219E+02  0.00000000000E+00 0. -1.
        -13    1    3    3    0    0 -0.14184185666E+02 -0.20013755215E+02 -0.75202272633E+02  0.79101980569E+02  0.00000000000E+00 0.  1.
         13    1    3    3    0    0  0.54135765160E+02  0.42002282987E+02 -0.67292301834E+02  0.96037111221E+02  0.00000000000E+00 0. -1.
         21    1    1    2  502  501 -0.11630937800E+02 -0.18831364587E+02  0.12226338726E+02  0.25286011251E+02  0.00000000000E+00 0.  1.
<scales pt_clust_5="13000.00000" pt_clust_6="13000.00000" pt_clust_7="13000.00000" pt_clust_8="13000.00000" pt_clust_9="22.13366"></scales>
<clustering>
<clus scale="   22.134">  1  9  2 -1</clus>
<clus scale="   91.046">  7  8 -1 -1</clus>
<clus scale="   91.672">  5  6 -1 -1</clus>
<clus scale="   97.484">  1  7  2 -1</clus>
<clus scale="   98.069">  2  5  1 -1</clus>
</clustering>
</event>
<event>
 9    1  0.1484717E-005  0.3256619E+03  0.7546771E-02  0.1111345E+00
         -1   -1    0    0    0  501 -0.00000000000E+00  0.00000000000E+00  0.73455207287E+03  0.73455207287E+03  0.00000000000E+00 0.  1.
          1   -1    0    0  502    0  0.00000000000E+00 -0.00000000000E+00 -0.39682300925E+03  0.39682300925E+03  0.00000000000E+00 0. -1.
         23    2    1    2    0    0  0.17372477156E+03  0.18543487188E+03 -0.20303551609E+03  0.33757860391E+03  0.90385314444E+02 0.  0.
         23    2    1    2    0    0  0.73748637065E+02  0.20804639989E+02 -0.43528576866E+02  0.12658113288E+03  0.90864468757E+02 0.  0.
        -11    1    4    4    0    0  0.22028146398E+01 -0.27745145251E+02 -0.26553573216E+02  0.38467359253E+02  0.00000000000E+00 0. -1.
         11    1    4    4    0    0  0.71545822425E+02  0.48549785240E+02 -0.16975003650E+02  0.88113773624E+02  0.00000000000E+00 0.  1.
        -11    1    3    3    0    0  0.16182802573E+03  0.11909938350E+03 -0.16629948531E+03  0.26082272116E+03  0.00000000000E+00 0.  1.
         11    1    3    3    0    0  0.11896745830E+02  0.66335488377E+02 -0.36736030779E+02  0.76755882752E+02  0.00000000000E+00 0. -1.
         21    1    1    2  502  501 -0.24747340862E+03 -0.20623951187E+03  0.58429315657E+03  0.66721534533E+03  0.00000000000E+00 0. -1.
<scales pt_clust_5="13000.00000" pt_clust_6="13000.00000" pt_clust_7="13000.00000" pt_clust_8="13000.00000" pt_clust_9="312.86770"></scales>
<clustering>
<clus scale="   90.385">  7  8 -1 -1</clus>
<clus scale="   90.864">  5  6 -1 -1</clus>
<clus scale="  118.861">  2  5  1 -1</clus>
<clus scale="  312.868">  1  9  2 -1</clus>
<clus scale="  118.861">  2  5  1 -1</clus>
</clustering>
</event>
<event>
 9    1  0.1484717E-005  0.1137444E+03  0.7546771E-02  0.1254177E+00
          1   -1    0    0  502    0  0.00000000000E+00  0.00000000000E+00  0.11848500723E+03  0.11848500723E+03  0.00000000000E+00 0. -1.
         -1   -1    0    0    0  501 -0.00000000000E+00 -0.00000000000E+00 -0.17336006281E+03  0.17336006281E+03  0.00000000000E+00 0.  1.
         23    2    1    2    0    0 -0.28733119605E+02  0.55143934404E+02 -0.87040985766E+02  0.14047206357E+03  0.91048458397E+02 0.  0.
         23    2    1    2    0    0  0.13462313121E+02 -0.69542953605E+02  0.48928396269E+02  0.12451207659E+03  0.89954505084E+02 0.  0.
        -11    1    4    4    0    0  0.30296938645E+02 -0.19488618541E+02 -0.17171384433E+02  0.39906981685E+02  0.00000000000E+00 0.  1.
         11    1    4    4    0    0 -0.16834625524E+02 -0.50054335065E+02  0.66099780701E+02  0.84605094906E+02  0.00000000000E+00 0. -1.
        -11    1    3    3    0    0  0.25198183741E+02  0.55267811846E+01  0.11304786765E+01  0.25821923944E+02  0.00000000000E+00 0. -1.
         11    1    3    3    0    0 -0.53931303346E+02  0.49617153219E+02 -0.88171464443E+02  0.11465013963E+03  0.00000000000E+00 0.  1.
         21    1    1    2  502  501  0.15270806485E+02  0.14399019202E+02 -0.16762466084E+02  0.26860929877E+02  0.00000000000E+00 0.  1.
<scales pt_clust_5="13000.00000" pt_clust_6="13000.00000" pt_clust_7="13000.00000" pt_clust_8="13000.00000" pt_clust_9="20.98879"></scales>
<clustering>
<clus scale="   20.989">  2  9  1 -1</clus>
<clus scale="   89.955">  5  6 -1 -1</clus>
<clus scale="   91.048">  7  8 -1 -1</clus>
<clus scale="  112.871">  1  5  2 -1</clus>
<clus scale="  112.871">  1  5  2 -1</clus>
</clustering>
</event>
<event>
 9    1  0.1484717E-005  0.9326890E+02  0.7546771E-02  0.1297050E+00
         -1   -1    0    0    0  501 -0.00000000000E+00  0.00000000000E+00  0.31175115824E+03  0.31175115824E+03  0.00000000000E+00 0.  1.
          1   -1    0    0  502    0  0.00000000000E+00 -0.00000000000E+00 -0.68280916718E+02  0.68280916718E+02  0.00000000000E+00 0. -1.
         23    2    1    2    0    0 -0.33247726673E+02  0.30328510777E+02  0.59377716437E+02  0.11926116741E+03  0.93125093004E+02 0.  0.
         23    2    1    2    0    0 -0.26325812369E+02  0.19159758323E+02  0.55086937734E+02  0.11030318045E+03  0.89844733689E+02 0.  0.
        -11    1    3    3    0    0 -0.46244001157E+02 -0.71808282148E+01  0.64012123596E+02  0.79294538930E+02  0.00000000000E+00 0.  1.
         11    1    3    3    0    0  0.12996274484E+02  0.37509338992E+02 -0.46344071586E+01  0.39966628477E+02  0.00000000000E+00 0. -1.
        -13    1    4    4    0    0 -0.59285830307E+02  0.13679411321E+02  0.26635289347E+02  0.66418179800E+02  0.00000000000E+00 0.  1.
         13    1    4    4    0    0  0.32960017938E+02  0.54803470018E+01  0.28451648387E+02  0.43885000646E+02  0.00000000000E+00 0. -1.
         21    1    1    2  502  501  0.59573539042E+02 -0.49488269100E+02  0.12900558735E+03  0.15046772711E+03  0.00000000000E+00 0.  1.
<scales pt_clust_5="13000.00000" pt_clust_6="13000.00000" pt_clust_7="13000.00000" pt_clust_8="13000.00000" pt_clust_9="77.44737"></scales>
<clustering>
<clus scale="   77.447">  1  9  2 -1</clus>
<clus scale="   89.845">  7  8 -1 -1</clus>
<clus scale="   89.994">  2  7  1 -1</clus>
<clus scale="   93.125">  5  6 -1 -1</clus>
<clus scale="   89.994">  2  5  1 -1</clus>
</clustering>
</event>
<event>
 9    1  0.1484717E-005  0.1038850E+03  0.7546771E-02  0.1272678E+00
          1   -1    0    0  502    0  0.00000000000E+00  0.00000000000E+00  0.38730644151E+02  0.38730644151E+02  0.00000000000E+00 0. -1.
         -1   -1    0    0    0  501 -0.00000000000E+00 -0.00000000000E+00 -0.50690424408E+03  0.50690424408E+03  0.00000000000E+00 0.  1.
         23    2    1    2    0    0 -0.26811912433E+02 -0.29704720270E+02 -0.29915825879E+03  0.31492683833E+03  0.89899947955E+02 0.  0.
         23    2    1    2    0    0  0.19556411553E+02  0.51002358461E+02 -0.64879152205E+02  0.12416896069E+03  0.90691414178E+02 0.  0.
        -11    1    4    4    0    0 -0.32371923161E+02  0.28994699649E+02 -0.49170218676E+02  0.65622743173E+02  0.00000000000E+00 0.  1.
         11    1    4    4    0    0  0.51928334714E+02  0.22007658812E+02 -0.15708933530E+02  0.58546217514E+02  0.00000000000E+00 0. -1.
        -13    1    3    3    0    0  0.32534142832E+02 -0.16970629943E+02 -0.13531687700E+03  0.14020388701E+03  0.00000000000E+00 0. -1.
         13    1    3    3    0    0 -0.59346055264E+02 -0.12734090327E+02 -0.16384138179E+03  0.17472295132E+03  0.00000000000E+00 0.  1.
         21    1    1    2  502  501  0.72555008795E+01 -0.21297638191E+02 -0.10413618893E+03  0.10653908921E+03  0.00000000000E+00 0.  1.
<scales pt_clust_5="13000.00000" pt_clust_6="13000.00000" pt_clust_7="13000.00000" pt_clust_8="13000.00000" pt_clust_9="22.49959"></scales>
<clustering>
<clus scale="   22.500">  2  9  1 -1</clus>
<clus scale="   89.900">  7  8 -1 -1</clus>
<clus scale="   90.691">  5  6 -1 -1</clus>
<clus scale="  103.195">  2  7  1 -1</clus>
<clus scale="  103.885">  1  5  2 -1</clus>
</clustering>
</event>
<event>
 9    1  0.1484717E-005  0.1488161E+03  0.7546771E-02  0.1223510E+00
          1   -1    0    0  502    0  0.00000000000E+00  0.00000000000E+00  0.74386828660E+03  0.74386828660E+03  0.00000000000E+00 0. -1.
         -1   -1    0    0    0  501 -0.00000000000E+00 -0.00000000000E+00 -0.74726729380E+02  0.74726729380E+02  0.00000000000E+00 0.  1.
         23    2    1    2    0    0 -0.12632833373E+02 -0.75326607993E+01 -0.11578370920E+01  0.94082827764E+02  0.92918827131E+02 0.  0.
         23    2    1    2    0    0 -0.79323782254E+02  0.84392393739E+02  0.45181976695E+03  0.47531992253E+03  0.91507313352E+02 0.  0.
        -11    1    4    4    0    0 -0.98552793499E+02  0.57161949658E+02  0.36250884171E+03  0.37999052872E+03  0.00000000000E+00 0.  1.
         11    1    4    4    0    0  0.19229011245E+02  0.27230444081E+02  0.89310925239E+02  0.95329393816E+02  0.00000000000E+00 0. -1.
        -11    1    3    3    0    0 -0.46954960827E+02 -0.34103553911E+01 -0.23806256888E+02  0.52755442726E+02  0.00000000000E+00 0.  1.
         11    1    3    3    0    0  0.34322127453E+02 -0.41223054082E+01  0.22648419796E+02  0.41327385038E+02  0.00000000000E+00 0. -1.
         21    1    1    2  502  501  0.91956615627E+02 -0.76859732940E+02  0.21847962737E+03  0.24919226569E+03  0.00000000000E+00 0. -1.
<scales pt_clust_5="13000.00000" pt_clust_6="13000.00000" pt_clust_7="13000.00000" pt_clust_8="13000.00000" pt_clust_9="117.35684"></scales>
<clustering>
<clus scale="   91.507">  5  6 -1 -1</clus>
<clus scale="   92.919">  7  8 -1 -1</clus>
<clus scale="   94.076">  2  7  1 -1</clus>
<clus scale="  117.357">  2  9  1 -1</clus>
<clus scale="  148.816">  1  5  2 -1</clus>
</clustering>
</event>
<event>
 9    1  0.1484717E-005  0.1236118E+03  0.7546771E-02  0.1237805E+00
         -1   -1    0    0    0  501 -0.00000000000E+00  0.00000000000E+00  0.73248012787E+02  0.73248012787E+02  0.00000000000E+00 0.  1.
          1   -1    0    0  502    0  0.00000000000E+00 -0.00000000000E+00 -0.31972451543E+03  0.31972451543E+03  0.00000000000E+00 0. -1.
         23    2    1    2    0    0 -0.79293797426E+02  0.53182151696E+01 -0.11895932347E+03  0.17041829783E+03  0.92602839439E+02 0.  0.
         23    2    1    2    0    0  0.81990767529E+02  0.33391329147E+02 -0.13255624798E+03  0.18342502539E+03  0.90753039820E+02 0.  0.
        -11    1    3    3    0    0 -0.17511557282E+02  0.10804126274E+02  0.13187162186E+02  0.24439415490E+02  0.00000000000E+00 0.  1.
         11    1    3    3    0    0 -0.61782240144E+02 -0.54859111044E+01 -0.13214648566E+03  0.14597888234E+03  0.00000000000E+00 0. -1.
        -13    1    4    4    0    0  0.10057909933E+03  0.25959536701E+02 -0.94520681955E+02  0.14044291398E+03  0.00000000000E+00 0. -1.
         13    1    4    4    0    0 -0.18588331806E+02  0.74317924461E+01 -0.38035566029E+02  0.42982111412E+02  0.00000000000E+00 0.  1.
         21    1    1    2  502  501 -0.26969701030E+01 -0.38709544316E+02  0.50390688183E+01  0.39129204994E+02  0.00000000000E+00 0.  1.
<scales pt_clust_5="13000.00000" pt_clust_6="13000.00000" pt_clust_7="13000.00000" pt_clust_8="13000.00000" pt_clust_9="38.80338"></scales>
<clustering>
<clus scale="   38.803">  1  9  2 -1</clus>
<clus scale="   90.753">  7  8 -1 -1</clus>
<clus scale="   92.603">  5  6 -1 -1</clus>
<clus scale="  122.232">  2  7  1 -1</clus>
<clus scale="  122.232">  2  5  1 -1</clus>
</clustering>
</event>
<event>
 9    1  0.1484717E-005  0.9940954E+02  0.7546771E-02  0.1281556E+00
         -1   -1    0    0    0  501 -0.00000000000E+00  0.00000000000E+00  0.63114640765E+02  0.63114640765E+02  0.00000000000E+00 0.  1.
          1   -1    0    0  502    0  0.00000000000E+00 -0.00000000000E+00 -0.37053800104E+03  0.37053800104E+03  0.00000000000E+00 0. -1.
         23    2    1    2    0    0  0.48308194393E+02 -0.42345512487E+01 -0.28263263053E+02  0.10682800989E+03  0.90894436510E+02 0.  0.
         23    2    1    2    0    0 -0.13092715139E+02  0.42737988815E+02 -0.10886724028E+03  0.14871707506E+03  0.90921601013E+02 0.  0.
        -11    1    4    4    0    0 -0.38023126949E+02  0.37981583086E+02 -0.21749436225E+02  0.57977554389E+02  0.00000000000E+00 0.  1.
         11    1    4    4    0    0  0.24930411810E+02  0.47564057284E+01 -0.87117804055E+02  0.90739520672E+02  0.00000000000E+00 0. -1.
        -13    1    3    3    0    0  0.71408695862E+02  0.68773679658E+01 -0.35708096028E+02  0.80134687600E+02  0.00000000000E+00 0. -1.
         13    1    3    3    0    0 -0.23100501469E+02 -0.11111919215E+02  0.74448329748E+01  0.26693322288E+02  0.00000000000E+00 0.  1.
         21    1    1    2  502  501 -0.35215479254E+02 -0.38503437566E+02 -0.17029285694E+03  0.17810755685E+03  0.00000000000E+00 0. -1.
<scales pt_clust_5="13000.00000" pt_clust_6="13000.00000" pt_clust_7="13000.00000" pt_clust_8="13000.00000" pt_clust_9="52.17897"></scales>
<clustering>
<clus scale="   52.179">  2  9  1 -1</clus>
<clus scale="   90.894">  7  8 -1 -1</clus>
<clus scale="   90.922">  5  6 -1 -1</clus>
<clus scale="   99.385">  1  7  2 -1</clus>
<clus scale="   52.179">  2  5  1 -1</clus>
</clustering>
</event>
<event>
 9    1  0.1484717E-005  0.9313164E+02  0.7546771E-02  0.1296096E+00
          2   -1    0    0  502    0  0.00000000000E+00  0.00000000000E+00  0.38908686539E+02  0.38908686539E+02  0.00000000000E+00 0. -1.
         -2   -1    0    0    0  501 -0.00000000000E+00 -0.00000000000E+00 -0.62172969309E+03  0.62172969309E+03  0.00000000000E+00 0.  1.
         23    2    1    2    0    0 -0.87550235712E+01  0.66414460265E+02 -0.25402390520E+03  0.27772895073E+03  0.90098250206E+02 0.  0.
         23    2    1    2    0    0 -0.68621764684E+01 -0.18981261824E+01 -0.68604135121E+02  0.11438264443E+03  0.91247847334E+02 0.  0.
        -11    1    4    4    0    0 -0.44293617053E+02  0.17684549255E+02 -0.25722712102E+02  0.54187874215E+02  0.00000000000E+00 0. -1.
         11    1    4    4    0    0  0.37431440585E+02 -0.19582675438E+02 -0.42881423020E+02  0.60194770219E+02  0.00000000000E+00 0.  1.
        -11    1    3    3    0    0  0.81372547358E+01  0.85132211448E+02 -0.21363169594E+03  0.23011347169E+03  0.00000000000E+00 0.  1.
         11    1    3    3    0    0 -0.16892278307E+02 -0.18717751183E+02 -0.40392209263E+02  0.47615479047E+02  0.00000000000E+00 0. -1.
         21    1    1    2  502  501  0.15617200040E+02 -0.64516334082E+02 -0.26019296622E+03  0.26852678446E+03  0.00000000000E+00 0.  1.
<scales pt_clust_5="13000.00000" pt_clust_6="13000.00000" pt_clust_7="13000.00000" pt_clust_8="13000.00000" pt_clust_9="66.37962"></scales>
<clustering>
<clus scale="   66.380">  2  9  1 -1</clus>
<clus scale="   90.098">  7  8 -1 -1</clus>
<clus scale="   91.248">  5  6 -1 -1</clus>
<clus scale="   92.006">  2  7  1 -1</clus>
<clus scale="   93.132">  1  5  2 -1</clus>
</clustering>
</event>
<event>
 9    1  0.1484717E-005  0.1079573E+03  0.7546771E-02  0.1265321E+00
         -1   -1    0    0    0  501 -0.00000000000E+00  0.00000000000E+00  0.23281627498E+02  0.23281627498E+02  0.00000000000E+00 0.  1.
          1   -1    0    0  502    0  0.00000000000E+00 -0.00000000000E+00 -0.73602161460E+03  0.73602161460E+03  0.00000000000E+00 0. -1.
         23    2    1    2    0    0  0.73596909255E+02 -0.18567379888E+02 -0.28503600101E+03  0.30904563879E+03  0.92208634811E+02 0.  0.
         23    2    1    2    0    0 -0.39995922675E+02  0.22170976331E+02 -0.36872247055E+03  0.38228090596E+03  0.89951124254E+02 0.  0.
        -11    1    4    4    0    0 -0.47532280142E+02  0.51814357883E+02 -0.25911544700E+03  0.26848623841E+03  0.00000000000E+00 0.  1.
         11    1    4    4    0    0  0.75363574664E+01 -0.29643381553E+02 -0.10960702355E+03  0.11379466756E+03  0.00000000000E+00 0. -1.
        -13    1    3    3    0    0  0.44543239977E+02 -0.55404881123E+02 -0.14771869616E+03  0.16393478665E+03  0.00000000000E+00 0. -1.
         13    1    3    3    0    0  0.29053669279E+02  0.36837501235E+02 -0.13731730485E+03  0.14511085214E+03  0.00000000000E+00 0.  1.
         21    1    1    2  502  501 -0.33600986580E+02 -0.36035964426E+01 -0.58981515541E+02  0.67976697345E+02  0.00000000000E+00 0.  1.
<scales pt_clust_5="13000.00000" pt_clust_6="13000.00000" pt_clust_7="13000.00000" pt_clust_8="13000.00000" pt_clust_9="33.79367"></scales>
<clustering>
<clus scale="   33.794">  1  9  2 -1</clus>
<clus scale="   89.951">  5  6 -1 -1</clus>
<clus scale="   92.209">  7  8 -1 -1</clus>
<clus scale="  106.036">  2  5  1 -1</clus>
<clus scale="  106.036">  2  5  1 -1</clus>
</clustering>
</event>
<event>
 9    1  0.1484717E-005  0.9689816E+02  0.7546771E-02  0.1287214E+00
          2   -1    0    0  502    0  0.00000000000E+00  0.00000000000E+00  0.21474952889E+03  0.21474952889E+03  0.00000000000E+00 0.  1.
         -2   -1    0    0    0  501 -0.00000000000E+00 -0.00000000000E+00 -0.76818042799E+02  0.76818042799E+02  0.00000000000E+00 0. -1.
         23    2    1    2    0    0 -0.11780175217E+01 -0.11523619441E+02  0.59440829967E+02  0.11053403245E+03  0.92468256886E+02 0.  0.
         23    2    1    2    0    0 -0.67369726918E+01  0.43328920708E+02  0.99243991665E+02  0.14224017390E+03  0.91978883543E+02 0.  0.
        -11    1    4    4    0    0  0.41976435269E+02  0.26866209438E+02  0.40907331737E+02  0.64476539279E+02  0.00000000000E+00 0.  1.
         11    1    4    4    0    0 -0.48713407961E+02  0.16462711270E+02  0.58336659928E+02  0.77763634618E+02  0.00000000000E+00 0. -1.
        -13    1    3    3    0    0  0.45575491296E+02 -0.75654129597E+01  0.27332343342E+02  0.53678840084E+02  0.00000000000E+00 0.  1.
         13    1    3    3    0    0 -0.46753508818E+02 -0.39582064808E+01  0.32108486624E+02  0.56855192363E+02  0.00000000000E+00 0. -1.
         21    1    1    2  502  501  0.79149902134E+01 -0.31805301268E+02 -0.20753335540E+02  0.38793365346E+02  0.00000000000E+00 0. -1.
<scales pt_clust_5="13000.00000" pt_clust_6="13000.00000" pt_clust_7="13000.00000" pt_clust_8="13000.00000" pt_clust_9="32.77536"></scales>
<clustering>
<clus scale="   32.775">  2  9  1 -1</clus>
<clus scale="   91.979">  5  6 -1 -1</clus>
<clus scale="   92.468">  7  8 -1 -1</clus>
<clus scale="   96.431">  1  5  2 -1</clus>
<clus scale="   96.431">  1  5  2 -1</clus>
</clustering>
</event>
<event>
 9    1  0.1484717E-005  0.1285359E+03  0.7546771E-02  0.1231298E+00
          1   -1    0    0  502    0  0.00000000000E+00  0.00000000000E+00  0.23924222790E+03  0.23924222790E+03  0.00000000000E+00 0. -1.
         -1   -1    0    0    0  501 -0.00000000000E+00 -0.00000000000E+00 -0.98522249478E+02  0.98522249478E+02  0.00000000000E+00 0.  1.
         23    2    1    2    0    0 -0.42397150587E+02  0.64806951456E+02  0.16564241288E+02  0.12057584666E+03  0.90921402173E+02 0.  0.
         23    2    1    2    0    0  0.31869740475E+02 -0.82958996215E+02  0.13918201132E+03  0.19137948489E+03  0.96729517467E+02 0.  0.
        -11    1    4    4    0    0  0.37182399454E+02 -0.85235503058E+01  0.10013790142E+03  0.10715773905E+03  0.00000000000E+00 0. -1.
         11    1    4    4    0    0 -0.53126589792E+01 -0.74435445909E+02  0.39044109905E+02  0.84221745835E+02  0.00000000000E+00 0.  1.
        -13    1    3    3    0    0 -0.85055765460E+00  0.74338707094E+02  0.22179628081E+02  0.77581587522E+02  0.00000000000E+00 0. -1.
         13    1    3    3    0    0 -0.41546592932E+02 -0.95317556383E+01 -0.56153867931E+01  0.42994259136E+02  0.00000000000E+00 0.  1.
         21    1    1    2  502  501  0.10527410112E+02  0.18152044760E+02 -0.15026274186E+02  0.25809145832E+02  0.00000000000E+00 0.  1.
<scales pt_clust_5="13000.00000" pt_clust_6="13000.00000" pt_clust_7="13000.00000" pt_clust_8="13000.00000" pt_clust_9="20.98388"></scales>
<clustering>
<clus scale="   20.984">  2  9  1 -1</clus>
<clus scale="   90.921">  7  8 -1 -1</clus>
<clus scale="   96.730">  5  6 -1 -1</clus>
<clus scale="  124.224">  2  7  1 -1</clus>
<clus scale="  128.536">  1  5  2 -1</clus>
</clustering>
</event>
<event>
 9    1  0.1484717E-005  0.1069705E+03  0.7546771E-02  0.1267626E+00
          1   -1    0    0  502    0  0.00000000000E+00  0.00000000000E+00  0.29975176124E+03  0.29975176124E+03  0.00000000000E+00 0. -1.
         -1   -1    0    0    0  501 -0.00000000000E+00 -0.00000000000E+00 -0.54612597162E+02  0.54612597162E+02  0.00000000000E+00 0.  1.
         23    2    1    2    0    0 -0.20739461117E+02 -0.62183585661E+02  0.84794930535E+02  0.14138094429E+03  0.92203403355E+02 0.  0.
         23    2    1    2    0    0  0.38584685057E+02  0.32915942076E+02  0.13876642751E+03  0.17247849229E+03  0.88997032172E+02 0.  0.
        -11    1    4    4    0    0 -0.33246479433E+01 -0.28009298099E+02  0.32781371159E+02  0.43245720702E+02  0.00000000000E+00 0.  1.
         11    1    4    4    0    0  0.41909333000E+02  0.60925240175E+02  0.10598505635E+03  0.12923277159E+03  0.00000000000E+00 0. -1.
        -13    1    3    3    0    0 -0.52295511000E+02 -0.14540983949E+02  0.53562503323E+02  0.76257474697E+02  0.00000000000E+00 0.  1.
         13    1    3    3    0    0  0.31556049882E+02 -0.47642601712E+02  0.31232427211E+02  0.65123469591E+02  0.00000000000E+00 0. -1.
         21    1    1    2  502  501 -0.17845223939E+02  0.29267643585E+02  0.21577806026E+02  0.40504921816E+02  0.00000000000E+00 0.  1.
<scales pt_clust_5="13000.00000" pt_clust_6="13000.00000" pt_clust_7="13000.00000" pt_clust_8="13000.00000" pt_clust_9="34.27896"></scales>
<clustering>
<clus scale="   34.279">  2  9  1 -1</clus>
<clus scale="   88.997">  5  6 -1 -1</clus>
<clus scale="   92.203">  7  8 -1 -1</clus>
<clus scale="  104.219">  1  5  2 -1</clus>
<clus scale="  104.219">  1  5  2 -1</clus>
</clustering>
</event>
<event>
 9    1  0.1484717E-005  0.1252937E+03  0.7546771E-02  0.1239985E+00
          1   -1    0    0  502    0  0.00000000000E+00  0.00000000000E+00  0.11059493614E+03  0.11059493614E+03  0.00000000000E+00 0. -1.
         -1   -1    0    0    0  501 -0.00000000000E+00 -0.00000000000E+00 -0.26021049433E+03  0.26021049433E+03  0.00000000000E+00 0.  1.
         23    2    1    2    0    0 -0.52916569146E+02  0.10207143084E+02 -0.16964101443E+03  0.19893181570E+03  0.88833802479E+02 0.  0.
         23    2    1    2    0    0  0.72116621104E+02 -0.45989355145E+01  0.49223762725E+02  0.13648102954E+03  0.10479568389E+03 0.  0.
        -13    1    3    3    0    0  0.87871905910E+01  0.35405504305E+02 -0.71958440544E+02  0.80677020391E+02  0.00000000000E+00 0. -1.
         13    1    3    3    0    0 -0.61703759737E+02 -0.25198361221E+02 -0.97682573882E+02  0.11825479531E+03  0.00000000000E+00 0.  1.
        -13    1    4    4    0    0  0.38629138959E+02 -0.27406383507E+02 -0.23772047401E+02  0.52994626816E+02  0.00000000000E+00 0.  1.
         13    1    4    4    0    0  0.33487482144E+02  0.22807447993E+02  0.72995810126E+02  0.83486402727E+02  0.00000000000E+00 0. -1.
         21    1    1    2  502  501 -0.19200051958E+02 -0.56082075698E+01 -0.29198306492E+02  0.35392585231E+02  0.00000000000E+00 0.  1.
<scales pt_clust_5="13000.00000" pt_clust_6="13000.00000" pt_clust_7="13000.00000" pt_clust_8="13000.00000" pt_clust_9="20.00235"></scales>
<clustering>
<clus scale="   20.002">  2  9  1 -1</clus>
<clus scale="   88.834">  5  6 -1 -1</clus>
<clus scale="  104.796">  7  8 -1 -1</clus>
<clus scale="  112.285">  2  5  1 -1</clus>
<clus scale="  125.294">  1  5  2 -1</clus>
</clustering>
</event>
<event>
 9    1  0.1484717E-005  0.1259038E+03  0.7546771E-02  0.1235520E+00
         -1   -1    0    0    0  501 -0.00000000000E+00  0.00000000000E+00  0.17767636741E+03  0.17767636741E+03  0.00000000000E+00 0.  1.
          1   -1    0    0  502    0  0.00000000000E+00 -0.00000000000E+00 -0.25274248857E+03  0.25274248857E+03  0.00000000000E+00 0. -1.
         23    2    1    2    0    0 -0.48839761831E+02 -0.40182830805E+02  0.66680108619E+02  0.13404018539E+03  0.97573316979E+02 0.  0.
         23    2    1    2    0    0  0.76380769935E+02  0.32100502926E+02 -0.19795870044E+03  0.23326232556E+03  0.91428666967E+02 0.  0.
        -11    1    3    3    0    0 -0.31456526071E+02 -0.63504533162E+02  0.75593089707E+02  0.10361782654E+03  0.00000000000E+00 0.  1.
         11    1    3    3    0    0 -0.17383235760E+02  0.23321702357E+02 -0.89129810881E+01  0.30422358853E+02  0.00000000000E+00 0. -1.
        -11    1    4    4    0    0  0.39304027131E+02 -0.11162044295E+02 -0.18270540325E+02  0.44757238804E+02  0.00000000000E+00 0.  1.
         11    1    4    4    0    0  0.37076742805E+02  0.43262547221E+02 -0.17968816011E+03  0.18850508676E+03  0.00000000000E+00 0. -1.
         21    1    1    2  502  501 -0.27541008104E+02  0.80823278793E+01  0.56212470663E+02  0.63116345026E+02  0.00000000000E+00 0.  1.
<scales pt_clust_5="13000.00000" pt_clust_6="13000.00000" pt_clust_7="13000.00000" pt_clust_8="13000.00000" pt_clust_9="28.70246"></scales>
<clustering>
<clus scale="   28.702">  1  9  2 -1</clus>
<clus scale="   91.429">  7  8 -1 -1</clus>
<clus scale="   97.573">  5  6 -1 -1</clus>
<clus scale="  121.204">  2  7  1 -1</clus>
<clus scale="  121.204">  2  5  1 -1</clus>
</clustering>
</event>
<event>
 9    1  0.1484717E-005  0.1396087E+03  0.7546771E-02  0.1231602E+00
          1   -1    0    0  502    0  0.00000000000E+00  0.00000000000E+00  0.46034148167E+03  0.46034148167E+03  0.00000000000E+00 0. -1.
         -1   -1    0    0    0  501 -0.00000000000E+00 -0.00000000000E+00 -0.88967418513E+02  0.88967418513E+02  0.00000000000E+00 0.  1.
         23    2    1    2    0    0  0.88918566933E+02 -0.91958452638E+02  0.18013587833E+03  0.24027781511E+03  0.94454355216E+02 0.  0.
         23    2    1    2    0    0 -0.22216760011E+02  0.21693351922E+02  0.18898048891E+03  0.21212178409E+03  0.91202193805E+02 0.  0.
        -13    1    4    4    0    0  0.34344581749E+02 -0.10257603625E+01  0.53822157446E+02  0.63854734452E+02  0.00000000000E+00 0.  1.
         13    1    4    4    0    0 -0.56561341761E+02  0.22719112285E+02  0.13515833147E+03  0.14826704964E+03  0.00000000000E+00 0. -1.
        -13    1    3    3    0    0  0.22272212235E+02 -0.21663619423E+02  0.12503240860E+03  0.12883503811E+03  0.00000000000E+00 0. -1.
         13    1    3    3    0    0  0.66646354698E+02 -0.70294833215E+02  0.55103469728E+02  0.11144277701E+03  0.00000000000E+00 0.  1.
         21    1    1    2  502  501 -0.66701806921E+02  0.70265100716E+02  0.22576959225E+01  0.96909300978E+02  0.00000000000E+00 0. -1.
<scales pt_clust_5="13000.00000" pt_clust_6="13000.00000" pt_clust_7="13000.00000" pt_clust_8="13000.00000" pt_clust_9="102.80543"></scales>
<clustering>
<clus scale="   91.202">  5  6 -1 -1</clus>
<clus scale="   94.454">  7  8 -1 -1</clus>
<clus scale="   96.343">  1  5  2 -1</clus>
<clus scale="  102.805">  2  9  1 -1</clus>
<clus scale="   96.343">  1  5  2 -1</clus>
</clustering>
</event>
<event>
 9    1  0.1484717E-005  0.1927884E+03  0.7546771E-02  0.1156122E+00
          1   -1    0    0  502    0  0.00000000000E+00  0.00000000000E+00  0.81711572733E+03  0.81711572733E+03  0.00000000000E+00 0. -1.
         -1   -1    0    0    0  501 -0.00000000000E+00 -0.00000000000E+00 -0.15180316022E+03  0.15180316022E+03  0.00000000000E+00 0.  1.
         23    2    1    2    0    0  0.12005597235E+03  0.86514272951E+02 -0.65047818295E+02  0.18485757412E+03  0.89682485043E+02 0.  0.
         23    2    1    2    0    0 -0.13675325461E+03 -0.10451575553E+03  0.73385676693E+03  0.75926056156E+03  0.91136437170E+02 0.  0.
        -13    1    4    4    0    0 -0.89257088045E+02 -0.11016225253E+03  0.46333690880E+03  0.48454477678E+03  0.00000000000E+00 0. -1.
         13    1    4    4    0    0 -0.47496166560E+02  0.56464970089E+01  0.27051985812E+03  0.27471578478E+03  0.00000000000E+00 0.  1.
        -13    1    3    3    0    0  0.10275316045E+03  0.38200177978E+02 -0.74677249376E+02  0.13264296873E+03  0.00000000000E+00 0.  1.
         13    1    3    3    0    0  0.17302811897E+02  0.48314094973E+02  0.96294310810E+01  0.52214605385E+02  0.00000000000E+00 0. -1.
         21    1    1    2  502  501  0.16697282259E+02  0.18001482575E+02 -0.34963815112E+01  0.24800751872E+02  0.00000000000E+00 0.  1.
<scales pt_clust_5="13000.00000" pt_clust_6="13000.00000" pt_clust_7="13000.00000" pt_clust_8="13000.00000" pt_clust_9="24.55306"></scales>
<clustering>
<clus scale="   24.553">  2  9  1 -1</clus>
<clus scale="   89.682">  7  8 -1 -1</clus>
<clus scale="   91.136">  5  6 -1 -1</clus>
<clus scale="  192.105">  2  7  1 -1</clus>
<clus scale="  192.788">  1  5  2 -1</clus>
</clustering>
</event>
<event>
 9    1  0.1520229E-005  0.1016711E+03  0.7546771E-02  0.1281484E+00
          1   -1    0    0  502    0  0.00000000000E+00  0.00000000000E+00  0.21294523277E+03  0.21294523277E+03  0.00000000000E+00 0. -1.
         -1   -1    0    0    0  501 -0.00000000000E+00 -0.00000000000E+00 -0.94496355624E+02  0.94496355624E+02  0.00000000000E+00 0.  1.
         23    2    1    2    0    0 -0.16874453144E+02 -0.44756016747E+02 -0.31027557015E+02  0.10321696707E+03  0.86041761915E+02 0.  0.
         23    2    1    2    0    0  0.26311044497E+02  0.20969702682E+02  0.14715377022E+03  0.17852962646E+03  0.95323637890E+02 0.  0.
        -13    1    3    3    0    0 -0.35816152516E+02 -0.54345006956E+02  0.64259280003E+00  0.65089088853E+02  0.00000000000E+00 0.  1.
         13    1    3    3    0    0  0.18941699372E+02  0.95889902094E+01 -0.31670149815E+02  0.38127878221E+02  0.00000000000E+00 0. -1.
        -13    1    4    4    0    0  0.40142407146E+02  0.51109362630E+02  0.75797851207E+02  0.99844349102E+02  0.00000000000E+00 0. -1.
         13    1    4    4    0    0 -0.13831362649E+02 -0.30139659949E+02  0.71355919018E+02  0.78685277362E+02  0.00000000000E+00 0.  1.
         21    1    1    2  502  501 -0.94365913525E+01  0.23786314065E+02  0.23226639396E+01  0.25694994862E+02  0.00000000000E+00 0. -1.
<scales pt_clust_5="13000.00000" pt_clust_6="13000.00000" pt_clust_7="13000.00000" pt_clust_8="13000.00000" pt_clust_9="25.58980"></scales>
<clustering>
<clus scale="   25.590">  2  9  1 -1</clus>
<clus scale="   86.042">  5  6 -1 -1</clus>
<clus scale="   93.025">  2  5  1 -1</clus>
<clus scale="   95.324">  7  8 -1 -1</clus>
<clus scale="  101.671">  1  5  2 -1</clus>
</clustering>
</event>
<event>
 9    1  0.2458568E-005  0.9931947E+02  0.7546771E-02  0.1283790E+00
          4   -1    0    0  502    0  0.00000000000E+00  0.00000000000E+00  0.14745734937E+03  0.14745734937E+03  0.00000000000E+00 0. -1.
         -4   -1    0    0    0  501 -0.00000000000E+00 -0.00000000000E+00 -0.14543762395E+03  0.14543762395E+03  0.00000000000E+00 0.  1.
         23    2    1    2    0    0  0.29735871191E+02  0.14101027832E+02 -0.88579564193E+02  0.13191198723E+03  0.92040057373E+02 0.  0.
         23    2    1    2    0    0 -0.24526619567E+02  0.65356328018E+01  0.96961628760E+02  0.13876840925E+03  0.95973144111E+02 0.  0.
        -13    1    4    4    0    0 -0.58815049031E+02  0.18778753813E+02  0.50644514775E+02  0.79854357828E+02  0.00000000000E+00 0. -1.
         13    1    4    4    0    0  0.34288429463E+02 -0.12243121011E+02  0.46317113984E+02  0.58914051422E+02  0.00000000000E+00 0.  1.
        -13    1    3    3    0    0  0.21505211750E+02  0.46007450730E+02 -0.17758789601E+02  0.53800876044E+02  0.00000000000E+00 0. -1.
         13    1    3    3    0    0  0.82306594413E+01 -0.31906422898E+02 -0.70820774592E+02  0.78111111187E+02  0.00000000000E+00 0.  1.
         21    1    1    2  502  501 -0.52092516242E+01 -0.20636660633E+02 -0.63623391449E+01  0.22214576835E+02  0.00000000000E+00 0.  1.
<scales pt_clust_5="13000.00000" pt_clust_6="13000.00000" pt_clust_7="13000.00000" pt_clust_8="13000.00000" pt_clust_9="21.28399"></scales>
<clustering>
<clus scale="   21.284">  2  9  1 -1</clus>
<clus scale="   92.040">  7  8 -1 -1</clus>
<clus scale="   95.524">  2  7  1 -1</clus>
<clus scale="   95.973">  5  6 -1 -1</clus>
<clus scale="   99.319">  1  5  2 -1</clus>
</clustering>
</event>
<event>
 9    1  0.1484717E-005  0.1376689E+03  0.7546771E-02  0.1217101E+00
         -1   -1    0    0    0  501 -0.00000000000E+00  0.00000000000E+00  0.56079012206E+02  0.56079012206E+02  0.00000000000E+00 0.  1.
          1   -1    0    0  502    0  0.00000000000E+00 -0.00000000000E+00 -0.40737159553E+03  0.40737159553E+03  0.00000000000E+00 0. -1.
         23    2    1    2    0    0  0.93369613055E+02  0.50106162532E+02 -0.16717230225E+03  0.21818724285E+03  0.91818201551E+02 0.  0.
         23    2    1    2    0    0 -0.93398367627E+02 -0.22789013089E+02 -0.15282803859E+03  0.20372504619E+03  0.94365729339E+02 0.  0.
        -11    1    3    3    0    0  0.89453998616E+02  0.73722900371E+02 -0.13243937356E+03  0.17600361239E+03  0.00000000000E+00 0.  1.
         11    1    3    3    0    0  0.39156144387E+01 -0.23616737839E+02 -0.34732928696E+02  0.42183630455E+02  0.00000000000E+00 0. -1.
        -11    1    4    4    0    0 -0.22121356298E+02  0.19300471429E+02  0.63120438846E+00  0.29364281378E+02  0.00000000000E+00 0.  1.
         11    1    4    4    0    0 -0.71277011328E+02 -0.42089484518E+02 -0.15345924298E+03  0.17436076481E+03  0.00000000000E+00 0. -1.
         21    1    1    2  502  501  0.28754571703E-01 -0.27317149443E+02 -0.31292242480E+02  0.41538318695E+02  0.00000000000E+00 0. -1.
<scales pt_clust_5="13000.00000" pt_clust_6="13000.00000" pt_clust_7="13000.00000" pt_clust_8="13000.00000" pt_clust_9="27.31716"></scales>
<clustering>
<clus scale="   27.317">  1  9  2 -1</clus>
<clus scale="   91.818">  5  6 -1 -1</clus>
<clus scale="   94.366">  7  8 -1 -1</clus>
<clus scale="  135.935">  1  5  2 -1</clus>
<clus scale="  137.669">  2  5  1 -1</clus>
</clustering>
</event>
<event>
 9    1  0.1484717E-005  0.9907989E+02  0.7546771E-02  0.1291926E+00
          4   -1    0    0  502    0  0.00000000000E+00  0.00000000000E+00  0.25442986323E+02  0.25442986323E+02  0.00000000000E+00 0. -1.
         -4   -1    0    0    0  501 -0.00000000000E+00 -0.00000000000E+00 -0.49076003996E+03  0.49076003996E+03  0.00000000000E+00 0.  1.
         23    2    1    2    0    0 -0.87495483065E+01 -0.42647041708E+02 -0.17860282211E+03  0.19790467182E+03  0.73293698894E+02 0.  0.
         23    2    1    2    0    0  0.27684542410E+02  0.24572450645E+02 -0.15316497299E+03  0.18220783570E+03  0.91487415638E+02 0.  0.
        -13    1    3    3    0    0  0.28493329890E+02 -0.88229295145E+01 -0.36375094863E+02  0.47041061422E+02  0.00000000000E+00 0.  1.
         13    1    3    3    0    0 -0.37242878197E+02 -0.33824112194E+02 -0.14222772725E+03  0.15086361039E+03  0.00000000000E+00 0. -1.
        -13    1    4    4    0    0  0.77456143933E+00  0.38847102182E+02 -0.16540958212E+02  0.42229143869E+02  0.00000000000E+00 0. -1.
         13    1    4    4    0    0  0.26909980971E+02 -0.14274651537E+02 -0.13662401478E+03  0.13997869183E+03  0.00000000000E+00 0.  1.
         21    1    1    2  502  501 -0.18934994104E+02  0.18074591063E+02 -0.13354925853E+03  0.13609051877E+03  0.00000000000E+00 0.  1.
<scales pt_clust_5="13000.00000" pt_clust_6="13000.00000" pt_clust_7="13000.00000" pt_clust_8="13000.00000" pt_clust_9="26.17680"></scales>
<clustering>
<clus scale="   26.177">  2  9  1 -1</clus>
<clus scale="   73.294">  5  6 -1 -1</clus>
<clus scale="   82.576">  2  5  1 -1</clus>
<clus scale="   91.487">  7  8 -1 -1</clus>
<clus scale="   99.080">  1  5  2 -1</clus>
</clustering>
</event>
<event>
 9    1  0.1484717E-005  0.1095656E+03  0.7546771E-02  0.1261791E+00
          1   -1    0    0  502    0  0.00000000000E+00  0.00000000000E+00  0.75817715623E+03  0.75817715623E+03  0.00000000000E+00 0. -1.
         -1   -1    0    0    0  501 -0.00000000000E+00 -0.00000000000E+00 -0.43523959236E+02  0.43523959236E+02  0.00000000000E+00 0.  1.
         23    2    1    2    0    0  0.68373537065E+02  0.14107224923E+02  0.25601624376E+03  0.28050386181E+03  0.90907343242E+02 0.  0.
         23    2    1    2    0    0 -0.55245228014E+02  0.46519561206E+01  0.47879623612E+03  0.49069059768E+03  0.91966031865E+02 0.  0.
        -13    1    4    4    0    0  0.76052114227E+01 -0.32606073488E+02  0.12338533015E+03  0.12784731114E+03  0.00000000000E+00 0. -1.
         13    1    4    4    0    0 -0.62850439436E+02  0.37258029608E+02  0.35541090597E+03  0.36284328654E+03  0.00000000000E+00 0.  1.
        -13    1    3    3    0    0  0.19369346100E+01  0.24959560284E+02  0.12748101660E+02  0.28093512795E+02  0.00000000000E+00 0.  1.
         13    1    3    3    0    0  0.66436602455E+02 -0.10852335361E+02  0.24326814210E+03  0.25241034902E+03  0.00000000000E+00 0. -1.
         21    1    1    2  502  501 -0.13128309052E+02 -0.18759181044E+02 -0.20159282888E+02  0.30506655971E+02  0.00000000000E+00 0.  1.
<scales pt_clust_5="13000.00000" pt_clust_6="13000.00000" pt_clust_7="13000.00000" pt_clust_8="13000.00000" pt_clust_9="22.89671"></scales>
<clustering>
<clus scale="   22.897">  2  9  1 -1</clus>
<clus scale="   90.907">  7  8 -1 -1</clus>
<clus scale="   91.966">  5  6 -1 -1</clus>
<clus scale="  108.679">  2  7  1 -1</clus>
<clus scale="  109.566">  1  5  2 -1</clus>
</clustering>
</event>
<event>
 9    1  0.1484717E-005  0.9713704E+02  0.7546771E-02  0.1286675E+00
          2   -1    0    0  502    0  0.00000000000E+00  0.00000000000E+00  0.55768251575E+02  0.55768251575E+02  0.00000000000E+00 0. -1.
         -2   -1    0    0    0  501 -0.00000000000E+00 -0.00000000000E+00 -0.40115478302E+03  0.40115478302E+03  0.00000000000E+00 0.  1.
         23    2    1    2    0    0  0.43081694419E+01 -0.95566632855E+01 -0.92753729681E+02  0.12991318439E+03  0.90356466133E+02 0.  0.
         23    2    1    2    0    0 -0.57444728058E+02 -0.15749748116E+01 -0.52447393063E+02  0.11959334873E+03  0.90826552797E+02 0.  0.
        -13    1    3    3    0    0  0.17194517460E+02 -0.36145480936E+02 -0.92029613950E+02  0.10035734685E+03  0.00000000000E+00 0.  1.
         13    1    3    3    0    0 -0.12886348018E+02  0.26588817650E+02 -0.72411573102E+00  0.29555837543E+02  0.00000000000E+00 0. -1.
        -13    1    4    4    0    0 -0.38470716220E+02  0.20123819763E+02 -0.72481904069E+02  0.84490180173E+02  0.00000000000E+00 0.  1.
         13    1    4    4    0    0 -0.18974011838E+02 -0.21698794574E+02  0.20034511005E+02  0.35103168553E+02  0.00000000000E+00 0. -1.
         21    1    1    2  502  501  0.53136558616E+02  0.11131638097E+02 -0.20018540870E+03  0.20741650148E+03  0.00000000000E+00 0.  1.
<scales pt_clust_5="13000.00000" pt_clust_6="13000.00000" pt_clust_7="13000.00000" pt_clust_8="13000.00000" pt_clust_9="54.29003"></scales>
<clustering>
<clus scale="   54.290">  2  9  1 -1</clus>
<clus scale="   90.356">  5  6 -1 -1</clus>
<clus scale="   90.827">  7  8 -1 -1</clus>
<clus scale="   96.698">  2  5  1 -1</clus>
<clus scale="   97.137">  1  5  2 -1</clus>
</clustering>
</event>
<event>
 9    1  0.1484717E-005  0.1163255E+03  0.7546771E-02  0.1249960E+00
         -1   -1    0    0    0  501 -0.00000000000E+00  0.00000000000E+00  0.27885728687E+02  0.27885728687E+02  0.00000000000E+00 0.  1.
          1   -1    0    0  502    0  0.00000000000E+00 -0.00000000000E+00 -0.62155544739E+03  0.62155544739E+03  0.00000000000E+00 0. -1.
         23    2    1    2    0    0  0.64789134973E+02 -0.46162293994E+02 -0.26274258871E+03  0.28996926364E+03  0.93380493353E+02 0.  0.
         23    2    1    2    0    0 -0.44305359456E+02  0.44307423617E+02 -0.31348765120E+03  0.33250598904E+03  0.91430917265E+02 0.  0.
        -13    1    4    4    0    0 -0.51941095826E+02  0.12434228692E+02 -0.28214874117E+03  0.28715918865E+03  0.00000000000E+00 0.  1.
         13    1    4    4    0    0  0.76357363699E+01  0.31873194925E+02 -0.31338910025E+02  0.45346800396E+02  0.00000000000E+00 0. -1.
        -13    1    3    3    0    0  0.53148448234E+02 -0.20077967130E+02 -0.25373616331E+03  0.26001908177E+03  0.00000000000E+00 0. -1.
         13    1    3    3    0    0  0.11640686739E+02 -0.26084326864E+02 -0.90064253986E+01  0.29950181872E+02  0.00000000000E+00 0.  1.
         21    1    1    2  502  501 -0.20483775518E+02  0.18548703771E+01 -0.17439478793E+02  0.26965923388E+02  0.00000000000E+00 0. -1.
<scales pt_clust_5="13000.00000" pt_clust_6="13000.00000" pt_clust_7="13000.00000" pt_clust_8="13000.00000" pt_clust_9="20.56759"></scales>
<clustering>
<clus scale="   20.568">  1  9  2 -1</clus>
<clus scale="   91.431">  5  6 -1 -1</clus>
<clus scale="   93.380">  7  8 -1 -1</clus>
<clus scale="  114.766">  2  5  1 -1</clus>
<clus scale="  114.766">  2  5  1 -1</clus>
</clustering>
</event>
<event>
 9    1  0.1484717E-005  0.1500712E+03  0.7546771E-02  0.1200561E+00
         -2   -1    0    0    0  501 -0.00000000000E+00  0.00000000000E+00  0.60731730826E+02  0.60731730826E+02  0.00000000000E+00 0.  1.
          2   -1    0    0  502    0  0.00000000000E+00 -0.00000000000E+00 -0.62384552689E+03  0.62384552689E+03  0.00000000000E+00 0. -1.
         23    2    1    2    0    0 -0.55769250014E+02  0.84343180694E+02 -0.14131002818E+03  0.19691083908E+03  0.92635701029E+02 0.  0.
         23    2    1    2    0    0  0.12134366791E+03 -0.59413812680E+02 -0.35517585276E+03  0.39091541480E+03  0.91709804604E+02 0.  0.
        -11    1    4    4    0    0  0.44790104078E+01 -0.29622803956E+02 -0.23758388570E+02  0.38236541108E+02  0.00000000000E+00 0.  1.
         11    1    4    4    0    0  0.11686465750E+03 -0.29791008723E+02 -0.33141746419E+03  0.35267887369E+03  0.00000000000E+00 0. -1.
        -11    1    3    3    0    0 -0.38716391114E+02  0.47210550350E+02 -0.14354332349E+03  0.15598871986E+03  0.00000000000E+00 0.  1.
         11    1    3    3    0    0 -0.17052858901E+02  0.37132630344E+02  0.22332953137E+01  0.40922119213E+02  0.00000000000E+00 0. -1.
         21    1    1    2  502  501 -0.65574417893E+02 -0.24929368014E+02 -0.66627915125E+02  0.96751003847E+02  0.00000000000E+00 0.  1.
<scales pt_clust_5="13000.00000" pt_clust_6="13000.00000" pt_clust_7="13000.00000" pt_clust_8="13000.00000" pt_clust_9="70.15324"></scales>
<clustering>
<clus scale="   70.153">  1  9  2 -1</clus>
<clus scale="   91.710">  5  6 -1 -1</clus>
<clus scale="   92.636">  7  8 -1 -1</clus>
<clus scale="  149.501">  2  5  1 -1</clus>
<clus scale="  149.501">  2  5  1 -1</clus>
</clustering>
</event>
<event>
 9    1  0.1484717E-005  0.1220183E+03  0.7546771E-02  0.1240871E+00
          1   -1    0    0  502    0  0.00000000000E+00  0.00000000000E+00  0.53697580542E+02  0.53697580542E+02  0.00000000000E+00 0. -1.
         -1   -1    0    0    0  501 -0.00000000000E+00 -0.00000000000E+00 -0.54283616416E+03  0.54283616416E+03  0.00000000000E+00 0.  1.
         23    2    1    2    0    0 -0.27623910070E+01  0.66121355369E+02 -0.31014728792E+03  0.33051661623E+03  0.93114064228E+02 0.  0.
         23    2    1    2    0    0 -0.16833171386E+02 -0.75812765658E+02 -0.47342360264E+02  0.13256544546E+03  0.96443595740E+02 0.  0.
        -13    1    3    3    0    0 -0.29970042654E+02  0.47871689910E+02 -0.28114614932E+03  0.28676307194E+03  0.00000000000E+00 0.  1.
         13    1    3    3    0    0  0.27207651647E+02  0.18249665459E+02 -0.29001138604E+02  0.43753544289E+02  0.00000000000E+00 0. -1.
        -13    1    4    4    0    0  0.28548695924E+02 -0.37116345481E+02 -0.55227261293E+02  0.72406501992E+02  0.00000000000E+00 0.  1.
         13    1    4    4    0    0 -0.45381867310E+02 -0.38696420177E+02  0.78849010287E+01  0.60158943469E+02  0.00000000000E+00 0. -1.
         21    1    1    2  502  501  0.19595562393E+02  0.96914102885E+01 -0.13164893543E+03  0.13345168302E+03  0.00000000000E+00 0.  1.
<scales pt_clust_5="13000.00000" pt_clust_6="13000.00000" pt_clust_7="13000.00000" pt_clust_8="13000.00000" pt_clust_9="21.86114"></scales>
<clustering>
<clus scale="   21.861">  2  9  1 -1</clus>
<clus scale="   93.114">  5  6 -1 -1</clus>
<clus scale="   96.444">  7  8 -1 -1</clus>
<clus scale="  119.404">  2  5  1 -1</clus>
<clus scale="  122.018">  1  5  2 -1</clus>
</clustering>
</event>
<event>
 9    1  0.1484717E-005  0.1551691E+03  0.7546771E-02  0.1194888E+00
         -2   -1    0    0    0  501 -0.00000000000E+00  0.00000000000E+00  0.72095195265E+02  0.72095195265E+02  0.00000000000E+00 0.  1.
          2   -1    0    0  502    0  0.00000000000E+00 -0.00000000000E+00 -0.87083424468E+03  0.87083424468E+03  0.00000000000E+00 0. -1.
         23    2    1    2    0    0 -0.56816158778E+02  0.95573907361E+02 -0.25749881820E+03  0.29450396761E+03  0.89802549495E+02 0.  0.
         23    2    1    2    0    0  0.70998316547E+02 -0.11072529125E+03 -0.58132453120E+03  0.60328736052E+03  0.93362614135E+02 0.  0.
        -11    1    3    3    0    0  0.16295740277E+01  0.25154491596E+02 -0.46879454740E+01  0.25639438210E+02  0.00000000000E+00 0.  1.
         11    1    3    3    0    0 -0.58445732805E+02  0.70419415765E+02 -0.25281087272E+03  0.26886452940E+03  0.00000000000E+00 0. -1.
        -13    1    4    4    0    0  0.32781252855E+02  0.84952724739E+01 -0.87084495717E+02  0.93437088929E+02  0.00000000000E+00 0.  1.
         13    1    4    4    0    0  0.38217063692E+02 -0.11922056372E+03 -0.49424003548E+03  0.50985027160E+03  0.00000000000E+00 0. -1.
         21    1    1    2  502  501 -0.14182157769E+02  0.15151383884E+02  0.40084299987E+02  0.45138111813E+02  0.00000000000E+00 0.  1.
<scales pt_clust_5="13000.00000" pt_clust_6="13000.00000" pt_clust_7="13000.00000" pt_clust_8="13000.00000" pt_clust_9="20.75327"></scales>
<clustering>
<clus scale="   20.753">  1  9  2 -1</clus>
<clus scale="   89.803">  5  6 -1 -1</clus>
<clus scale="   93.363">  7  8 -1 -1</clus>
<clus scale="  153.053">  1  5  2 -1</clus>
<clus scale="  155.169">  2  5  1 -1</clus>
</clustering>
</event>
<event>
 9    1  0.1484717E-005  0.1130826E+03  0.7546771E-02  0.1255201E+00
         -2   -1    0    0    0  501 -0.00000000000E+00  0.00000000000E+00  0.19476052041E+02  0.19476052041E+02  0.00000000000E+00 0.  1.
          2   -1    0    0  502    0  0.00000000000E+00 -0.00000000000E+00 -0.87163380505E+03  0.87163380505E+03  0.00000000000E+00 0. -1.
         23    2    1    2    0    0 -0.55048289930E+00 -0.71833767067E+02 -0.36308108883E+03  0.38124869110E+03  0.91445580947E+02 0.  0.
         23    2    1    2    0    0  0.22257347917E+02  0.60337107981E+02 -0.45120789117E+03  0.46472354168E+03  0.90793463452E+02 0.  0.
        -13    1    3    3    0    0  0.32046542170E+02 -0.48063168754E+02 -0.30566598483E+03  0.31107674831E+03  0.00000000000E+00 0. -1.
         13    1    3    3    0    0 -0.32597025069E+02 -0.23770598313E+02 -0.57415104002E+02  0.70171942791E+02  0.00000000000E+00 0.  1.
        -13    1    4    4    0    0 -0.33283423696E+02  0.38057671899E+02 -0.23568307519E+03  0.24104498462E+03  0.00000000000E+00 0.  1.
         13    1    4    4    0    0  0.55540771613E+02  0.22279436083E+02 -0.21552481599E+03  0.22367855706E+03  0.00000000000E+00 0. -1.
         21    1    1    2  502  501 -0.21706865018E+02  0.11496659086E+02 -0.37868773007E+02  0.45137624307E+02  0.00000000000E+00 0.  1.
<scales pt_clust_5="13000.00000" pt_clust_6="13000.00000" pt_clust_7="13000.00000" pt_clust_8="13000.00000" pt_clust_9="24.56341"></scales>
<clustering>
<clus scale="   24.563">  1  9  2 -1</clus>
<clus scale="   90.793">  7  8 -1 -1</clus>
<clus scale="   91.446">  5  6 -1 -1</clus>
<clus scale="  112.556">  2  7  1 -1</clus>
<clus scale="  112.556">  2  5  1 -1</clus>
</clustering>
</event>
<event>
 9    1  0.1484717E-005  0.1034165E+03  0.7546771E-02  0.1274329E+00
          1   -1    0    0  502    0  0.00000000000E+00  0.00000000000E+00  0.52662761588E+03  0.52662761588E+03  0.00000000000E+00 0. -1.
         -1   -1    0    0    0  501 -0.00000000000E+00 -0.00000000000E+00 -0.52893942110E+02  0.52893942110E+02  0.00000000000E+00 0.  1.
         23    2    1    2    0    0  0.28532508729E+01 -0.40695437265E+02  0.48361504735E+02  0.11052795513E+03  0.90627446557E+02 0.  0.
         23    2    1    2    0    0  0.27306123433E+02  0.39283641808E+02  0.42615622265E+03  0.43879102408E+03  0.92949490696E+02 0.  0.
        -11    1    3    3    0    0  0.28127851446E+02 -0.57953397877E+02  0.16818695942E+02  0.66578081120E+02  0.00000000000E+00 0.  1.
         11    1    3    3    0    0 -0.25274600573E+02  0.17257960612E+02  0.31542808792E+02  0.43949874006E+02  0.00000000000E+00 0. -1.
        -13    1    4    4    0    0 -0.12648717681E+02  0.57411043031E+02  0.20196959039E+03  0.21035145201E+03  0.00000000000E+00 0.  1.
         13    1    4    4    0    0  0.39954841114E+02 -0.18127401224E+02  0.22418663226E+03  0.22843957207E+03  0.00000000000E+00 0. -1.
         21    1    1    2  502  501 -0.30159374306E+02  0.14117954574E+01 -0.78405361600E+00  0.30202578781E+02  0.00000000000E+00 0.  1.
<scales pt_clust_5="13000.00000" pt_clust_6="13000.00000" pt_clust_7="13000.00000" pt_clust_8="13000.00000" pt_clust_9="30.19240"></scales>
<clustering>
<clus scale="   30.192">  2  9  1 -1</clus>
<clus scale="   90.627">  5  6 -1 -1</clus>
<clus scale="   92.949">  7  8 -1 -1</clus>
<clus scale="  101.335">  2  5  1 -1</clus>
<clus scale="  103.416">  1  5  2 -1</clus>
</clustering>
</event>
<event>
 9    1  0.1484717E-005  0.1103037E+03  0.7546771E-02  0.1264067E+00
          3   -1    0    0  502    0  0.00000000000E+00  0.00000000000E+00  0.21440596110E+03  0.21440596110E+03  0.00000000000E+00 0. -1.
         -3   -1    0    0    0  501 -0.00000000000E+00 -0.00000000000E+00 -0.11187224738E+03  0.11187224738E+03  0.00000000000E+00 0.  1.
         23    2    1    2    0    0 -0.12154990391E+02  0.45234611007E+01 -0.10644362289E+02  0.10337295206E+03  0.10200225134E+03 0.  0.
         23    2    1    2    0    0  0.50987116677E+02 -0.43469995864E+01  0.14008293897E+03  0.17566293618E+03  0.92820552070E+02 0.  0.
        -11    1    3    3    0    0  0.78734343276E+01 -0.46913819334E+02 -0.32491438640E+01  0.47680754488E+02  0.00000000000E+00 0.  1.
         11    1    3    3    0    0 -0.20028424718E+02  0.51437280435E+02 -0.73952184247E+01  0.55692197576E+02  0.00000000000E+00 0. -1.
        -13    1    4    4    0    0 -0.15930669487E+02 -0.25082423323E+02  0.72363110214E+02  0.78226171515E+02  0.00000000000E+00 0.  1.
         13    1    4    4    0    0  0.66917786164E+02  0.20735423737E+02  0.67719828752E+02  0.97436764668E+02  0.00000000000E+00 0. -1.
         21    1    1    2  502  501 -0.38832126287E+02 -0.17646151434E+00 -0.26904862953E+02  0.47242320234E+02  0.00000000000E+00 0.  1.
<scales pt_clust_5="13000.00000" pt_clust_6="13000.00000" pt_clust_7="13000.00000" pt_clust_8="13000.00000" pt_clust_9="38.83253"></scales>
<clustering>
<clus scale="   38.833">  2  9  1 -1</clus>
<clus scale="   92.821">  7  8 -1 -1</clus>
<clus scale="  101.873">  1  7  2 -1</clus>
<clus scale="  102.002">  5  6 -1 -1</clus>
<clus scale="  101.873">  1  5  2 -1</clus>
</clustering>
</event>
<event>
 9    1  0.1484717E-005  0.1126518E+03  0.7546771E-02  0.1255943E+00
          1   -1    0    0  502    0  0.00000000000E+00  0.00000000000E+00  0.86163820346E+02  0.86163820346E+02  0.00000000000E+00 0. -1.
         -1   -1    0    0    0  501 -0.00000000000E+00 -0.00000000000E+00 -0.24021133438E+03  0.24021133438E+03  0.00000000000E+00 0.  1.
         23    2    1    2    0    0  0.10916994177E+02 -0.58667634047E+02 -0.49453062732E+02  0.11920343169E+03  0.90569203743E+02 0.  0.
         23    2    1    2    0    0  0.56825802799E+01  0.72240924892E+02 -0.17825006621E+02  0.11779210217E+03  0.91138386666E+02 0.  0.
        -11    1    3    3    0    0  0.38433705149E+02 -0.55363467038E+02 -0.59321246701E+02  0.89784594916E+02  0.00000000000E+00 0.  1.
         11    1    3    3    0    0 -0.27516710972E+02 -0.33041670084E+01  0.98681839690E+01  0.29418836775E+02  0.00000000000E+00 0. -1.
        -13    1    4    4    0    0 -0.30387724444E+02  0.52833822324E+02  0.17812659089E+02  0.63498955913E+02  0.00000000000E+00 0.  1.
         13    1    4    4    0    0  0.36070304724E+02  0.19407102568E+02 -0.35637665710E+02  0.54293146254E+02  0.00000000000E+00 0. -1.
         21    1    1    2  502  501 -0.16599574457E+02 -0.13573290845E+02 -0.86769444682E+02  0.89379620871E+02  0.00000000000E+00 0.  1.
<scales pt_clust_5="13000.00000" pt_clust_6="13000.00000" pt_clust_7="13000.00000" pt_clust_8="13000.00000" pt_clust_9="21.44248"></scales>
<clustering>
<clus scale="   21.442">  2  9  1 -1</clus>
<clus scale="   90.569">  5  6 -1 -1</clus>
<clus scale="   91.138">  7  8 -1 -1</clus>
<clus scale="  112.192">  2  5  1 -1</clus>
<clus scale="  112.652">  1  5  2 -1</clus>
</clustering>
</event>
<event>
 9    1  0.1484717E-005  0.2094830E+03  0.7546771E-02  0.1142313E+00
          1   -1    0    0  502    0  0.00000000000E+00  0.00000000000E+00  0.19419278336E+03  0.19419278336E+03  0.00000000000E+00 0. -1.
         -1   -1    0    0    0  501 -0.00000000000E+00 -0.00000000000E+00 -0.39042625800E+03  0.39042625800E+03  0.00000000000E+00 0.  1.
         23    2    1    2    0    0 -0.21566956103E+02  0.17187407159E+03 -0.32420061721E+02  0.19671922488E+03  0.87416033747E+02 0.  0.
         23    2    1    2    0    0  0.44799470833E+02 -0.19913109373E+03 -0.35129608505E+01  0.22364717593E+03  0.91353890606E+02 0.  0.
        -11    1    4    4    0    0  0.59146628073E+02 -0.16505698287E+03  0.24800473399E+02  0.17707962810E+03  0.00000000000E+00 0. -1.
         11    1    4    4    0    0 -0.14347157240E+02 -0.34074110864E+02 -0.28313434249E+02  0.46567547831E+02  0.00000000000E+00 0.  1.
        -11    1    3    3    0    0 -0.42676662612E+01  0.30472519255E+02  0.28353589384E+02  0.41841527649E+02  0.00000000000E+00 0.  1.
         11    1    3    3    0    0 -0.17299289842E+02  0.14140155233E+03 -0.60773651105E+02  0.15487769723E+03  0.00000000000E+00 0. -1.
         21    1    1    2  502  501 -0.23232514730E+02  0.27257022144E+02 -0.16030045206E+03  0.16425264055E+03  0.00000000000E+00 0.  1.
<scales pt_clust_5="13000.00000" pt_clust_6="13000.00000" pt_clust_7="13000.00000" pt_clust_8="13000.00000" pt_clust_9="35.81473"></scales>
<clustering>
<clus scale="   35.815">  2  9  1 -1</clus>
<clus scale="   87.416">  7  8 -1 -1</clus>
<clus scale="   91.354">  5  6 -1 -1</clus>
<clus scale="  207.796">  2  7  1 -1</clus>
<clus scale="  209.483">  1  5  2 -1</clus>
</clustering>
</event>
<event>
 9    1  0.1484717E-005  0.1317150E+03  0.7546771E-02  0.1226433E+00
         -1   -1    0    0    0  501 -0.00000000000E+00  0.00000000000E+00  0.50636479836E+03  0.50636479836E+03  0.00000000000E+00 0.  1.
          1   -1    0    0  502    0  0.00000000000E+00 -0.00000000000E+00 -0.65848776705E+02  0.65848776705E+02  0.00000000000E+00 0. -1.
         23    2    1    2    0    0  0.20594211601E+02 -0.11425680070E+03  0.22089650875E+03  0.26597959967E+03  0.92038805967E+02 0.  0.
         23    2    1    2    0    0  0.43992807438E+02  0.80441904662E+02  0.81051547903E+02  0.14965807959E+03  0.86150567253E+02 0.  0.
        -13    1    3    3    0    0  0.46229399458E+02 -0.71113261604E+02  0.80716616842E+02  0.11708725629E+03  0.00000000000E+00 0. -1.
         13    1    3    3    0    0 -0.25635187857E+02 -0.43143539094E+02  0.14017989191E+03  0.14889234338E+03  0.00000000000E+00 0.  1.
        -13    1    4    4    0    0 -0.14002379321E+02  0.61462724603E+02  0.53604895769E+02  0.82747918359E+02  0.00000000000E+00 0.  1.
         13    1    4    4    0    0  0.57995186759E+02  0.18979180059E+02  0.27446652134E+02  0.66910161234E+02  0.00000000000E+00 0. -1.
         21    1    1    2  502  501 -0.64587019039E+02  0.33814896036E+02  0.13856796500E+03  0.15657589580E+03  0.00000000000E+00 0. -1.
<scales pt_clust_5="13000.00000" pt_clust_6="13000.00000" pt_clust_7="13000.00000" pt_clust_8="13000.00000" pt_clust_9="72.90357"></scales>
<clustering>
<clus scale="   72.904">  1  9  2 -1</clus>
<clus scale="   86.151">  7  8 -1 -1</clus>
<clus scale="   92.039">  5  6 -1 -1</clus>
<clus scale="  127.670">  2  7  1 -1</clus>
<clus scale="  127.670">  2  5  1 -1</clus>
</clustering>
</event>
<event>
 9    1  0.1484717E-005  0.1016250E+03  0.7546771E-02  0.1277510E+00
          1   -1    0    0  502    0  0.00000000000E+00  0.00000000000E+00  0.16764709546E+03  0.16764709546E+03  0.00000000000E+00 0. -1.
         -1   -1    0    0    0  501 -0.00000000000E+00 -0.00000000000E+00 -0.38710211803E+03  0.38710211803E+03  0.00000000000E+00 0.  1.
         23    2    1    2    0    0 -0.48454188804E+02 -0.11997102715E+02 -0.32767185804E+03  0.34424794364E+03  0.92984199014E+02 0.  0.
         23    2    1    2    0    0 -0.17060443149E+02  0.34529664469E-01  0.12847494787E+02  0.94180242965E+02  0.91726768884E+02 0.  0.
        -13    1    3    3    0    0 -0.67745655105E+02  0.13887059601E+02 -0.17434207522E+03  0.18755661386E+03  0.00000000000E+00 0.  1.
         13    1    3    3    0    0  0.19291466300E+02 -0.25884162316E+02 -0.15332978282E+03  0.15669132979E+03  0.00000000000E+00 0. -1.
        -13    1    4    4    0    0 -0.47917527514E+02  0.24444174315E+02  0.10166113339E+02  0.54744469688E+02  0.00000000000E+00 0.  1.
         13    1    4    4    0    0  0.30857084365E+02 -0.24409644650E+02  0.26813814474E+01  0.39435773277E+02  0.00000000000E+00 0. -1.
         21    1    1    2  502  501  0.65514631954E+02  0.11962573051E+02  0.95369340680E+02  0.11632102689E+03  0.00000000000E+00 0. -1.
<scales pt_clust_5="13000.00000" pt_clust_6="13000.00000" pt_clust_7="13000.00000" pt_clust_8="13000.00000" pt_clust_9="66.59782"></scales>
<clustering>
<clus scale="   66.598">  1  9  2 -1</clus>
<clus scale="   91.727">  7  8 -1 -1</clus>
<clus scale="   92.984">  5  6 -1 -1</clus>
<clus scale="  100.476">  1  7  2 -1</clus>
<clus scale="   66.598">  1  5  2 -1</clus>
</clustering>
</event>
<event>
 9    1  0.1484717E-005  0.9638532E+02  0.7546771E-02  0.1289732E+00
          2   -1    0    0  502    0  0.00000000000E+00  0.00000000000E+00  0.30084052830E+03  0.30084052830E+03  0.00000000000E+00 0. -1.
         -2   -1    0    0    0  501 -0.00000000000E+00 -0.00000000000E+00 -0.60759237396E+02  0.60759237396E+02  0.00000000000E+00 0.  1.
         23    2    1    2    0    0 -0.24557607596E+02  0.26659406510E+02  0.28354171671E+02  0.10250182502E+03  0.91590747545E+02 0.  0.
         23    2    1    2    0    0  0.51205294606E+01 -0.13174029284E+02  0.21491155771E+03  0.23522753946E+03  0.94579293796E+02 0.  0.
        -13    1    3    3    0    0 -0.20880800648E+02  0.55862094998E+02  0.38938303223E+02  0.71223401711E+02  0.00000000000E+00 0.  1.
         13    1    3    3    0    0 -0.36768069479E+01 -0.29202688488E+02 -0.10584131552E+02  0.31278423313E+02  0.00000000000E+00 0. -1.
        -13    1    4    4    0    0 -0.93014949641E+01 -0.52700115862E+02  0.12367784492E+03  0.13475915310E+03  0.00000000000E+00 0. -1.
         13    1    4    4    0    0  0.14422024425E+02  0.39526086578E+02  0.91233712789E+02  0.10046838636E+03  0.00000000000E+00 0.  1.
         21    1    1    2  502  501  0.19437078136E+02 -0.13485377227E+02 -0.31844384772E+01  0.23870401208E+02  0.00000000000E+00 0. -1.
<scales pt_clust_5="13000.00000" pt_clust_6="13000.00000" pt_clust_7="13000.00000" pt_clust_8="13000.00000" pt_clust_9="23.65704"></scales>
<clustering>
<clus scale="   23.657">  2  9  1 -1</clus>
<clus scale="   91.591">  5  6 -1 -1</clus>
<clus scale="   93.455">  2  5  1 -1</clus>
<clus scale="   94.579">  7  8 -1 -1</clus>
<clus scale="   96.385">  1  5  2 -1</clus>
</clustering>
</event>
<event>
 9    1  0.1484717E-005  0.4182661E+03  0.7546771E-02  0.1037649E+00
          1   -1    0    0  502    0  0.00000000000E+00  0.00000000000E+00  0.60319198423E+03  0.60319198423E+03  0.00000000000E+00 0. -1.
         -1   -1    0    0    0  501 -0.00000000000E+00 -0.00000000000E+00 -0.61278366056E+03  0.61278366056E+03  0.00000000000E+00 0.  1.
         23    2    1    2    0    0 -0.36666723520E+03  0.13192580080E+03 -0.17526877550E+03  0.43702676526E+03  0.91782196574E+02 0.  0.
         23    2    1    2    0    0  0.41663697222E+03 -0.28084811856E+02  0.35596179780E+03  0.55648946270E+03  0.92717837135E+02 0.  0.
        -11    1    3    3    0    0 -0.31026328426E+03  0.12150775896E+03 -0.18132536362E+03  0.37934987616E+03  0.00000000000E+00 0.  1.
         11    1    3    3    0    0 -0.56403950937E+02  0.10418041842E+02  0.60565881281E+01  0.57676889106E+02  0.00000000000E+00 0. -1.
        -11    1    4    4    0    0  0.84289694102E+02 -0.12357948104E+02  0.28959609516E+02  0.89978499635E+02  0.00000000000E+00 0.  1.
         11    1    4    4    0    0  0.33234727812E+03 -0.15726863752E+02  0.32700218828E+03  0.46651096306E+03  0.00000000000E+00 0. -1.
         21    1    1    2  502  501 -0.49969737023E+02 -0.10384098894E+03 -0.19028469863E+03  0.22245941683E+03  0.00000000000E+00 0.  1.
<scales pt_clust_5="13000.00000" pt_clust_6="13000.00000" pt_clust_7="13000.00000" pt_clust_8="13000.00000" pt_clust_9="115.23856"></scales>
<clustering>
<clus scale="   91.782">  5  6 -1 -1</clus>
<clus scale="   92.718">  7  8 -1 -1</clus>
<clus scale="  115.239">  2  9  1 -1</clus>
<clus scale="  418.060">  2  5  1 -1</clus>
<clus scale="  418.266">  1  5  2 -1</clus>
</clustering>
</event>
<event>
 9    1  0.1484717E-005  0.1474968E+03  0.7546771E-02  0.1203900E+00
          2   -1    0    0  502    0  0.00000000000E+00  0.00000000000E+00  0.28467577041E+03  0.28467577041E+03  0.00000000000E+00 0. -1.
         -2   -1    0    0    0  501 -0.00000000000E+00 -0.00000000000E+00 -0.28950191330E+03  0.28950191330E+03  0.00000000000E+00 0.  1.
         23    2    1    2    0    0 -0.22305614070E+02  0.10791905392E+03 -0.21820363528E+03  0.26301006109E+03  0.97043305620E+02 0.  0.
         23    2    1    2    0    0 -0.19970055194E+02 -0.12626412600E+03  0.21163205172E+03  0.26505015908E+03  0.95509313128E+02 0.  0.
        -11    1    3    3    0    0 -0.18340446561E+01  0.86887815201E+02 -0.21686421378E+03  0.23362992824E+03  0.00000000000E+00 0.  1.
         11    1    3    3    0    0 -0.20471569414E+02  0.21031238717E+02 -0.13394215005E+01  0.29380132849E+02  0.00000000000E+00 0. -1.
        -13    1    4    4    0    0 -0.32910420223E+02 -0.41963670102E+02  0.15172646377E+03  0.16082588465E+03  0.00000000000E+00 0. -1.
         13    1    4    4    0    0  0.12940365030E+02 -0.84300455894E+02  0.59905587950E+02  0.10422427442E+03  0.00000000000E+00 0.  1.
         21    1    1    2  502  501  0.42275669264E+02  0.18345072078E+02  0.17454406664E+01  0.46117463551E+02  0.00000000000E+00 0.  1.
<scales pt_clust_5="13000.00000" pt_clust_6="13000.00000" pt_clust_7="13000.00000" pt_clust_8="13000.00000" pt_clust_9="46.08442"></scales>
<clustering>
<clus scale="   46.084">  1  9  2 -1</clus>
<clus scale="   95.509">  7  8 -1 -1</clus>
<clus scale="   97.043">  5  6 -1 -1</clus>
<clus scale="  146.492">  1  7  2 -1</clus>
<clus scale="   46.084">  1  5  2 -1</clus>
</clustering>
</event>
<event>
 9    1  0.1484717E-005  0.1513447E+03  0.7546771E-02  0.1198954E+00
         -1   -1    0    0    0  501 -0.00000000000E+00  0.00000000000E+00  0.76297110683E+02  0.76297110683E+02  0.00000000000E+00 0.  1.
          1   -1    0    0  502    0  0.00000000000E+00 -0.00000000000E+00 -0.36638445299E+03  0.36638445299E+03  0.00000000000E+00 0. -1.
         23    2    1    2    0    0 -0.92838851955E+02 -0.84917916470E+02 -0.13358915088E+03  0.20441149929E+03  0.90043849522E+02 0.  0.
         23    2    1    2    0    0  0.99165789280E+02  0.65542319025E+02 -0.15903327925E+03  0.21773057602E+03  0.89360900156E+02 0.  0.
        -13    1    3    3    0    0 -0.18647703162E+02 -0.67701404405E+02 -0.31301389545E+02  0.76882988880E+02  0.00000000000E+00 0. -1.
         13    1    3    3    0    0 -0.74191148793E+02 -0.17216512065E+02 -0.10228776134E+03  0.12752851041E+03  0.00000000000E+00 0.  1.
        -13    1    4    4    0    0  0.48838614088E+02 -0.81558149260E+00 -0.11175417195E+03  0.12196257765E+03  0.00000000000E+00 0. -1.
         13    1    4    4    0    0  0.50327175192E+02  0.66357900518E+02 -0.47279107304E+02  0.95767998368E+02  0.00000000000E+00 0.  1.
         21    1    1    2  502  501 -0.63269373246E+01  0.19375597445E+02  0.25350878257E+01  0.20539488371E+02  0.00000000000E+00 0. -1.
<scales pt_clust_5="13000.00000" pt_clust_6="13000.00000" pt_clust_7="13000.00000" pt_clust_8="13000.00000" pt_clust_9="20.38244"></scales>
<clustering>
<clus scale="   20.382">  1  9  2 -1</clus>
<clus scale="   89.361">  7  8 -1 -1</clus>
<clus scale="   90.044">  5  6 -1 -1</clus>
<clus scale="  150.939">  2  7  1 -1</clus>
<clus scale="  150.939">  2  5  1 -1</clus>
</clustering>
</event>
<event>
 9    1  0.1484717E-005  0.1138862E+03  0.7546771E-02  0.1258178E+00
         -1   -1    0    0    0  501 -0.00000000000E+00  0.00000000000E+00  0.37145026310E+02  0.37145026310E+02  0.00000000000E+00 0.  1.
          1   -1    0    0  502    0  0.00000000000E+00 -0.00000000000E+00 -0.41359288444E+03  0.41359288444E+03  0.00000000000E+00 0. -1.
         23    2    1    2    0    0  0.21461267464E+02 -0.74352646581E+02 -0.14450707019E+03  0.18239742484E+03  0.79985156124E+02 0.  0.
         23    2    1    2    0    0 -0.29498639259E+02  0.50933149562E+02 -0.19740041521E+03  0.22584213848E+03  0.92592613869E+02 0.  0.
        -11    1    4    4    0    0 -0.67181541081E+01  0.75468074616E+02 -0.14621325385E+03  0.16467810869E+03  0.00000000000E+00 0. -1.
         11    1    4    4    0    0 -0.22780485151E+02 -0.24534925054E+02 -0.51187161360E+02  0.61164029782E+02  0.00000000000E+00 0.  1.
        -13    1    3    3    0    0  0.23505333274E+02  0.93876804785E+01 -0.19641514526E+02  0.32037764123E+02  0.00000000000E+00 0. -1.
         13    1    3    3    0    0 -0.20440658107E+01 -0.83740327060E+02 -0.12486555566E+03  0.15035966072E+03  0.00000000000E+00 0.  1.
         21    1    1    2  502  501  0.80373717959E+01  0.23419497019E+02 -0.34540372731E+02  0.42498347432E+02  0.00000000000E+00 0.  1.
<scales pt_clust_5="13000.00000" pt_clust_6="13000.00000" pt_clust_7="13000.00000" pt_clust_8="13000.00000" pt_clust_9="24.76029"></scales>
<clustering>
<clus scale="   24.760">  1  9  2 -1</clus>
<clus scale="   79.985">  7  8 -1 -1</clus>
<clus scale="   92.593">  5  6 -1 -1</clus>
<clus scale="  103.896">  1  7  2 -1</clus>
<clus scale="  113.886">  2  5  1 -1</clus>
</clustering>
</event>
<event>
 9    1  0.1484717E-005  0.2432281E+03  0.7546771E-02  0.1118109E+00
          1   -1    0    0  502    0  0.00000000000E+00  0.00000000000E+00  0.46767684577E+03  0.46767684577E+03  0.00000000000E+00 0. -1.
         -1   -1    0    0    0  501 -0.00000000000E+00 -0.00000000000E+00 -0.31791508227E+03  0.31791508227E+03  0.00000000000E+00 0.  1.
         23    2    1    2    0    0 -0.19069649609E+03 -0.14249687512E+03 -0.13324208539E+03  0.28729659989E+03  0.90085348135E+02 0.  0.
         23    2    1    2    0    0  0.16461018174E+03  0.14663944534E+03  0.35079243114E+03  0.42554267481E+03  0.97116422280E+02 0.  0.
        -11    1    3    3    0    0 -0.27723014157E+02 -0.12942150319E+02 -0.58636994588E+02  0.66138959042E+02  0.00000000000E+00 0. -1.
         11    1    3    3    0    0 -0.16297348193E+03 -0.12955472480E+03 -0.74605090805E+02  0.22115764085E+03  0.00000000000E+00 0.  1.
        -13    1    4    4    0    0  0.23025539692E+02  0.59518561344E+02  0.47061872843E+02  0.79293470715E+02  0.00000000000E+00 0.  1.
         13    1    4    4    0    0  0.14158464205E+03  0.87120883993E+02  0.30373055830E+03  0.34624920409E+03  0.00000000000E+00 0. -1.
         21    1    1    2  502  501  0.26086314352E+02 -0.41425702195E+01 -0.67788582246E+02  0.72752653336E+02  0.00000000000E+00 0.  1.
<scales pt_clust_5="13000.00000" pt_clust_6="13000.00000" pt_clust_7="13000.00000" pt_clust_8="13000.00000" pt_clust_9="26.41319"></scales>
<clustering>
<clus scale="   26.413">  2  9  1 -1</clus>
<clus scale="   90.085">  5  6 -1 -1</clus>
<clus scale="   97.116">  7  8 -1 -1</clus>
<clus scale="  240.507">  2  5  1 -1</clus>
<clus scale="  243.228">  1  5  2 -1</clus>
</clustering>
</event>
<event>
 9    1  0.1484717E-005  0.1024737E+03  0.7546771E-02  0.1276148E+00
          1   -1    0    0  502    0  0.00000000000E+00  0.00000000000E+00  0.26318148371E+03  0.26318148371E+03  0.00000000000E+00 0. -1.
         -1   -1    0    0    0  501 -0.00000000000E+00 -0.00000000000E+00 -0.60808546932E+02  0.60808546932E+02  0.00000000000E+00 0.  1.
         23    2    1    2    0    0  0.14624725518E+02  0.11941189060E+02  0.21977747053E+02  0.10106225233E+03  0.96819847589E+02 0.  0.
         23    2    1    2    0    0 -0.34652554971E+02 -0.17731158617E+02  0.17246070448E+03  0.20062096868E+03  0.94820277010E+02 0.  0.
        -11    1    4    4    0    0 -0.49034947537E+02  0.22955530347E+02  0.12637690045E+03  0.13748637540E+03  0.00000000000E+00 0. -1.
         11    1    4    4    0    0  0.14382392567E+02 -0.40686688963E+02  0.46083804037E+02  0.63134593285E+02  0.00000000000E+00 0.  1.
        -13    1    3    3    0    0  0.15033732744E+02  0.53383138892E+02  0.21875836777E+02  0.59618158919E+02  0.00000000000E+00 0. -1.
         13    1    3    3    0    0 -0.40900722537E+00 -0.41441949831E+02  0.10191027563E+00  0.41444093408E+02  0.00000000000E+00 0.  1.
         21    1    1    2  502  501  0.20027829452E+02  0.57899695564E+01  0.79344852444E+01  0.22306809636E+02  0.00000000000E+00 0. -1.
<scales pt_clust_5="13000.00000" pt_clust_6="13000.00000" pt_clust_7="13000.00000" pt_clust_8="13000.00000" pt_clust_9="20.84797"></scales>
<clustering>
<clus scale="   20.848">  2  9  1 -1</clus>
<clus scale="   94.820">  5  6 -1 -1</clus>
<clus scale="   96.820">  7  8 -1 -1</clus>
<clus scale="  100.587">  1  5  2 -1</clus>
<clus scale="  100.587">  1  5  2 -1</clus>
</clustering>
</event>
<event>
 9    1  0.1484717E-005  0.9349423E+02  0.7546771E-02  0.1299571E+00
          3   -1    0    0  502    0  0.00000000000E+00  0.00000000000E+00  0.46124493949E+03  0.46124493949E+03  0.00000000000E+00 0. -1.
         -3   -1    0    0    0  501 -0.00000000000E+00 -0.00000000000E+00 -0.24376391622E+02  0.24376391622E+02  0.00000000000E+00 0.  1.
         23    2    1    2    0    0  0.29248287598E+02  0.98011822576E+01  0.13002603750E+03  0.15699126915E+03  0.82389093086E+02 0.  0.
         23    2    1    2    0    0 -0.17936358977E+02  0.69894843142E+01  0.28002703451E+03  0.29503012211E+03  0.90868405008E+02 0.  0.
        -11    1    3    3    0    0  0.55191944669E+02 -0.83791196637E+00  0.59836554483E+02  0.81408022364E+02  0.00000000000E+00 0.  1.
         11    1    3    3    0    0 -0.25943657071E+02  0.10639094224E+02  0.70189483018E+02  0.75583246784E+02  0.00000000000E+00 0. -1.
        -13    1    4    4    0    0  0.16242501127E+02 -0.33539977428E+02  0.82767144138E+02  0.90769758607E+02  0.00000000000E+00 0.  1.
         13    1    4    4    0    0 -0.34178860104E+02  0.40529461742E+02  0.19725989037E+03  0.20426036350E+03  0.00000000000E+00 0. -1.
         21    1    1    2  502  501 -0.11311928621E+02 -0.16790666572E+02  0.26815475854E+02  0.33599939856E+02  0.00000000000E+00 0. -1.
<scales pt_clust_5="13000.00000" pt_clust_6="13000.00000" pt_clust_7="13000.00000" pt_clust_8="13000.00000" pt_clust_9="20.24565"></scales>
<clustering>
<clus scale="   20.246">  2  9  1 -1</clus>
<clus scale="   82.389">  5  6 -1 -1</clus>
<clus scale="   85.276">  2  5  1 -1</clus>
<clus scale="   90.868">  7  8 -1 -1</clus>
<clus scale="   93.494">  1  5  2 -1</clus>
</clustering>
</event>
<event>
 9    1  0.1484717E-005  0.9219856E+02  0.7546771E-02  0.1298577E+00
         -2   -1    0    0    0  501 -0.00000000000E+00  0.00000000000E+00  0.11285581905E+03  0.11285581905E+03  0.00000000000E+00 0.  1.
          2   -1    0    0  502    0  0.00000000000E+00 -0.00000000000E+00 -0.20256799290E+03  0.20256799290E+03  0.00000000000E+00 0. -1.
         23    2    1    2    0    0  0.63552878297E+01  0.20841080149E+02 -0.75496525393E+02  0.11978091772E+03  0.90404660271E+02 0.  0.
         23    2    1    2    0    0 -0.37997413385E+01  0.16635888851E+02 -0.77850302798E+02  0.12174821745E+03  0.92036775123E+02 0.  0.
        -11    1    4    4    0    0  0.31641100602E+02  0.38465856647E+02 -0.29257353125E+02  0.57764817032E+02  0.00000000000E+00 0.  1.
         11    1    4    4    0    0 -0.35440841940E+02 -0.21829967796E+02 -0.48592949673E+02  0.63983400420E+02  0.00000000000E+00 0. -1.
        -13    1    3    3    0    0  0.36113118190E+02  0.22123560655E+02 -0.79154008608E+02  0.89771745667E+02  0.00000000000E+00 0.  1.
         13    1    3    3    0    0 -0.29757830360E+02 -0.12824805060E+01  0.36574832146E+01  0.30009172055E+02  0.00000000000E+00 0. -1.
         21    1    1    2  502  501 -0.25555464912E+01 -0.37476969000E+02  0.63634654336E+02  0.73894676776E+02  0.00000000000E+00 0.  1.
<scales pt_clust_5="13000.00000" pt_clust_6="13000.00000" pt_clust_7="13000.00000" pt_clust_8="13000.00000" pt_clust_9="37.56400"></scales>
<clustering>
<clus scale="   37.564">  1  9  2 -1</clus>
<clus scale="   90.405">  7  8 -1 -1</clus>
<clus scale="   90.569">  1  7  2 -1</clus>
<clus scale="   92.037">  5  6 -1 -1</clus>
<clus scale="   92.199">  2  5  1 -1</clus>
</clustering>
</event>
<event>
 9    1  0.1484717E-005  0.1095271E+03  0.7546771E-02  0.1263398E+00
         -2   -1    0    0    0  501 -0.00000000000E+00  0.00000000000E+00  0.35834315940E+03  0.35834315940E+03  0.00000000000E+00 0.  1.
          2   -1    0    0  502    0  0.00000000000E+00 -0.00000000000E+00 -0.53175136745E+02  0.53175136745E+02  0.00000000000E+00 0. -1.
         23    2    1    2    0    0  0.69161140886E+02 -0.21595154182E+02  0.87250266445E+02  0.14470980936E+03  0.89881621242E+02 0.  0.
         23    2    1    2    0    0 -0.32756678403E+02  0.18909732336E+02  0.97794045982E+02  0.14126087774E+03  0.94659295329E+02 0.  0.
        -11    1    3    3    0    0  0.13659315347E+02 -0.48402959812E+02  0.57109311700E+02  0.76097942792E+02  0.00000000000E+00 0.  1.
         11    1    3    3    0    0  0.55501825539E+02  0.26807805630E+02  0.30140954745E+02  0.68611866567E+02  0.00000000000E+00 0. -1.
        -13    1    4    4    0    0 -0.34773247454E+02 -0.22298766656E+02  0.90338179313E+02  0.99334789346E+02  0.00000000000E+00 0. -1.
         13    1    4    4    0    0  0.20165690515E+01  0.41208498991E+02  0.74558666689E+01  0.41926088390E+02  0.00000000000E+00 0.  1.
         21    1    1    2  502  501 -0.36404462483E+02  0.26854218468E+01  0.12012371023E+03  0.12554760906E+03  0.00000000000E+00 0. -1.
<scales pt_clust_5="13000.00000" pt_clust_6="13000.00000" pt_clust_7="13000.00000" pt_clust_8="13000.00000" pt_clust_9="36.50337"></scales>
<clustering>
<clus scale="   36.503">  1  9  2 -1</clus>
<clus scale="   89.882">  5  6 -1 -1</clus>
<clus scale="   94.659">  7  8 -1 -1</clus>
<clus scale="  105.425">  1  5  2 -1</clus>
<clus scale="  109.527">  2  5  1 -1</clus>
</clustering>
</event>
<event>
 9    1  0.1484717E-005  0.1210946E+03  0.7546771E-02  0.1241996E+00
         -1   -1    0    0    0  501 -0.00000000000E+00  0.00000000000E+00  0.38393673261E+02  0.38393673261E+02  0.00000000000E+00 0.  1.
          1   -1    0    0  502    0  0.00000000000E+00 -0.00000000000E+00 -0.52898443328E+03  0.52898443328E+03  0.00000000000E+00 0. -1.
         23    2    1    2    0    0  0.80880766069E+02 -0.57842235918E+02 -0.23803496219E+03  0.27392855705E+03  0.92134621987E+02 0.  0.
         23    2    1    2    0    0 -0.49479416689E+02  0.39185147831E+02 -0.21269539006E+03  0.23938492347E+03  0.89900634850E+02 0.  0.
        -13    1    4    4    0    0  0.24158661100E+02  0.15231559120E+02 -0.88811873557E+02  0.93290890145E+02  0.00000000000E+00 0. -1.
         13    1    4    4    0    0 -0.73638077789E+02  0.23953588712E+02 -0.12388351650E+03  0.14609403332E+03  0.00000000000E+00 0.  1.
        -13    1    3    3    0    0  0.14317953855E+02 -0.46818453509E+02 -0.35565511934E+02  0.60513445041E+02  0.00000000000E+00 0.  1.
         13    1    3    3    0    0  0.66562812213E+02 -0.11023782409E+02 -0.20246945025E+03  0.21341511201E+03  0.00000000000E+00 0. -1.
         21    1    1    2  502  501 -0.31401349380E+02  0.18657088087E+02 -0.39860407771E+02  0.54064626017E+02  0.00000000000E+00 0.  1.
<scales pt_clust_5="13000.00000" pt_clust_6="13000.00000" pt_clust_7="13000.00000" pt_clust_8="13000.00000" pt_clust_9="36.52577"></scales>
<clustering>
<clus scale="   36.526">  1  9  2 -1</clus>
<clus scale="   89.901">  5  6 -1 -1</clus>
<clus scale="   92.135">  7  8 -1 -1</clus>
<clus scale="  119.404">  2  5  1 -1</clus>
<clus scale="  119.404">  2  5  1 -1</clus>
</clustering>
</event>
<event>
 9    1  0.1484717E-005  0.9791235E+02  0.7546771E-02  0.1287132E+00
         -1   -1    0    0    0  501 -0.00000000000E+00  0.00000000000E+00  0.39088416663E+02  0.39088416663E+02  0.00000000000E+00 0.  1.
          1   -1    0    0  502    0  0.00000000000E+00 -0.00000000000E+00 -0.37270416489E+03  0.37270416489E+03  0.00000000000E+00 0. -1.
         23    2    1    2    0    0  0.28146330901E+02  0.11200079685E+01 -0.62680852327E+02  0.11600112476E+03  0.93455344076E+02 0.  0.
         23    2    1    2    0    0 -0.30397312671E+02  0.21075402911E+02 -0.22344632039E+03  0.24332367633E+03  0.88938091611E+02 0.  0.
        -11    1    3    3    0    0 -0.33173301531E+02 -0.42371825376E+01 -0.35320115372E+02  0.48640849090E+02  0.00000000000E+00 0. -1.
         11    1    3    3    0    0  0.61319632432E+02  0.53571905061E+01 -0.27360736954E+02  0.67360275670E+02  0.00000000000E+00 0.  1.
        -13    1    4    4    0    0  0.13639404740E+02 -0.23848138477E+02 -0.34037670206E+02  0.43741628497E+02  0.00000000000E+00 0.  1.
         13    1    4    4    0    0 -0.44036717411E+02  0.44923541388E+02 -0.18940865019E+03  0.19958204783E+03  0.00000000000E+00 0. -1.
         21    1    1    2  502  501  0.22509817701E+01 -0.22195410879E+02 -0.47488575514E+02  0.52467780469E+02  0.00000000000E+00 0.  1.
<scales pt_clust_5="13000.00000" pt_clust_6="13000.00000" pt_clust_7="13000.00000" pt_clust_8="13000.00000" pt_clust_9="22.30926"></scales>
<clustering>
<clus scale="   22.309">  2  9  1 -1</clus>
<clus scale="   88.938">  7  8 -1 -1</clus>
<clus scale="   93.455">  5  6 -1 -1</clus>
<clus scale="   93.610">  2  7  1 -1</clus>
<clus scale="   22.309">  2  5  1 -1</clus>
</clustering>
</event>
<event>
 9    1  0.1484717E-005  0.1254896E+03  0.7546771E-02  0.1234831E+00
          1   -1    0    0  502    0  0.00000000000E+00  0.00000000000E+00  0.33843583670E+03  0.33843583670E+03  0.00000000000E+00 0. -1.
         -1   -1    0    0    0  501 -0.00000000000E+00 -0.00000000000E+00 -0.83706570477E+02  0.83706570477E+02  0.00000000000E+00 0.  1.
         23    2    1    2    0    0 -0.55020739584E+02 -0.71437555730E+02  0.31981041493E+01  0.12923962576E+03  0.92531328981E+02 0.  0.
         23    2    1    2    0    0  0.36380733262E+02  0.43160376952E+02  0.22298774131E+03  0.24861084599E+03  0.94326263980E+02 0.  0.
        -11    1    3    3    0    0 -0.13180384685E+02  0.16698565311E+02  0.21195555058E+02  0.30030254379E+02  0.00000000000E+00 0. -1.
         11    1    3    3    0    0 -0.41840354899E+02 -0.88136121041E+02 -0.17997450909E+02  0.99209371379E+02  0.00000000000E+00 0.  1.
        -11    1    4    4    0    0 -0.19952080200E+02 -0.11513567156E+02  0.10064772073E+03  0.10325023690E+03  0.00000000000E+00 0.  1.
         11    1    4    4    0    0  0.56332813463E+02  0.54673944107E+02  0.12234002058E+03  0.14536060908E+03  0.00000000000E+00 0. -1.
         21    1    1    2  502  501  0.18640006321E+02  0.28277178779E+02  0.28543420764E+02  0.44291935431E+02  0.00000000000E+00 0. -1.
<scales pt_clust_5="13000.00000" pt_clust_6="13000.00000" pt_clust_7="13000.00000" pt_clust_8="13000.00000" pt_clust_9="33.86811"></scales>
<clustering>
<clus scale="   33.868">  1  9  2 -1</clus>
<clus scale="   92.531">  5  6 -1 -1</clus>
<clus scale="   94.326">  7  8 -1 -1</clus>
<clus scale="  124.146">  2  5  1 -1</clus>
<clus scale="   33.868">  1  5  2 -1</clus>
</clustering>
</event>
<event>
 9    1  0.1484717E-005  0.1781895E+03  0.7546771E-02  0.1169569E+00
         -1   -1    0    0    0  501 -0.00000000000E+00  0.00000000000E+00  0.61648200202E+02  0.61648200202E+02  0.00000000000E+00 0.  1.
          1   -1    0    0  502    0  0.00000000000E+00 -0.00000000000E+00 -0.97513388264E+03  0.97513388264E+03  0.00000000000E+00 0. -1.
         23    2    1    2    0    0 -0.16087041075E+03 -0.63549024947E+02 -0.50563409449E+03  0.54209595969E+03  0.91018813306E+02 0.  0.
         23    2    1    2    0    0  0.12924251871E+03  0.44232701000E+02 -0.42369313846E+03  0.45438229395E+03  0.91034240804E+02 0.  0.
        -11    1    3    3    0    0 -0.97751243555E+02 -0.80875794271E+02 -0.28512926679E+03  0.31208155744E+03  0.00000000000E+00 0.  1.
         11    1    3    3    0    0 -0.63119167191E+02  0.17326769324E+02 -0.22050482770E+03  0.23001440225E+03  0.00000000000E+00 0. -1.
        -13    1    4    4    0    0  0.65114795267E+02  0.20334715474E+01 -0.84975028619E+02  0.10707393267E+03  0.00000000000E+00 0.  1.
         13    1    4    4    0    0  0.64127723442E+02  0.42199229452E+02 -0.33871810984E+03  0.34730836128E+03  0.00000000000E+00 0. -1.
         21    1    1    2  502  501  0.31627892038E+02  0.19316323947E+02  0.15841550513E+02  0.40303829201E+02  0.00000000000E+00 0.  1.
<scales pt_clust_5="13000.00000" pt_clust_6="13000.00000" pt_clust_7="13000.00000" pt_clust_8="13000.00000" pt_clust_9="37.06000"></scales>
<clustering>
<clus scale="   37.060">  1  9  2 -1</clus>
<clus scale="   91.019">  5  6 -1 -1</clus>
<clus scale="   91.034">  7  8 -1 -1</clus>
<clus scale="  178.182">  1  5  2 -1</clus>
<clus scale="  178.189">  2  5  1 -1</clus>
</clustering>
</event>
<event>
 9    1  0.1484717E-005  0.9534774E+02  0.7546771E-02  0.1290993E+00
         -1   -1    0    0    0  501 -0.00000000000E+00  0.00000000000E+00  0.38792839953E+02  0.38792839953E+02  0.00000000000E+00 0.  1.
          1   -1    0    0  502    0  0.00000000000E+00 -0.00000000000E+00 -0.46871195241E+03  0.46871195241E+03  0.00000000000E+00 0. -1.
         23    2    1    2    0    0 -0.27015541143E+02  0.40639773252E+02 -0.15568794010E+03  0.18692817402E+03  0.91224870055E+02 0.  0.
         23    2    1    2    0    0 -0.11376690401E+02 -0.20911020570E+02 -0.25823903748E+03  0.27454472176E+03  0.90114948285E+02 0.  0.
        -11    1    4    4    0    0 -0.15488357981E+02  0.34251618611E+02 -0.93842503160E+02  0.10109143391E+03  0.00000000000E+00 0.  1.
         11    1    4    4    0    0  0.41116675796E+01 -0.55162639180E+02 -0.16439653432E+03  0.17345328785E+03  0.00000000000E+00 0. -1.
        -13    1    3    3    0    0  0.17814553172E+02  0.30176442153E+02 -0.13634237567E+02  0.37601441459E+02  0.00000000000E+00 0.  1.
         13    1    3    3    0    0 -0.44830094316E+02  0.10463331099E+02 -0.14205370253E+03  0.14932673256E+03  0.00000000000E+00 0. -1.
         21    1    1    2  502  501  0.38392231544E+02 -0.19728752682E+02 -0.15992134891E+02  0.46031896591E+02  0.00000000000E+00 0. -1.
<scales pt_clust_5="13000.00000" pt_clust_6="13000.00000" pt_clust_7="13000.00000" pt_clust_8="13000.00000" pt_clust_9="43.16465"></scales>
<clustering>
<clus scale="   43.165">  1  9  2 -1</clus>
<clus scale="   90.115">  5  6 -1 -1</clus>
<clus scale="   91.225">  7  8 -1 -1</clus>
<clus scale="   94.286">  2  5  1 -1</clus>
<clus scale="   94.286">  2  5  1 -1</clus>
</clustering>
</event>
<event>
 9    1  0.1484717E-005  0.1336617E+03  0.7546771E-02  0.1222220E+00
          1   -1    0    0  502    0  0.00000000000E+00  0.00000000000E+00  0.13491594217E+04  0.13491594217E+04  0.00000000000E+00 0. -1.
         -1   -1    0    0    0  501 -0.00000000000E+00 -0.00000000000E+00 -0.27240517601E+02  0.27240517601E+02  0.00000000000E+00 0.  1.
         23    2    1    2    0    0  0.81998969766E+02  0.69702963088E+02  0.66930735734E+03  0.68359365552E+03  0.88009165288E+02 0.  0.
         23    2    1    2    0    0 -0.61468228770E+02 -0.71527303831E+02  0.65873748456E+03  0.67130357099E+03  0.88424614897E+02 0.  0.
        -13    1    4    4    0    0 -0.82683631703E+02 -0.69375520103E+02  0.55468892284E+03  0.56509233481E+03  0.00000000000E+00 0.  1.
         13    1    4    4    0    0  0.21215402933E+02 -0.21517837278E+01  0.10404856172E+03  0.10621123618E+03  0.00000000000E+00 0. -1.
        -13    1    3    3    0    0  0.27212977124E+02 -0.19446068233E+02  0.19853457743E+03  0.20133224811E+03  0.00000000000E+00 0. -1.
         13    1    3    3    0    0  0.54785992642E+02  0.89149031320E+02  0.47077277992E+03  0.48226140742E+03  0.00000000000E+00 0.  1.
         21    1    1    2  502  501 -0.20530740996E+02  0.18243407430E+01 -0.61259377708E+01  0.21502712819E+02  0.00000000000E+00 0.  1.
<scales pt_clust_5="13000.00000" pt_clust_6="13000.00000" pt_clust_7="13000.00000" pt_clust_8="13000.00000" pt_clust_9="20.61164"></scales>
<clustering>
<clus scale="   20.612">  2  9  1 -1</clus>
<clus scale="   88.009">  7  8 -1 -1</clus>
<clus scale="   88.425">  5  6 -1 -1</clus>
<clus scale="  133.387">  2  7  1 -1</clus>
<clus scale="  133.662">  1  5  2 -1</clus>
</clustering>
</event>
<event>
 9    1  0.1484717E-005  0.1307702E+03  0.7546771E-02  0.1227244E+00
         -1   -1    0    0    0  501 -0.00000000000E+00  0.00000000000E+00  0.29078664172E+03  0.29078664172E+03  0.00000000000E+00 0.  1.
          1   -1    0    0  502    0  0.00000000000E+00 -0.00000000000E+00 -0.88599130241E+02  0.88599130241E+02  0.00000000000E+00 0. -1.
         23    2    1    2    0    0  0.21452215653E+02 -0.91851930911E+02  0.81758097135E+02  0.15527329962E+03  0.92349533617E+02 0.  0.
         23    2    1    2    0    0 -0.61931534113E+00  0.92339142489E+02  0.30339102920E+02  0.13164349742E+03  0.88784280475E+02 0.  0.
        -11    1    4    4    0    0  0.17566376230E+02  0.50945156878E+02  0.57576092906E+02  0.78860592551E+02  0.00000000000E+00 0.  1.
         11    1    4    4    0    0 -0.18185691571E+02  0.41393985611E+02 -0.27236989987E+02  0.52782904867E+02  0.00000000000E+00 0. -1.
        -13    1    3    3    0    0  0.20854283312E+02  0.56442953884E+01  0.47064759113E+02  0.51786588547E+02  0.00000000000E+00 0.  1.
         13    1    3    3    0    0  0.59793234037E+00 -0.97496226299E+02  0.34693338021E+02  0.10348671107E+03  0.00000000000E+00 0. -1.
         21    1    1    2  502  501 -0.20832900312E+02 -0.48721157801E+00  0.90090311428E+02  0.92468974926E+02  0.00000000000E+00 0. -1.
<scales pt_clust_5="13000.00000" pt_clust_6="13000.00000" pt_clust_7="13000.00000" pt_clust_8="13000.00000" pt_clust_9="20.83860"></scales>
<clustering>
<clus scale="   20.839">  1  9  2 -1</clus>
<clus scale="   88.784">  5  6 -1 -1</clus>
<clus scale="   92.350">  7  8 -1 -1</clus>
<clus scale="  128.277">  2  5  1 -1</clus>
<clus scale="  128.277">  2  5  1 -1</clus>
</clustering>
</event>
<event>
 9    1  0.1484717E-005  0.1308058E+03  0.7546771E-02  0.1227284E+00
          1   -1    0    0  502    0  0.00000000000E+00  0.00000000000E+00  0.14427272231E+03  0.14427272231E+03  0.00000000000E+00 0. -1.
         -1   -1    0    0    0  501 -0.00000000000E+00 -0.00000000000E+00 -0.16336012377E+03  0.16336012377E+03  0.00000000000E+00 0.  1.
         23    2    1    2    0    0  0.71781842896E+02 -0.35769057639E+02 -0.37815623920E+02  0.12671617175E+03  0.90525732899E+02 0.  0.
         23    2    1    2    0    0 -0.80228612770E+02  0.54207189805E+02  0.49574269013E+02  0.14400067201E+03  0.94358548409E+02 0.  0.
        -11    1    4    4    0    0 -0.13873653586E+02  0.26099305935E+02  0.64011315854E+02  0.70506032305E+02  0.00000000000E+00 0. -1.
         11    1    4    4    0    0 -0.66354959184E+02  0.28107883870E+02 -0.14437046841E+02  0.73494639706E+02  0.00000000000E+00 0.  1.
        -11    1    3    3    0    0  0.66583782302E+02  0.16349347741E+02 -0.21905882250E+02  0.71976169072E+02  0.00000000000E+00 0. -1.
         11    1    3    3    0    0  0.51980605937E+01 -0.52118405380E+02 -0.15909741670E+02  0.54740002679E+02  0.00000000000E+00 0.  1.
         21    1    1    2  502  501  0.84467698741E+01 -0.18438132166E+02 -0.30846046558E+02  0.36916002321E+02  0.00000000000E+00 0. -1.
<scales pt_clust_5="13000.00000" pt_clust_6="13000.00000" pt_clust_7="13000.00000" pt_clust_8="13000.00000" pt_clust_9="20.28084"></scales>
<clustering>
<clus scale="   20.281">  2  9  1 -1</clus>
<clus scale="   90.526">  7  8 -1 -1</clus>
<clus scale="   94.359">  5  6 -1 -1</clus>
<clus scale="  128.068">  2  7  1 -1</clus>
<clus scale="  130.806">  1  5  2 -1</clus>
</clustering>
</event>
<event>
 9    1  0.1484717E-005  0.1204449E+03  0.7546771E-02  0.1242555E+00
          2   -1    0    0  502    0  0.00000000000E+00  0.00000000000E+00  0.21960927212E+03  0.21960927212E+03  0.00000000000E+00 0. -1.
         -2   -1    0    0    0  501 -0.00000000000E+00 -0.00000000000E+00 -0.16308826728E+03  0.16308826728E+03  0.00000000000E+00 0.  1.
         23    2    1    2    0    0 -0.14993127688E+01 -0.45580547953E+02 -0.59266490245E+02  0.11680356775E+03  0.89725817262E+02 0.  0.
         23    2    1    2    0    0  0.90886293051E+01  0.87663261002E+02  0.16039720854E+03  0.20409931979E+03  0.90342776808E+02 0.  0.
        -11    1    3    3    0    0 -0.33944122546E+02 -0.41076965347E+02 -0.64465090272E+02  0.83637721163E+02  0.00000000000E+00 0.  1.
         11    1    3    3    0    0  0.32444809777E+02 -0.45035826059E+01  0.51986000273E+01  0.33165846590E+02  0.00000000000E+00 0. -1.
        -11    1    4    4    0    0 -0.84871196750E+00  0.40513072550E+02  0.14923323806E+03  0.15463695774E+03  0.00000000000E+00 0. -1.
         11    1    4    4    0    0  0.99373412726E+01  0.47150188452E+02  0.11163970482E+02  0.49462362050E+02  0.00000000000E+00 0.  1.
         21    1    1    2  502  501 -0.75893165363E+01 -0.42082713049E+02 -0.44609713457E+02  0.61794651854E+02  0.00000000000E+00 0.  1.
<scales pt_clust_5="13000.00000" pt_clust_6="13000.00000" pt_clust_7="13000.00000" pt_clust_8="13000.00000" pt_clust_9="42.76158"></scales>
<clustering>
<clus scale="   42.762">  2  9  1 -1</clus>
<clus scale="   89.726">  5  6 -1 -1</clus>
<clus scale="   90.343">  7  8 -1 -1</clus>
<clus scale="  119.983">  2  5  1 -1</clus>
<clus scale="  120.445">  1  5  2 -1</clus>
</clustering>
</event>
<event>
 9    1  0.1484717E-005  0.9676228E+02  0.7546771E-02  0.1288148E+00
         -1   -1    0    0    0  501 -0.00000000000E+00  0.00000000000E+00  0.83355094085E+02  0.83355094085E+02  0.00000000000E+00 0.  1.
          1   -1    0    0  502    0  0.00000000000E+00 -0.00000000000E+00 -0.17176612587E+03  0.17176612587E+03  0.00000000000E+00 0. -1.
         23    2    1    2    0    0  0.15052469230E+02 -0.23147035429E+02 -0.23080389636E+02  0.97482011863E+02  0.90596226036E+02 0.  0.
         23    2    1    2    0    0 -0.33241237708E+02  0.58665537220E+01 -0.81607500656E+02  0.12773298016E+03  0.92285067694E+02 0.  0.
        -11    1    3    3    0    0  0.13658044565E+02 -0.50828533346E+02  0.10780114692E+02  0.53724229694E+02  0.00000000000E+00 0.  1.
         11    1    3    3    0    0  0.13944246658E+01  0.27681497916E+02 -0.33860504328E+02  0.43757782170E+02  0.00000000000E+00 0. -1.
        -11    1    4    4    0    0  0.28176998273E+02 -0.43578307469E+01 -0.48895506027E+01  0.28928215043E+02  0.00000000000E+00 0.  1.
         11    1    4    4    0    0 -0.61418235981E+02  0.10224384469E+02 -0.76717950053E+02  0.98804765113E+02  0.00000000000E+00 0. -1.
         21    1    1    2  502  501  0.18188768478E+02  0.17280481707E+02  0.16276858504E+02  0.29906227939E+02  0.00000000000E+00 0.  1.
<scales pt_clust_5="13000.00000" pt_clust_6="13000.00000" pt_clust_7="13000.00000" pt_clust_8="13000.00000" pt_clust_9="25.08877"></scales>
<clustering>
<clus scale="   25.089">  1  9  2 -1</clus>
<clus scale="   90.596">  5  6 -1 -1</clus>
<clus scale="   92.285">  7  8 -1 -1</clus>
<clus scale="   95.153">  1  5  2 -1</clus>
<clus scale="   96.762">  2  5  1 -1</clus>
</clustering>
</event>
<event>
 9    1  0.1484717E-005  0.9993079E+02  0.7546771E-02  0.1284176E+00
          3   -1    0    0  502    0  0.00000000000E+00  0.00000000000E+00  0.12665545798E+03  0.12665545798E+03  0.00000000000E+00 0. -1.
         -3   -1    0    0    0  501 -0.00000000000E+00 -0.00000000000E+00 -0.41009540365E+03  0.41009540365E+03  0.00000000000E+00 0.  1.
         23    2    1    2    0    0  0.35587081377E+02 -0.34784737116E+02 -0.17519052636E+03  0.20010049075E+03  0.82897934672E+02 0.  0.
         23    2    1    2    0    0 -0.41111582746E+02  0.97259488801E+01  0.91383550166E+02  0.13537497377E+03  0.90502342319E+02 0.  0.
        -11    1    4    4    0    0 -0.17739678178E+02 -0.39234953372E+02  0.55847067688E+02  0.70519307408E+02  0.00000000000E+00 0.  1.
         11    1    4    4    0    0 -0.23371904568E+02  0.48960902252E+02  0.35536482478E+02  0.64855666363E+02  0.00000000000E+00 0. -1.
        -13    1    3    3    0    0  0.52417152007E+02  0.43998677668E+01 -0.11359207450E+03  0.12518017435E+03  0.00000000000E+00 0. -1.
         13    1    3    3    0    0 -0.16830070629E+02 -0.39184604883E+02 -0.61598451857E+02  0.74920316393E+02  0.00000000000E+00 0.  1.
         21    1    1    2  502  501  0.55245013683E+01  0.25058788236E+02 -0.19963296948E+03  0.20127539712E+03  0.00000000000E+00 0. -1.
<scales pt_clust_5="13000.00000" pt_clust_6="13000.00000" pt_clust_7="13000.00000" pt_clust_8="13000.00000" pt_clust_9="25.66053"></scales>
<clustering>
<clus scale="   25.661">  2  9  1 -1</clus>
<clus scale="   82.898">  7  8 -1 -1</clus>
<clus scale="   90.502">  5  6 -1 -1</clus>
<clus scale="   93.100">  2  7  1 -1</clus>
<clus scale="   99.931">  1  5  2 -1</clus>
</clustering>
</event>
<event>
 9    1  0.1484717E-005  0.1125748E+03  0.7546771E-02  0.1256453E+00
         -1   -1    0    0    0  501 -0.00000000000E+00  0.00000000000E+00  0.21697976729E+03  0.21697976729E+03  0.00000000000E+00 0.  1.
          1   -1    0    0  502    0  0.00000000000E+00 -0.00000000000E+00 -0.29231652880E+03  0.29231652880E+03  0.00000000000E+00 0. -1.
         23    2    1    2    0    0 -0.38286485112E+02 -0.10311819628E+03  0.15006119373E+03  0.20645127141E+03  0.89468141019E+02 0.  0.
         23    2    1    2    0    0  0.19082525762E+01  0.63338264057E+02 -0.22278425365E+03  0.24887604984E+03  0.91055408345E+02 0.  0.
        -11    1    3    3    0    0 -0.38243380491E+02 -0.20256117605E+02  0.10166159420E+03  0.11048957502E+03  0.00000000000E+00 0.  1.
         11    1    3    3    0    0 -0.43104621232E-01 -0.82862078675E+02  0.48399599527E+02  0.95961696394E+02  0.00000000000E+00 0. -1.
        -13    1    4    4    0    0 -0.15249746242E+02 -0.19611116205E+02 -0.68546421044E+02  0.72909275659E+02  0.00000000000E+00 0.  1.
         13    1    4    4    0    0  0.17157998819E+02  0.82949380261E+02 -0.15423783260E+03  0.17596677418E+03  0.00000000000E+00 0. -1.
         21    1    1    2  502  501  0.36378232536E+02  0.39779932223E+02 -0.26137015856E+01  0.53968974847E+02  0.00000000000E+00 0.  1.
<scales pt_clust_5="13000.00000" pt_clust_6="13000.00000" pt_clust_7="13000.00000" pt_clust_8="13000.00000" pt_clust_9="53.90565"></scales>
<clustering>
<clus scale="   53.906">  1  9  2 -1</clus>
<clus scale="   89.468">  5  6 -1 -1</clus>
<clus scale="   91.055">  7  8 -1 -1</clus>
<clus scale="  111.295">  1  5  2 -1</clus>
<clus scale="  112.575">  2  5  1 -1</clus>
</clustering>
</event>
<event>
 9    1  0.1484717E-005  0.1681279E+03  0.7546771E-02  0.1180015E+00
          2   -1    0    0  502    0  0.00000000000E+00  0.00000000000E+00  0.14981793296E+04  0.14981793296E+04  0.00000000000E+00 0. -1.
         -2   -1    0    0    0  501 -0.00000000000E+00 -0.00000000000E+00 -0.21461953596E+02  0.21461953596E+02  0.00000000000E+00 0.  1.
         23    2    1    2    0    0 -0.39987528531E+02 -0.14459604467E+03  0.65340238148E+03  0.67642151951E+03  0.90024337569E+02 0.  0.
         23    2    1    2    0    0  0.44200708263E+02  0.12414742639E+03  0.69909836700E+03  0.71726077264E+03  0.91423208951E+02 0.  0.
        -13    1    3    3    0    0  0.26384600736E+02 -0.21426714208E+02  0.15966527930E+03  0.16324292527E+03  0.00000000000E+00 0.  1.
         13    1    3    3    0    0 -0.66372129266E+02 -0.12316933046E+03  0.49373710218E+03  0.51317859424E+03  0.00000000000E+00 0. -1.
        -13    1    4    4    0    0  0.39056831409E+02  0.11174187407E+02  0.10685441618E+03  0.11431607411E+03  0.00000000000E+00 0.  1.
         13    1    4    4    0    0  0.51438768539E+01  0.11297323898E+03  0.59224395082E+03  0.60294469852E+03  0.00000000000E+00 0. -1.
         21    1    1    2  502  501 -0.42131797322E+01  0.20448618280E+02  0.12421662755E+03  0.12595899108E+03  0.00000000000E+00 0. -1.
<scales pt_clust_5="13000.00000" pt_clust_6="13000.00000" pt_clust_7="13000.00000" pt_clust_8="13000.00000" pt_clust_9="20.87814"></scales>
<clustering>
<clus scale="   20.878">  1  9  2 -1</clus>
<clus scale="   90.024">  5  6 -1 -1</clus>
<clus scale="   91.423">  7  8 -1 -1</clus>
<clus scale="  167.371">  2  5  1 -1</clus>
<clus scale="   20.878">  1  5  2 -1</clus>
</clustering>
</event>
<event>
 9    1  0.1484717E-005  0.4252027E+03  0.7546771E-02  0.1035448E+00
          2   -1    0    0  502    0  0.00000000000E+00  0.00000000000E+00  0.27710812303E+04  0.27710812303E+04  0.00000000000E+00 0. -1.
         -2   -1    0    0    0  501 -0.00000000000E+00 -0.00000000000E+00 -0.91217046556E+02  0.91217046556E+02  0.00000000000E+00 0.  1.
         23    2    1    2    0    0  0.36494092108E+03 -0.63044074310E+02  0.91180575170E+03  0.98800943180E+03  0.87272431596E+02 0.  0.
         23    2    1    2    0    0 -0.42505199276E+03  0.18390189217E+03  0.15237335625E+04  0.15951569856E+04  0.90954586389E+02 0.  0.
        -11    1    4    4    0    0 -0.34233284894E+03  0.11070576364E+03  0.12208623571E+04  0.12727735228E+04  0.00000000000E+00 0. -1.
         11    1    4    4    0    0 -0.82719143816E+02  0.73196128524E+02  0.30287120543E+03  0.32238346276E+03  0.00000000000E+00 0.  1.
        -11    1    3    3    0    0  0.23506535409E+03 -0.18690354341E+02  0.47778294677E+03  0.53280539999E+03  0.00000000000E+00 0.  1.
         11    1    3    3    0    0  0.12987556699E+03 -0.44353719970E+02  0.43402280493E+03  0.45520403181E+03  0.00000000000E+00 0. -1.
         21    1    1    2  502  501  0.60111071678E+02 -0.12085781786E+03  0.24432486959E+03  0.27913185948E+03  0.00000000000E+00 0.  1.
<scales pt_clust_5="13000.00000" pt_clust_6="13000.00000" pt_clust_7="13000.00000" pt_clust_8="13000.00000" pt_clust_9="134.98131"></scales>
<clustering>
<clus scale="   87.272">  7  8 -1 -1</clus>
<clus scale="   90.955">  5  6 -1 -1</clus>
<clus scale="  134.981">  2  9  1 -1</clus>
<clus scale="  424.430">  2  7  1 -1</clus>
<clus scale="  425.203">  1  5  2 -1</clus>
</clustering>
</event>
<event>
 9    1  0.1484717E-005  0.1158631E+03  0.7546771E-02  0.1250430E+00
          2   -1    0    0  502    0  0.00000000000E+00  0.00000000000E+00  0.77632917309E+02  0.77632917309E+02  0.00000000000E+00 0. -1.
         -2   -1    0    0    0  501 -0.00000000000E+00 -0.00000000000E+00 -0.35613200075E+03  0.35613200075E+03  0.00000000000E+00 0.  1.
         23    2    1    2    0    0  0.64192602993E+02 -0.13217839064E+02 -0.24789676587E+03  0.27209379026E+03  0.91031986789E+02 0.  0.
         23    2    1    2    0    0 -0.62189335064E+02  0.36285059547E+02  0.74843601742E+01  0.11709866136E+03  0.92043261040E+02 0.  0.
        -13    1    4    4    0    0  0.21016060934E+02  0.24310228483E+02 -0.34842613303E+01  0.32323398694E+02  0.00000000000E+00 0.  1.
         13    1    4    4    0    0 -0.83205395998E+02  0.11974831064E+02  0.10968621505E+02  0.84775262665E+02  0.00000000000E+00 0. -1.
        -13    1    3    3    0    0  0.39218533973E+02 -0.51711478612E+02 -0.16569818837E+03  0.17795521925E+03  0.00000000000E+00 0.  1.
         13    1    3    3    0    0  0.24974069020E+02  0.38493639548E+02 -0.82198577498E+02  0.94138571010E+02  0.00000000000E+00 0. -1.
         21    1    1    2  502  501 -0.20032679290E+01 -0.23067220483E+02 -0.38086677748E+02  0.44572466446E+02  0.00000000000E+00 0.  1.
<scales pt_clust_5="13000.00000" pt_clust_6="13000.00000" pt_clust_7="13000.00000" pt_clust_8="13000.00000" pt_clust_9="23.15404"></scales>
<clustering>
<clus scale="   23.154">  2  9  1 -1</clus>
<clus scale="   91.032">  7  8 -1 -1</clus>
<clus scale="   92.043">  5  6 -1 -1</clus>
<clus scale="  115.061">  2  7  1 -1</clus>
<clus scale="  115.863">  1  5  2 -1</clus>
</clustering>
</event>
<event>
 9    1  0.1484717E-005  0.9595465E+02  0.7546771E-02  0.1291414E+00
         -1   -1    0    0    0  501 -0.00000000000E+00  0.00000000000E+00  0.46328995916E+02  0.46328995916E+02  0.00000000000E+00 0.  1.
          1   -1    0    0  502    0  0.00000000000E+00 -0.00000000000E+00 -0.39748301832E+03  0.39748301832E+03  0.00000000000E+00 0. -1.
         23    2    1    2    0    0 -0.20572377505E+02  0.42801239850E+02 -0.12649973634E+03  0.16397366486E+03  0.92897850485E+02 0.  0.
         23    2    1    2    0    0  0.14911515828E+02 -0.54503028547E+01 -0.22470988608E+03  0.24206083039E+03  0.88582467796E+02 0.  0.
        -11    1    4    4    0    0  0.44646779195E+02 -0.27817536916E+02 -0.12396356776E+03  0.13466297332E+03  0.00000000000E+00 0. -1.
         11    1    4    4    0    0 -0.29735263367E+02  0.22367234061E+02 -0.10074631832E+03  0.10739785707E+03  0.00000000000E+00 0.  1.
        -11    1    3    3    0    0  0.80992319582E+01  0.60716310220E+02 -0.11100426096E+03  0.12678333422E+03  0.00000000000E+00 0.  1.
         11    1    3    3    0    0 -0.28671609463E+02 -0.17915070370E+02 -0.15495475374E+02  0.37190330634E+02  0.00000000000E+00 0. -1.
         21    1    1    2  502  501  0.56608616775E+01 -0.37350936995E+02  0.55600016794E-01  0.37777518986E+02  0.00000000000E+00 0. -1.
<scales pt_clust_5="13000.00000" pt_clust_6="13000.00000" pt_clust_7="13000.00000" pt_clust_8="13000.00000" pt_clust_9="37.77748"></scales>
<clustering>
<clus scale="   37.777">  1  9  2 -1</clus>
<clus scale="   88.582">  5  6 -1 -1</clus>
<clus scale="   91.783">  2  5  1 -1</clus>
<clus scale="   92.898">  7  8 -1 -1</clus>
<clus scale="   91.783">  2  5  1 -1</clus>
</clustering>
</event>
<event>
 9    1  0.1484717E-005  0.1071894E+03  0.7546771E-02  0.1269388E+00
         -1   -1    0    0    0  501 -0.00000000000E+00  0.00000000000E+00  0.81347981810E+02  0.81347981810E+02  0.00000000000E+00 0.  1.
          1   -1    0    0  502    0  0.00000000000E+00 -0.00000000000E+00 -0.35262444631E+03  0.35262444631E+03  0.00000000000E+00 0. -1.
         23    2    1    2    0    0 -0.58538881964E+02  0.47413491362E+02 -0.37693799045E+02  0.12685736749E+03  0.94853198871E+02 0.  0.
         23    2    1    2    0    0  0.41267204452E+02 -0.18170491491E+02 -0.25069147598E+03  0.26908644925E+03  0.86764924447E+02 0.  0.
        -11    1    4    4    0    0  0.63989218621E+02  0.12484319541E+01 -0.13211789317E+03  0.14680366609E+03  0.00000000000E+00 0.  1.
         11    1    4    4    0    0 -0.22722014169E+02 -0.19418923445E+02 -0.11857358281E+03  0.12228278316E+03  0.00000000000E+00 0. -1.
        -11    1    3    3    0    0 -0.46742668746E+02 -0.86929489428E+01  0.14102918947E+02  0.49591700572E+02  0.00000000000E+00 0. -1.
         11    1    3    3    0    0 -0.11796213219E+02  0.56106440305E+02 -0.51796717992E+02  0.77265666921E+02  0.00000000000E+00 0.  1.
         21    1    1    2  502  501  0.17271677512E+02 -0.29242999871E+02  0.17108810529E+02  0.38028611377E+02  0.00000000000E+00 0. -1.
<scales pt_clust_5="13000.00000" pt_clust_6="13000.00000" pt_clust_7="13000.00000" pt_clust_8="13000.00000" pt_clust_9="33.96268"></scales>
<clustering>
<clus scale="   33.963">  1  9  2 -1</clus>
<clus scale="   86.765">  5  6 -1 -1</clus>
<clus scale="   94.853">  7  8 -1 -1</clus>
<clus scale="  100.103">  2  5  1 -1</clus>
<clus scale="  100.103">  2  5  1 -1</clus>
</clustering>
</event>
<event>
 9    1  0.1484717E-005  0.9594003E+02  0.7546771E-02  0.1290293E+00
         -1   -1    0    0    0  501 -0.00000000000E+00  0.00000000000E+00  0.18378778151E+03  0.18378778151E+03  0.00000000000E+00 0.  1.
          1   -1    0    0  502    0  0.00000000000E+00 -0.00000000000E+00 -0.34845652273E+03  0.34845652273E+03  0.00000000000E+00 0. -1.
         23    2    1    2    0    0 -0.29629825593E+02  0.20142134649E+02 -0.46243884763E+02  0.10992220240E+03  0.93063212659E+02 0.  0.
         23    2    1    2    0    0 -0.68202228701E+01  0.35709986112E+02 -0.25347608489E+03  0.27170039116E+03  0.90825428128E+02 0.  0.
        -11    1    4    4    0    0  0.29507936110E+02 -0.16165987341E+02 -0.71550701594E+02  0.79066809337E+02  0.00000000000E+00 0.  1.
         11    1    4    4    0    0 -0.36328158980E+02  0.51875973453E+02 -0.18192538330E+03  0.19263358182E+03  0.00000000000E+00 0. -1.
        -13    1    3    3    0    0  0.64956409618E+01  0.41659683607E+02  0.62934009602E+01  0.42630147611E+02  0.00000000000E+00 0.  1.
         13    1    3    3    0    0 -0.36125466555E+02 -0.21517548958E+02 -0.52537285723E+02  0.67292054792E+02  0.00000000000E+00 0. -1.
         21    1    1    2  502  501  0.36450048464E+02 -0.55852120760E+02  0.13505122843E+03  0.15062171068E+03  0.00000000000E+00 0.  1.
<scales pt_clust_5="13000.00000" pt_clust_6="13000.00000" pt_clust_7="13000.00000" pt_clust_8="13000.00000" pt_clust_9="66.69382"></scales>
<clustering>
<clus scale="   66.694">  1  9  2 -1</clus>
<clus scale="   90.825">  5  6 -1 -1</clus>
<clus scale="   93.063">  7  8 -1 -1</clus>
<clus scale="   93.771">  2  5  1 -1</clus>
<clus scale="   93.771">  2  5  1 -1</clus>
</clustering>
</event>
<event>
 9    1  0.1484717E-005  0.1207613E+03  0.7546771E-02  0.1245965E+00
          2   -1    0    0  502    0  0.00000000000E+00  0.00000000000E+00  0.42764544315E+03  0.42764544315E+03  0.00000000000E+00 0. -1.
         -2   -1    0    0    0  501 -0.00000000000E+00 -0.00000000000E+00 -0.65352133689E+02  0.65352133689E+02  0.00000000000E+00 0.  1.
         23    2    1    2    0    0  0.35096017245E+02  0.31681903785E+02  0.12600643675E+03  0.16914457361E+03  0.10245384924E+03 0.  0.
         23    2    1    2    0    0 -0.47687676234E+02 -0.56261034992E+02  0.26147053758E+03  0.28647787055E+03  0.90902748971E+02 0.  0.
        -11    1    3    3    0    0  0.14944252431E+02 -0.20571810143E+02 -0.56712553621E+01  0.26051740645E+02  0.00000000000E+00 0. -1.
         11    1    3    3    0    0  0.20151764814E+02  0.52253713928E+02  0.13167769211E+03  0.14309283296E+03  0.00000000000E+00 0.  1.
        -13    1    4    4    0    0 -0.44684580686E+02 -0.79108402027E+02  0.17748761758E+03  0.19939083584E+03  0.00000000000E+00 0. -1.
         13    1    4    4    0    0 -0.30030955481E+01  0.22847367035E+02  0.83982920002E+02  0.87087034715E+02  0.00000000000E+00 0.  1.
         21    1    1    2  502  501  0.12591658988E+02  0.24579131207E+02 -0.25183664868E+02  0.37375132684E+02  0.00000000000E+00 0.  1.
<scales pt_clust_5="13000.00000" pt_clust_6="13000.00000" pt_clust_7="13000.00000" pt_clust_8="13000.00000" pt_clust_9="27.61673"></scales>
<clustering>
<clus scale="   27.617">  2  9  1 -1</clus>
<clus scale="   90.903">  7  8 -1 -1</clus>
<clus scale="  102.454">  5  6 -1 -1</clus>
<clus scale="  111.130">  1  7  2 -1</clus>
<clus scale="  111.130">  1  5  2 -1</clus>
</clustering>
</event>
<event>
 9    1  0.1484717E-005  0.1067792E+03  0.7546771E-02  0.1267953E+00
         -1   -1    0    0    0  501 -0.00000000000E+00  0.00000000000E+00  0.14573066230E+03  0.14573066230E+03  0.00000000000E+00 0.  1.
          1   -1    0    0  502    0  0.00000000000E+00 -0.00000000000E+00 -0.31384324175E+03  0.31384324175E+03  0.00000000000E+00 0. -1.
         23    2    1    2    0    0 -0.42694561468E+02 -0.51040754008E+02 -0.73591049540E+01  0.11069828042E+03  0.88158769921E+02 0.  0.
         23    2    1    2    0    0  0.43494592636E+02  0.30944797660E+02 -0.24257253098E+03  0.26462097678E+03  0.91287833117E+02 0.  0.
        -11    1    3    3    0    0  0.26988142004E+02 -0.22276590719E+02 -0.42071591962E+01  0.35246368485E+02  0.00000000000E+00 0. -1.
         11    1    3    3    0    0 -0.69682703472E+02 -0.28764163290E+02 -0.31519457579E+01  0.75451911937E+02  0.00000000000E+00 0.  1.
        -13    1    4    4    0    0 -0.40200157419E+01  0.42261839964E+02 -0.48311172962E+02  0.64313241845E+02  0.00000000000E+00 0.  1.
         13    1    4    4    0    0  0.47514608377E+02 -0.11317042303E+02 -0.19426135802E+03  0.20030773493E+03  0.00000000000E+00 0. -1.
         21    1    1    2  502  501 -0.80003116745E+00  0.20095956348E+02  0.81819056486E+02  0.84254646849E+02  0.00000000000E+00 0.  1.
<scales pt_clust_5="13000.00000" pt_clust_6="13000.00000" pt_clust_7="13000.00000" pt_clust_8="13000.00000" pt_clust_9="20.11187"></scales>
<clustering>
<clus scale="   20.112">  1  9  2 -1</clus>
<clus scale="   88.159">  5  6 -1 -1</clus>
<clus scale="   91.288">  7  8 -1 -1</clus>
<clus scale="  104.117">  1  5  2 -1</clus>
<clus scale="  106.779">  2  5  1 -1</clus>
</clustering>
</event>
<event>
 9    1  0.1484717E-005  0.9518381E+02  0.7546771E-02  0.1291018E+00
          1   -1    0    0  502    0  0.00000000000E+00  0.00000000000E+00  0.62744518511E+03  0.62744518511E+03  0.00000000000E+00 0. -1.
         -1   -1    0    0    0  501 -0.00000000000E+00 -0.00000000000E+00 -0.26296153612E+02  0.26296153612E+02  0.00000000000E+00 0.  1.
         23    2    1    2    0    0  0.25145157620E+01  0.60677423347E+01  0.11311039999E+03  0.14526622330E+03  0.90912995542E+02 0.  0.
         23    2    1    2    0    0 -0.28547221849E+02 -0.21072944128E+02  0.44801710420E+03  0.45842933123E+03  0.90438449964E+02 0.  0.
        -13    1    4    4    0    0 -0.46895896790E+02 -0.45223238442E+02  0.34243276360E+03  0.34857504790E+03  0.00000000000E+00 0. -1.
         13    1    4    4    0    0  0.18348674940E+02  0.24150294314E+02  0.10558434060E+03  0.10985428333E+03  0.00000000000E+00 0.  1.
        -13    1    3    3    0    0  0.45495294335E+02  0.98101985058E+01  0.71592825139E+02  0.85390833307E+02  0.00000000000E+00 0.  1.
         13    1    3    3    0    0 -0.42980778573E+02 -0.37424561711E+01  0.41517574852E+02  0.59875389991E+02  0.00000000000E+00 0. -1.
         21    1    1    2  502  501  0.26032706087E+02  0.15005201794E+02  0.40021527308E+02  0.50045784190E+02  0.00000000000E+00 0.  1.
<scales pt_clust_5="13000.00000" pt_clust_6="13000.00000" pt_clust_7="13000.00000" pt_clust_8="13000.00000" pt_clust_9="30.04759"></scales>
<clustering>
<clus scale="   30.048">  2  9  1 -1</clus>
<clus scale="   90.438">  5  6 -1 -1</clus>
<clus scale="   90.913">  7  8 -1 -1</clus>
<clus scale="   94.731">  1  5  2 -1</clus>
<clus scale="   94.731">  1  5  2 -1</clus>
</clustering>
</event>
<event>
 9    1  0.1484717E-005  0.1029952E+03  0.7546771E-02  0.1274249E+00
         -3   -1    0    0    0  501 -0.00000000000E+00  0.00000000000E+00  0.31730855951E+02  0.31730855951E+02  0.00000000000E+00 0.  1.
          3   -1    0    0  502    0  0.00000000000E+00 -0.00000000000E+00 -0.53926657363E+03  0.53926657363E+03  0.00000000000E+00 0. -1.
         23    2    1    2    0    0 -0.17422284982E+02  0.23626196625E+02 -0.12393447716E+03  0.15618806907E+03  0.90405890899E+02 0.  0.
         23    2    1    2    0    0  0.44464653337E+02 -0.38248468373E+02 -0.36056322366E+03  0.37639255771E+03  0.90694368676E+02 0.  0.
        -13    1    3    3    0    0  0.33645234587E+02 -0.78661235427E+01 -0.37738514727E+02  0.51167110567E+02  0.00000000000E+00 0. -1.
         13    1    3    3    0    0 -0.51067519569E+02  0.31492320168E+02 -0.86195962437E+02  0.10502095850E+03  0.00000000000E+00 0.  1.
        -13    1    4    4    0    0 -0.19229239077E+02 -0.28800175998E+02 -0.62491157163E+02  0.71444793348E+02  0.00000000000E+00 0.  1.
         13    1    4    4    0    0  0.63693892414E+02 -0.94482923755E+01 -0.29807206650E+03  0.30494776436E+03  0.00000000000E+00 0. -1.
         21    1    1    2  502  501 -0.27042368355E+02  0.14622271748E+02 -0.23038016856E+02  0.38416802807E+02  0.00000000000E+00 0.  1.
<scales pt_clust_5="13000.00000" pt_clust_6="13000.00000" pt_clust_7="13000.00000" pt_clust_8="13000.00000" pt_clust_9="30.74249"></scales>
<clustering>
<clus scale="   30.742">  1  9  2 -1</clus>
<clus scale="   90.406">  5  6 -1 -1</clus>
<clus scale="   90.694">  7  8 -1 -1</clus>
<clus scale="  102.741">  1  5  2 -1</clus>
<clus scale="  102.995">  2  5  1 -1</clus>
</clustering>
</event>
<event>
 9    1  0.1484717E-005  0.9170005E+02  0.7546771E-02  0.1306191E+00
          1   -1    0    0  502    0  0.00000000000E+00  0.00000000000E+00  0.40407902050E+02  0.40407902050E+02  0.00000000000E+00 0. -1.
         -1   -1    0    0    0  501 -0.00000000000E+00 -0.00000000000E+00 -0.32565935245E+03  0.32565935245E+03  0.00000000000E+00 0.  1.
         23    2    1    2    0    0  0.10608283311E+02  0.41969717553E+01 -0.82316531995E+02  0.11309315881E+03  0.76706589573E+02 0.  0.
         23    2    1    2    0    0 -0.26249342557E+02 -0.22235807803E+02 -0.70721822963E+02  0.11862252351E+03  0.88804660391E+02 0.  0.
        -13    1    4    4    0    0 -0.27370155385E+02  0.19055956198E+02 -0.69739764420E+02  0.77303878387E+02  0.00000000000E+00 0.  1.
         13    1    4    4    0    0  0.11208128281E+01 -0.41291764001E+02 -0.98205854326E+00  0.41318645122E+02  0.00000000000E+00 0. -1.
        -13    1    3    3    0    0 -0.23102515058E+02  0.23470649850E+02 -0.16892329558E+02  0.37012814055E+02  0.00000000000E+00 0.  1.
         13    1    3    3    0    0  0.33710798369E+02 -0.19273678095E+02 -0.65424202437E+02  0.76080344758E+02  0.00000000000E+00 0. -1.
         21    1    1    2  502  501  0.15641059246E+02  0.18038836048E+02 -0.13221309544E+03  0.13435157218E+03  0.00000000000E+00 0.  1.
<scales pt_clust_5="13000.00000" pt_clust_6="13000.00000" pt_clust_7="13000.00000" pt_clust_8="13000.00000" pt_clust_9="23.87556"></scales>
<clustering>
<clus scale="   23.876">  2  9  1 -1</clus>
<clus scale="   76.707">  7  8 -1 -1</clus>
<clus scale="   80.041">  2  7  1 -1</clus>
<clus scale="   88.805">  5  6 -1 -1</clus>
<clus scale="   91.700">  1  5  2 -1</clus>
</clustering>
</event>
<event>
 9    1  0.1484717E-005  0.9547611E+02  0.7546771E-02  0.1291043E+00
          2   -1    0    0  502    0  0.00000000000E+00  0.00000000000E+00  0.20981049974E+03  0.20981049974E+03  0.00000000000E+00 0. -1.
         -2   -1    0    0    0  501 -0.00000000000E+00 -0.00000000000E+00 -0.10334708842E+03  0.10334708842E+03  0.00000000000E+00 0.  1.
         23    2    1    2    0    0 -0.23232244211E+01  0.72618578198E+01 -0.40354357309E+02  0.98636871461E+02  0.89680690827E+02 0.  0.
         23    2    1    2    0    0  0.29761958033E+02 -0.11815937214E+02  0.15735634950E+03  0.18477705472E+03  0.91411972452E+02 0.  0.
        -11    1    4    4    0    0  0.36755197186E+02  0.20116879529E+02  0.25769352145E+02  0.49190373775E+02  0.00000000000E+00 0.  1.
         11    1    4    4    0    0 -0.69932391524E+01 -0.31932816743E+02  0.13158699735E+03  0.13558668095E+03  0.00000000000E+00 0. -1.
        -13    1    3    3    0    0  0.22656488074E+02  0.33218280916E+02  0.52176129793E+01  0.40546197406E+02  0.00000000000E+00 0. -1.
         13    1    3    3    0    0 -0.24979712495E+02 -0.25956423096E+02 -0.45571970289E+02  0.58090674056E+02  0.00000000000E+00 0.  1.
         21    1    1    2  502  501 -0.27438733612E+02  0.45540793943E+01 -0.10538580868E+02  0.29743661982E+02  0.00000000000E+00 0.  1.
<scales pt_clust_5="13000.00000" pt_clust_6="13000.00000" pt_clust_7="13000.00000" pt_clust_8="13000.00000" pt_clust_9="27.81409"></scales>
<clustering>
<clus scale="   27.814">  2  9  1 -1</clus>
<clus scale="   89.681">  7  8 -1 -1</clus>
<clus scale="   91.412">  5  6 -1 -1</clus>
<clus scale="   93.820">  2  7  1 -1</clus>
<clus scale="   95.476">  1  5  2 -1</clus>
</clustering>
</event>
<event>
 9    1  0.1484717E-005  0.1130931E+03  0.7546771E-02  0.1255089E+00
          2   -1    0    0  502    0  0.00000000000E+00  0.00000000000E+00  0.38571674859E+03  0.38571674859E+03  0.00000000000E+00 0. -1.
         -2   -1    0    0    0  501 -0.00000000000E+00 -0.00000000000E+00 -0.20090607420E+03  0.20090607420E+03  0.00000000000E+00 0.  1.
         23    2    1    2    0    0 -0.49415903135E+02 -0.26390114370E+02 -0.11744259216E+03  0.15976927292E+03  0.92709700132E+02 0.  0.
         23    2    1    2    0    0  0.22172006837E+02  0.61806487489E+02  0.34602940974E+03  0.36430037182E+03  0.93095481712E+02 0.  0.
        -11    1    4    4    0    0 -0.33268733443E+02  0.88721204069E+01  0.72962395587E+02  0.80678586473E+02  0.00000000000E+00 0.  1.
         11    1    4    4    0    0  0.55440740280E+02  0.52934367082E+02  0.27306701416E+03  0.28362178534E+03  0.00000000000E+00 0. -1.
        -11    1    3    3    0    0 -0.37936865259E+02  0.20824828149E+02 -0.14003507400E+02  0.45486013593E+02  0.00000000000E+00 0. -1.
         11    1    3    3    0    0 -0.11479037876E+02 -0.47214942518E+02 -0.10343908476E+03  0.11428325933E+03  0.00000000000E+00 0.  1.
         21    1    1    2  502  501  0.27243896298E+02 -0.35416373119E+02 -0.43776143196E+02  0.62553178045E+02  0.00000000000E+00 0.  1.
<scales pt_clust_5="13000.00000" pt_clust_6="13000.00000" pt_clust_7="13000.00000" pt_clust_8="13000.00000" pt_clust_9="44.68276"></scales>
<clustering>
<clus scale="   44.683">  2  9  1 -1</clus>
<clus scale="   92.710">  7  8 -1 -1</clus>
<clus scale="   93.095">  5  6 -1 -1</clus>
<clus scale="  112.776">  2  7  1 -1</clus>
<clus scale="  113.093">  1  5  2 -1</clus>
</clustering>
</event>
<event>
 9    1  0.1484717E-005  0.9320250E+02  0.7546771E-02  0.1295443E+00
          1   -1    0    0  502    0  0.00000000000E+00  0.00000000000E+00  0.49870873144E+03  0.49870873144E+03  0.00000000000E+00 0. -1.
         -1   -1    0    0    0  501 -0.00000000000E+00 -0.00000000000E+00 -0.31519808429E+02  0.31519808429E+02  0.00000000000E+00 0.  1.
         23    2    1    2    0    0 -0.16383036350E+02 -0.13099549690E+02  0.91063793466E+02  0.12920873913E+03  0.89231618308E+02 0.  0.
         23    2    1    2    0    0  0.23281550091E+02 -0.25252166572E+02  0.30747408157E+03  0.32208052014E+03  0.89531269001E+02 0.  0.
        -11    1    3    3    0    0 -0.44331748633E+02 -0.24591385852E+02  0.24921241628E+02  0.56489897143E+02  0.00000000000E+00 0.  1.
         11    1    3    3    0    0  0.27948712283E+02  0.11491836162E+02  0.66142551839E+02  0.72718841990E+02  0.00000000000E+00 0. -1.
        -13    1    4    4    0    0  0.54056503871E+02 -0.33101215293E+02  0.18510284328E+03  0.19565494794E+03  0.00000000000E+00 0. -1.
         13    1    4    4    0    0 -0.30774953780E+02  0.78490487209E+01  0.12237123829E+03  0.12642557220E+03  0.00000000000E+00 0.  1.
         21    1    1    2  502  501 -0.68985137414E+01  0.38351716262E+02  0.68651047973E+02  0.78939280589E+02  0.00000000000E+00 0. -1.
<scales pt_clust_5="13000.00000" pt_clust_6="13000.00000" pt_clust_7="13000.00000" pt_clust_8="13000.00000" pt_clust_9="38.96721"></scales>
<clustering>
<clus scale="   38.967">  2  9  1 -1</clus>
<clus scale="   89.232">  5  6 -1 -1</clus>
<clus scale="   89.531">  7  8 -1 -1</clus>
<clus scale="   92.915">  2  5  1 -1</clus>
<clus scale="   93.203">  1  5  2 -1</clus>
</clustering>
</event>
<event>
 9    1  0.1484717E-005  0.1019595E+03  0.7546771E-02  0.1276523E+00
          2   -1    0    0  502    0  0.00000000000E+00  0.00000000000E+00  0.37300385916E+03  0.37300385916E+03  0.00000000000E+00 0. -1.
         -2   -1    0    0    0  501 -0.00000000000E+00 -0.00000000000E+00 -0.56991723401E+02  0.56991723401E+02  0.00000000000E+00 0.  1.
         23    2    1    2    0    0 -0.24040555886E+02 -0.21122571286E+02  0.96361559840E+02  0.13639631281E+03  0.91073006906E+02 0.  0.
         23    2    1    2    0    0  0.50316705676E+02  0.15787728006E+02  0.23844246010E+03  0.26085737746E+03  0.91710094146E+02 0.  0.
        -11    1    4    4    0    0  0.10699639680E+01  0.38966608743E+02  0.16442131490E+03  0.16897902300E+03  0.00000000000E+00 0. -1.
         11    1    4    4    0    0  0.49246741708E+02 -0.23178880737E+02  0.74021145205E+02  0.91878354461E+02  0.00000000000E+00 0.  1.
        -11    1    3    3    0    0  0.11971766873E+01  0.31176917768E+02  0.60702650555E+02  0.68251338580E+02  0.00000000000E+00 0. -1.
         11    1    3    3    0    0 -0.25237732574E+02 -0.52299489054E+02  0.35658909285E+02  0.68144974225E+02  0.00000000000E+00 0.  1.
         21    1    1    2  502  501 -0.26276149789E+02  0.53348432796E+01 -0.18791884179E+02  0.32741892303E+02  0.00000000000E+00 0.  1.
<scales pt_clust_5="13000.00000" pt_clust_6="13000.00000" pt_clust_7="13000.00000" pt_clust_8="13000.00000" pt_clust_9="26.81225"></scales>
<clustering>
<clus scale="   26.812">  2  9  1 -1</clus>
<clus scale="   91.073">  7  8 -1 -1</clus>
<clus scale="   91.710">  5  6 -1 -1</clus>
<clus scale="  101.387">  2  7  1 -1</clus>
<clus scale="  101.960">  1  5  2 -1</clus>
</clustering>
</event>
<event>
 9    1  0.1484717E-005  0.9505018E+02  0.7546771E-02  0.1292437E+00
         -2   -1    0    0    0  501 -0.00000000000E+00  0.00000000000E+00  0.31311244789E+03  0.31311244789E+03  0.00000000000E+00 0.  1.
          2   -1    0    0  502    0  0.00000000000E+00 -0.00000000000E+00 -0.70782283191E+02  0.70782283191E+02  0.00000000000E+00 0. -1.
         23    2    1    2    0    0 -0.13123056241E+02 -0.17976606796E+02  0.22221636425E+03  0.24105659690E+03  0.90734763842E+02 0.  0.
         23    2    1    2    0    0  0.19318111712E+02 -0.69093686396E+01 -0.17795561991E+02  0.97069037118E+02  0.93192205282E+02 0.  0.
        -11    1    4    4    0    0  0.12680144839E+02 -0.42102320030E+02  0.16993814034E+02  0.47140016339E+02  0.00000000000E+00 0.  1.
         11    1    4    4    0    0  0.66379668733E+01  0.35192951391E+02 -0.34789376024E+02  0.49929020779E+02  0.00000000000E+00 0. -1.
        -13    1    3    3    0    0 -0.40432612337E+02 -0.39165754990E+02  0.10894472893E+03  0.12262832653E+03  0.00000000000E+00 0.  1.
         13    1    3    3    0    0  0.27309556096E+02  0.21189148194E+02  0.11327163532E+03  0.11842827037E+03  0.00000000000E+00 0. -1.
         21    1    1    2  502  501 -0.61950554704E+01  0.24885975436E+02  0.37909362434E+02  0.45769097061E+02  0.00000000000E+00 0.  1.
<scales pt_clust_5="13000.00000" pt_clust_6="13000.00000" pt_clust_7="13000.00000" pt_clust_8="13000.00000" pt_clust_9="25.64548"></scales>
<clustering>
<clus scale="   25.645">  1  9  2 -1</clus>
<clus scale="   90.735">  7  8 -1 -1</clus>
<clus scale="   92.642">  1  7  2 -1</clus>
<clus scale="   93.192">  5  6 -1 -1</clus>
<clus scale="   95.050">  2  5  1 -1</clus>
</clustering>
</event>
<event>
 9    1  0.1484717E-005  0.9395732E+02  0.7546771E-02  0.1295042E+00
          2   -1    0    0  502    0  0.00000000000E+00  0.00000000000E+00  0.27471283191E+03  0.27471283191E+03  0.00000000000E+00 0. -1.
         -2   -1    0    0    0  501 -0.00000000000E+00 -0.00000000000E+00 -0.66460033789E+02  0.66460033789E+02  0.00000000000E+00 0.  1.
         23    2    1    2    0    0 -0.17873057479E+02 -0.15485045618E+02  0.58578462883E+02  0.11056172565E+03  0.90737126052E+02 0.  0.
         23    2    1    2    0    0  0.73963884554E+01 -0.52303806918E+01  0.17357757861E+03  0.19729065798E+03  0.93340047592E+02 0.  0.
        -11    1    4    4    0    0  0.17433713776E+02  0.40683961009E+02  0.10701998578E+03  0.11581190101E+03  0.00000000000E+00 0.  1.
         11    1    4    4    0    0 -0.10037325320E+02 -0.45914341701E+02  0.66557592832E+02  0.81478756968E+02  0.00000000000E+00 0. -1.
        -11    1    3    3    0    0 -0.54063774786E+02 -0.12561047357E+02  0.24166404081E+02  0.60536656177E+02  0.00000000000E+00 0. -1.
         11    1    3    3    0    0  0.36190717308E+02 -0.29239982607E+01  0.34412058802E+02  0.50025069476E+02  0.00000000000E+00 0.  1.
         21    1    1    2  502  501  0.10476669023E+02  0.20715426310E+02 -0.23903243377E+02  0.33320482064E+02  0.00000000000E+00 0.  1.
<scales pt_clust_5="13000.00000" pt_clust_6="13000.00000" pt_clust_7="13000.00000" pt_clust_8="13000.00000" pt_clust_9="23.21399"></scales>
<clustering>
<clus scale="   23.214">  2  9  1 -1</clus>
<clus scale="   90.737">  7  8 -1 -1</clus>
<clus scale="   91.372">  2  7  1 -1</clus>
<clus scale="   93.340">  5  6 -1 -1</clus>
<clus scale="   93.957">  1  5  2 -1</clus>
</clustering>
</event>
<event>
 9    1  0.1484717E-005  0.3468496E+03  0.7546771E-02  0.1064004E+00
         -2   -1    0    0    0  501 -0.00000000000E+00  0.00000000000E+00  0.42457411538E+03  0.42457411538E+03  0.00000000000E+00 0.  1.
          2   -1    0    0  502    0  0.00000000000E+00 -0.00000000000E+00 -0.33809731559E+03  0.33809731559E+03  0.00000000000E+00 0. -1.
         23    2    1    2    0    0  0.23887113330E+03 -0.22589032476E+03  0.78479776205E+02  0.34961090229E+03  0.89346799533E+02 0.  0.
         23    2    1    2    0    0 -0.28298732860E+03  0.18978428155E+03 -0.10144419902E+02  0.35323580956E+03  0.92589017875E+02 0.  0.
        -11    1    4    4    0    0 -0.23697346435E+03  0.17567479826E+03  0.21283095914E+02  0.29575501301E+03  0.00000000000E+00 0.  1.
         11    1    4    4    0    0 -0.46013864255E+02  0.14109483290E+02 -0.31427515816E+02  0.57480796556E+02  0.00000000000E+00 0. -1.
        -13    1    3    3    0    0  0.72754989219E+02 -0.19045729755E+02  0.12500250496E+02  0.76238340359E+02  0.00000000000E+00 0.  1.
         13    1    3    3    0    0  0.16611614408E+03 -0.20684459501E+03  0.65979525708E+02  0.27337256193E+03  0.00000000000E+00 0. -1.
         21    1    1    2  502  501  0.44116195305E+02  0.36106043214E+02  0.18141443487E+02  0.59824719110E+02  0.00000000000E+00 0. -1.
<scales pt_clust_5="13000.00000" pt_clust_6="13000.00000" pt_clust_7="13000.00000" pt_clust_8="13000.00000" pt_clust_9="57.00776"></scales>
<clustering>
<clus scale="   57.008">  1  9  2 -1</clus>
<clus scale="   89.347">  7  8 -1 -1</clus>
<clus scale="   92.589">  5  6 -1 -1</clus>
<clus scale="  345.998">  1  7  2 -1</clus>
<clus scale="  346.850">  2  5  1 -1</clus>
</clustering>
</event>
<event>
 9    1  0.1484717E-005  0.2356220E+03  0.7546771E-02  0.1122928E+00
          1   -1    0    0  502    0  0.00000000000E+00  0.00000000000E+00  0.58953070413E+03  0.58953070413E+03  0.00000000000E+00 0. -1.
         -1   -1    0    0    0  501 -0.00000000000E+00 -0.00000000000E+00 -0.15071135921E+03  0.15071135921E+03  0.00000000000E+00 0.  1.
         23    2    1    2    0    0 -0.18682186395E+03 -0.69717690428E+02  0.86122644576E+02  0.23509460552E+03  0.89941083088E+02 0.  0.
         23    2    1    2    0    0  0.21743167769E+03  0.57964106234E+02  0.38733627589E+03  0.45745041774E+03  0.92709880788E+02 0.  0.
        -13    1    4    4    0    0  0.29247572808E+02  0.43726786588E+02  0.61725463466E+02  0.81101696780E+02  0.00000000000E+00 0.  1.
         13    1    4    4    0    0  0.18818410489E+03  0.14237319646E+02  0.32561081242E+03  0.37634872096E+03  0.00000000000E+00 0. -1.
        -13    1    3    3    0    0 -0.12939487551E+03 -0.73672199116E+02  0.95329064875E+02  0.17680004904E+03  0.00000000000E+00 0.  1.
         13    1    3    3    0    0 -0.57426988445E+02  0.39545086876E+01 -0.92064202986E+01  0.58294556483E+02  0.00000000000E+00 0. -1.
         21    1    1    2  502  501 -0.30609813741E+02  0.11753584194E+02 -0.34639575546E+02  0.47697040082E+02  0.00000000000E+00 0.  1.
<scales pt_clust_5="13000.00000" pt_clust_6="13000.00000" pt_clust_7="13000.00000" pt_clust_8="13000.00000" pt_clust_9="32.78883"></scales>
<clustering>
<clus scale="   32.789">  2  9  1 -1</clus>
<clus scale="   89.941">  7  8 -1 -1</clus>
<clus scale="   92.710">  5  6 -1 -1</clus>
<clus scale="  234.546">  2  7  1 -1</clus>
<clus scale="  235.622">  1  5  2 -1</clus>
</clustering>
</event>
<event>
 9    1  0.1484717E-005  0.1699424E+03  0.7546771E-02  0.1178324E+00
          4   -1    0    0  502    0  0.00000000000E+00  0.00000000000E+00  0.15144158754E+03  0.15144158754E+03  0.00000000000E+00 0. -1.
         -4   -1    0    0    0  501 -0.00000000000E+00 -0.00000000000E+00 -0.22476061767E+03  0.22476061767E+03  0.00000000000E+00 0.  1.
         23    2    1    2    0    0  0.68995950288E+02  0.11363867469E+03 -0.41739999587E+02  0.16753314851E+03  0.93010422767E+02 0.  0.
         23    2    1    2    0    0 -0.59017424871E+02 -0.13513023506E+03 -0.92597343577E+01  0.17611741897E+03  0.95855963396E+02 0.  0.
        -11    1    3    3    0    0  0.68039892287E+02  0.72079821588E+02 -0.66299943325E+02  0.11925019961E+03  0.00000000000E+00 0. -1.
         11    1    3    3    0    0  0.95605800142E+00  0.41558853102E+02  0.24559943738E+02  0.48282948900E+02  0.00000000000E+00 0.  1.
        -11    1    4    4    0    0 -0.45828592982E+02 -0.96740137907E+02  0.38207307526E+02  0.11366051454E+03  0.00000000000E+00 0. -1.
         11    1    4    4    0    0 -0.13188831889E+02 -0.38390097157E+02 -0.47467041883E+02  0.62456904434E+02  0.00000000000E+00 0.  1.
         21    1    1    2  502  501 -0.99785254166E+01  0.21491560374E+02 -0.22319296182E+02  0.32551637729E+02  0.00000000000E+00 0. -1.
<scales pt_clust_5="13000.00000" pt_clust_6="13000.00000" pt_clust_7="13000.00000" pt_clust_8="13000.00000" pt_clust_9="23.69511"></scales>
<clustering>
<clus scale="   23.695">  2  9  1 -1</clus>
<clus scale="   93.010">  5  6 -1 -1</clus>
<clus scale="   95.856">  7  8 -1 -1</clus>
<clus scale="  168.354">  2  5  1 -1</clus>
<clus scale="  169.942">  1  5  2 -1</clus>
</clustering>
</event>
<event>
 9    1  0.1484717E-005  0.1207557E+03  0.7546771E-02  0.1242066E+00
         -3   -1    0    0    0  501 -0.00000000000E+00  0.00000000000E+00  0.38796018457E+03  0.38796018457E+03  0.00000000000E+00 0.  1.
          3   -1    0    0  502    0  0.00000000000E+00 -0.00000000000E+00 -0.84859548830E+02  0.84859548830E+02  0.00000000000E+00 0. -1.
         23    2    1    2    0    0 -0.34816106107E+02  0.81793525262E+02  0.45934607693E+02  0.13592396416E+03  0.91994531519E+02 0.  0.
         23    2    1    2    0    0  0.19871245816E+01 -0.69078796385E+02  0.48631246287E+02  0.12541016320E+03  0.92665431231E+02 0.  0.
        -11    1    4    4    0    0  0.44131319471E+02 -0.49605946093E+02  0.41870543389E+02  0.78495003979E+02  0.00000000000E+00 0.  1.
         11    1    4    4    0    0 -0.42144194889E+02 -0.19472850292E+02  0.67607028984E+01  0.46915159224E+02  0.00000000000E+00 0. -1.
        -11    1    3    3    0    0  0.20072951083E+02  0.67501877016E+02  0.32885483573E+02  0.77723109791E+02  0.00000000000E+00 0.  1.
         11    1    3    3    0    0 -0.54889057189E+02  0.14291648246E+02  0.13049124120E+02  0.58200854367E+02  0.00000000000E+00 0. -1.
         21    1    1    2  502  501  0.32828981525E+02 -0.12714728877E+02  0.20853478176E+03  0.21148560604E+03  0.00000000000E+00 0.  1.
<scales pt_clust_5="13000.00000" pt_clust_6="13000.00000" pt_clust_7="13000.00000" pt_clust_8="13000.00000" pt_clust_9="35.20520"></scales>
<clustering>
<clus scale="   35.205">  1  9  2 -1</clus>
<clus scale="   91.995">  7  8 -1 -1</clus>
<clus scale="   92.665">  5  6 -1 -1</clus>
<clus scale="  120.242">  1  7  2 -1</clus>
<clus scale="  120.756">  2  5  1 -1</clus>
</clustering>
</event>
<event>
 9    1  0.1484717E-005  0.1213311E+03  0.7546771E-02  0.1253117E+00
          2   -1    0    0  502    0  0.00000000000E+00  0.00000000000E+00  0.22144653719E+03  0.22144653719E+03  0.00000000000E+00 0. -1.
         -2   -1    0    0    0  501 -0.00000000000E+00 -0.00000000000E+00 -0.15071528356E+03  0.15071528356E+03  0.00000000000E+00 0.  1.
         23    2    1    2    0    0  0.22550572648E+02  0.63388238137E+02  0.85130110698E+01  0.13805581846E+03  0.12025115630E+03 0.  0.
         23    2    1    2    0    0 -0.12281157292E+02  0.78256525413E+01  0.11194900109E+03  0.14664156689E+03  0.93590077639E+02 0.  0.
        -13    1    4    4    0    0  0.21329921930E+02  0.34919230205E+02  0.88526254529E+02  0.97525463078E+02  0.00000000000E+00 0. -1.
         13    1    4    4    0    0 -0.33611079222E+02 -0.27093577664E+02  0.23422746561E+02  0.49116103811E+02  0.00000000000E+00 0.  1.
        -13    1    3    3    0    0 -0.11772444241E+02 -0.32918446875E+02  0.77687786138E+01  0.35812965658E+02  0.00000000000E+00 0.  1.
         13    1    3    3    0    0  0.34323016889E+02  0.96306685012E+02  0.74423245592E+00  0.10224285280E+03  0.00000000000E+00 0. -1.
         21    1    1    2  502  501 -0.10269415356E+02 -0.71213890678E+02 -0.49730758534E+02  0.87464435411E+02  0.00000000000E+00 0.  1.
<scales pt_clust_5="13000.00000" pt_clust_6="13000.00000" pt_clust_7="13000.00000" pt_clust_8="13000.00000" pt_clust_9="71.95053"></scales>
<clustering>
<clus scale="   71.951">  2  9  1 -1</clus>
<clus scale="   93.590">  5  6 -1 -1</clus>
<clus scale="   94.974">  1  5  2 -1</clus>
<clus scale="  120.251">  7  8 -1 -1</clus>
<clus scale="   94.974">  1  5  2 -1</clus>
</clustering>
</event>
<event>
 9    1  0.1484717E-005  0.9580171E+02  0.7546771E-02  0.1291191E+00
         -2   -1    0    0    0  501 -0.00000000000E+00  0.00000000000E+00  0.32525377499E+02  0.32525377499E+02  0.00000000000E+00 0.  1.
          2   -1    0    0  502    0  0.00000000000E+00 -0.00000000000E+00 -0.57953445283E+03  0.57953445283E+03  0.00000000000E+00 0. -1.
         23    2    1    2    0    0  0.18604813141E+02 -0.37783251345E+02 -0.86790787074E+02  0.13166487982E+03  0.89606287177E+02 0.  0.
         23    2    1    2    0    0 -0.18076689768E+02  0.92987251605E+01 -0.42281175938E+03  0.43337478942E+03  0.92901513639E+02 0.  0.
        -13    1    3    3    0    0  0.53645933023E+02 -0.13415642743E+02 -0.39468346418E+02  0.67938324745E+02  0.00000000000E+00 0.  1.
         13    1    3    3    0    0 -0.35041119882E+02 -0.24367608602E+02 -0.47322440656E+02  0.63726555071E+02  0.00000000000E+00 0. -1.
        -13    1    4    4    0    0  0.11921001865E+02  0.44577147294E+02 -0.16027322543E+03  0.16678350978E+03  0.00000000000E+00 0. -1.
         13    1    4    4    0    0 -0.29997691633E+02 -0.35278422134E+02 -0.26253853395E+03  0.26659127964E+03  0.00000000000E+00 0.  1.
         21    1    1    2  502  501 -0.52812337263E+00  0.28484526184E+02 -0.37406528876E+02  0.47020161089E+02  0.00000000000E+00 0.  1.
<scales pt_clust_5="13000.00000" pt_clust_6="13000.00000" pt_clust_7="13000.00000" pt_clust_8="13000.00000" pt_clust_9="28.48942"></scales>
<clustering>
<clus scale="   28.489">  1  9  2 -1</clus>
<clus scale="   89.606">  5  6 -1 -1</clus>
<clus scale="   92.610">  1  5  2 -1</clus>
<clus scale="   92.902">  7  8 -1 -1</clus>
<clus scale="   95.802">  2  5  1 -1</clus>
</clustering>
</event>
<event>
 9    1  0.1484717E-005  0.1063905E+03  0.7546771E-02  0.1267812E+00
          1   -1    0    0  502    0  0.00000000000E+00  0.00000000000E+00  0.83260251222E+02  0.83260251222E+02  0.00000000000E+00 0. -1.
         -1   -1    0    0    0  501 -0.00000000000E+00 -0.00000000000E+00 -0.59367420296E+03  0.59367420296E+03  0.00000000000E+00 0.  1.
         23    2    1    2    0    0  0.43990335983E+02  0.33680993119E+02 -0.43689972081E+03  0.44993519266E+03  0.92145279806E+02 0.  0.
         23    2    1    2    0    0 -0.52597381902E+02  0.15731373206E+02  0.31188194712E+02  0.11090334807E+03  0.91175042851E+02 0.  0.
        -11    1    3    3    0    0 -0.24138498404E+02 -0.47643414450E+00 -0.49065244322E+02  0.54683565128E+02  0.00000000000E+00 0. -1.
         11    1    3    3    0    0  0.68128834387E+02  0.34157427263E+02 -0.38783447649E+03  0.39525162753E+03  0.00000000000E+00 0.  1.
        -13    1    4    4    0    0 -0.69956746747E+02  0.36391479713E+01 -0.36481400418E+01  0.70146266751E+02  0.00000000000E+00 0.  1.
         13    1    4    4    0    0  0.17359364845E+02  0.12092225235E+02  0.34836334754E+02  0.40757081323E+02  0.00000000000E+00 0. -1.
         21    1    1    2  502  501  0.86070459190E+01 -0.49412366324E+02 -0.10470242564E+03  0.11609591345E+03  0.00000000000E+00 0.  1.
<scales pt_clust_5="13000.00000" pt_clust_6="13000.00000" pt_clust_7="13000.00000" pt_clust_8="13000.00000" pt_clust_9="50.15639"></scales>
<clustering>
<clus scale="   50.156">  2  9  1 -1</clus>
<clus scale="   91.175">  7  8 -1 -1</clus>
<clus scale="   92.145">  5  6 -1 -1</clus>
<clus scale="  105.551">  1  7  2 -1</clus>
<clus scale="  105.551">  1  5  2 -1</clus>
</clustering>
</event>
<event>
 9    1  0.1484717E-005  0.1306394E+03  0.7546771E-02  0.1226755E+00
         -1   -1    0    0    0  501 -0.00000000000E+00  0.00000000000E+00  0.10878471326E+03  0.10878471326E+03  0.00000000000E+00 0.  1.
          1   -1    0    0  502    0  0.00000000000E+00 -0.00000000000E+00 -0.59112451298E+03  0.59112451298E+03  0.00000000000E+00 0. -1.
         23    2    1    2    0    0  0.29140390156E+02 -0.61013015565E+02 -0.72171329144E+02  0.13477343928E+03  0.91561065836E+02 0.  0.
         23    2    1    2    0    0 -0.39094402335E+02  0.91826191346E+02 -0.47422413585E+03  0.49336070484E+03  0.92497742385E+02 0.  0.
        -11    1    3    3    0    0  0.42320116836E+02 -0.19362206415E+02 -0.77869719009E+02  0.90717035141E+02  0.00000000000E+00 0. -1.
         11    1    3    3    0    0 -0.13179726680E+02 -0.41650809150E+02  0.56983898656E+01  0.44056404135E+02  0.00000000000E+00 0.  1.
        -13    1    4    4    0    0 -0.62089853504E+02  0.94219230625E+02 -0.40099696743E+03  0.41657049970E+03  0.00000000000E+00 0. -1.
         13    1    4    4    0    0  0.22995451169E+02 -0.23930392788E+01 -0.73227168419E+02  0.76790205145E+02  0.00000000000E+00 0.  1.
         21    1    1    2  502  501  0.99540121792E+01 -0.30813175781E+02  0.64055665273E+02  0.71775082123E+02  0.00000000000E+00 0.  1.
<scales pt_clust_5="13000.00000" pt_clust_6="13000.00000" pt_clust_7="13000.00000" pt_clust_8="13000.00000" pt_clust_9="32.38108"></scales>
<clustering>
<clus scale="   32.381">  1  9  2 -1</clus>
<clus scale="   91.561">  5  6 -1 -1</clus>
<clus scale="   92.498">  7  8 -1 -1</clus>
<clus scale="  129.978">  1  5  2 -1</clus>
<clus scale="  130.639">  2  5  1 -1</clus>
</clustering>
</event>
<event>
 9    1  0.1484717E-005  0.9745563E+02  0.7546771E-02  0.1288123E+00
         -2   -1    0    0    0  501 -0.00000000000E+00  0.00000000000E+00  0.29181721211E+03  0.29181721211E+03  0.00000000000E+00 0.  1.
          2   -1    0    0  502    0  0.00000000000E+00 -0.00000000000E+00 -0.50529702081E+03  0.50529702081E+03  0.00000000000E+00 0. -1.
         23    2    1    2    0    0 -0.18944509583E+02 -0.18671289438E+02  0.25105908040E+03  0.26659490241E+03  0.85642680034E+02 0.  0.
         23    2    1    2    0    0 -0.34025454381E+01  0.36927061916E+02 -0.48527105758E+03  0.49498783875E+03  0.90276109612E+02 0.  0.
        -13    1    4    4    0    0 -0.34047668016E+02 -0.13154874116E+02 -0.13584506062E+03  0.14066333888E+03  0.00000000000E+00 0.  1.
         13    1    4    4    0    0  0.30645122578E+02  0.50081936031E+02 -0.34942599696E+03  0.35432449987E+03  0.00000000000E+00 0. -1.
        -13    1    3    3    0    0  0.27379396746E+02 -0.29137648961E+02  0.86011687225E+02  0.94850642024E+02  0.00000000000E+00 0.  1.
         13    1    3    3    0    0 -0.46323906329E+02  0.10466359523E+02  0.16504739318E+03  0.17174426038E+03  0.00000000000E+00 0. -1.
         21    1    1    2  502  501  0.22347055022E+02 -0.18255772478E+02  0.20732168484E+02  0.35531491763E+02  0.00000000000E+00 0.  1.
<scales pt_clust_5="13000.00000" pt_clust_6="13000.00000" pt_clust_7="13000.00000" pt_clust_8="13000.00000" pt_clust_9="28.85592"></scales>
<clustering>
<clus scale="   28.856">  1  9  2 -1</clus>
<clus scale="   85.643">  7  8 -1 -1</clus>
<clus scale="   90.276">  5  6 -1 -1</clus>
<clus scale="   93.180">  1  7  2 -1</clus>
<clus scale="   97.456">  2  5  1 -1</clus>
</clustering>
</event>
<event>
 9    1  0.1484717E-005  0.1042436E+03  0.7546771E-02  0.1272257E+00
         -2   -1    0    0    0  501 -0.00000000000E+00  0.00000000000E+00  0.68859217576E+02  0.68859217576E+02  0.00000000000E+00 0. -1.
          2   -1    0    0  502    0  0.00000000000E+00 -0.00000000000E+00 -0.32344651450E+03  0.32344651450E+03  0.00000000000E+00 0.  1.
         23    2    1    2    0    0 -0.27153728034E+02  0.73903750400E+01 -0.65065128840E+01  0.94969169033E+02  0.90470247968E+02 0.  0.
         23    2    1    2    0    0  0.40902325403E+02 -0.37195846966E+02 -0.24094848493E+03  0.26374698465E+03  0.91922621075E+02 0.  0.
        -11    1    4    4    0    0  0.62950572565E+02 -0.45334967929E+02 -0.13957510065E+03  0.15968482278E+03  0.00000000000E+00 0.  1.
         11    1    4    4    0    0 -0.22048247162E+02  0.81391209633E+01 -0.10137338428E+03  0.10406216187E+03  0.00000000000E+00 0. -1.
        -13    1    3    3    0    0 -0.26365180336E+02 -0.33932027021E+02  0.18366988100E+02  0.46731696350E+02  0.00000000000E+00 0.  1.
         13    1    3    3    0    0 -0.78854769833E+00  0.41322402061E+02 -0.24873500984E+02  0.48237472682E+02  0.00000000000E+00 0. -1.
         21    1    1    2  502  501 -0.13748597369E+02  0.29805471926E+02 -0.71322991120E+01  0.33589578398E+02  0.00000000000E+00 0. -1.
<scales pt_clust_5="13000.00000" pt_clust_6="13000.00000" pt_clust_7="13000.00000" pt_clust_8="13000.00000" pt_clust_9="32.82362"></scales>
<clustering>
<clus scale="   32.824">  1  9  2 -1</clus>
<clus scale="   90.470">  7  8 -1 -1</clus>
<clus scale="   91.923">  5  6 -1 -1</clus>
<clus scale="  102.965">  1  7  2 -1</clus>
<clus scale="  104.244">  2  5  1 -1</clus>
</clustering>
</event>
<event>
 9    1  0.1484717E-005  0.1132249E+03  0.7546771E-02  0.1255065E+00
         -1   -1    0    0    0  501 -0.00000000000E+00  0.00000000000E+00  0.84806745441E+03  0.84806745441E+03  0.00000000000E+00 0.  1.
          1   -1    0    0  502    0  0.00000000000E+00 -0.00000000000E+00 -0.11786752207E+03  0.11786752207E+03  0.00000000000E+00 0. -1.
         23    2    1    2    0    0 -0.10895928498E+03 -0.54518308348E+02  0.29795930483E+03  0.33468487090E+03  0.91596090235E+02 0.  0.
         23    2    1    2    0    0  0.54050741361E+02 -0.35701066491E+02 -0.59920357672E+02  0.12788451370E+03  0.92563225908E+02 0.  0.
        -11    1    4    4    0    0  0.24935644006E+02  0.19360454299E+01  0.21893301472E+02  0.33239302990E+02  0.00000000000E+00 0.  1.
         11    1    4    4    0    0  0.29115097355E+02 -0.37637111921E+02 -0.81813659145E+02  0.94645210710E+02  0.00000000000E+00 0. -1.
        -11    1    3    3    0    0 -0.77986442450E+02 -0.44000778314E+02  0.28627265242E+03  0.29994997120E+03  0.00000000000E+00 0. -1.
         11    1    3    3    0    0 -0.30972842532E+02 -0.10517530033E+02  0.11686652402E+02  0.34734899696E+02  0.00000000000E+00 0.  1.
         21    1    1    2  502  501  0.54908543620E+02  0.90219374838E+02  0.49216098518E+03  0.50336559188E+03  0.00000000000E+00 0.  1.
<scales pt_clust_5="13000.00000" pt_clust_6="13000.00000" pt_clust_7="13000.00000" pt_clust_8="13000.00000" pt_clust_9="105.61479"></scales>
<clustering>
<clus scale="   91.596">  7  8 -1 -1</clus>
<clus scale="   92.563">  5  6 -1 -1</clus>
<clus scale="  105.615">  1  9  2 -1</clus>
<clus scale="  112.436">  1  7  2 -1</clus>
<clus scale="  113.225">  2  5  1 -1</clus>
</clustering>
</event>
<event>
 9    1  0.1484717E-005  0.2962775E+03  0.7546771E-02  0.1087382E+00
          2   -1    0    0  502    0  0.00000000000E+00  0.00000000000E+00  0.11902140747E+04  0.11902140747E+04  0.00000000000E+00 0. -1.
         -2   -1    0    0    0  501 -0.00000000000E+00 -0.00000000000E+00 -0.10621239967E+03  0.10621239967E+03  0.00000000000E+00 0.  1.
         23    2    1    2    0    0 -0.60727621462E+02 -0.28666974768E+03  0.37141397498E+03  0.48423986533E+03  0.10330788025E+03 0.  0.
         23    2    1    2    0    0 -0.48797462311E+01  0.27211852142E+03  0.67709608183E+03  0.73618845221E+03  0.97170116339E+02 0.  0.
        -11    1    4    4    0    0 -0.21104608761E+02  0.62846555039E+02  0.83774726450E+02  0.10683304163E+03  0.00000000000E+00 0.  1.
         11    1    4    4    0    0  0.16224862530E+02  0.20927196638E+03  0.59332135538E+03  0.62935541058E+03  0.00000000000E+00 0. -1.
        -11    1    3    3    0    0 -0.62829289230E+02 -0.24003884886E+03  0.35816843904E+03  0.43571871577E+03  0.00000000000E+00 0.  1.
         11    1    3    3    0    0  0.21016677678E+01 -0.46630898819E+02  0.13245535935E+02  0.48521149556E+02  0.00000000000E+00 0. -1.
         21    1    1    2  502  501  0.65607367693E+02  0.14551226263E+02  0.35491618255E+02  0.75998156871E+02  0.00000000000E+00 0. -1.
<scales pt_clust_5="13000.00000" pt_clust_6="13000.00000" pt_clust_7="13000.00000" pt_clust_8="13000.00000" pt_clust_9="67.20167"></scales>
<clustering>
<clus scale="   67.202">  2  9  1 -1</clus>
<clus scale="   97.170">  5  6 -1 -1</clus>
<clus scale="  103.308">  7  8 -1 -1</clus>
<clus scale="  294.194">  1  5  2 -1</clus>
<clus scale="  294.194">  1  5  2 -1</clus>
</clustering>
</event>
<event>
 9    1  0.1484717E-005  0.9664060E+02  0.7546771E-02  0.1288364E+00
         -1   -1    0    0    0  501 -0.00000000000E+00  0.00000000000E+00  0.73330240610E+03  0.73330240610E+03  0.00000000000E+00 0.  1.
          1   -1    0    0  502    0  0.00000000000E+00 -0.00000000000E+00 -0.73597102351E+02  0.73597102351E+02  0.00000000000E+00 0. -1.
         23    2    1    2    0    0 -0.61183389675E+01 -0.88501568357E+02  0.10678021806E+03  0.16621849899E+03  0.91414510691E+02 0.  0.
         23    2    1    2    0    0  0.69964569676E+00  0.17939970515E+01  0.13121014396E+02  0.93930608873E+02  0.92989732416E+02 0.  0.
        -11    1    4    4    0    0  0.25349953745E+02 -0.32863394124E+02  0.26622803679E+02  0.49309192895E+02  0.00000000000E+00 0.  1.
         11    1    4    4    0    0 -0.24650308048E+02  0.34657391176E+02 -0.13501789283E+02  0.44621415977E+02  0.00000000000E+00 0. -1.
        -13    1    3    3    0    0 -0.30562982683E+02 -0.36533102941E+02  0.31462588350E+01  0.47735337703E+02  0.00000000000E+00 0. -1.
         13    1    3    3    0    0  0.24444643716E+02 -0.51968465416E+02  0.10363395923E+03  0.11848316129E+03  0.00000000000E+00 0.  1.
         21    1    1    2  502  501  0.54186932708E+01  0.86707571305E+02  0.53980407129E+03  0.54675040058E+03  0.00000000000E+00 0. -1.
<scales pt_clust_5="13000.00000" pt_clust_6="13000.00000" pt_clust_7="13000.00000" pt_clust_8="13000.00000" pt_clust_9="86.87672"></scales>
<clustering>
<clus scale="   86.877">  1  9  2 -1</clus>
<clus scale="   91.415">  7  8 -1 -1</clus>
<clus scale="   92.990">  5  6 -1 -1</clus>
<clus scale="   95.126">  1  7  2 -1</clus>
<clus scale="   96.641">  2  5  1 -1</clus>
</clustering>
</event>
<event>
 9    1  0.1484717E-005  0.1502418E+03  0.7546771E-02  0.1201405E+00
         -1   -1    0    0    0  501 -0.00000000000E+00  0.00000000000E+00  0.32764368100E+03  0.32764368100E+03  0.00000000000E+00 0.  1.
          1   -1    0    0  502    0  0.00000000000E+00 -0.00000000000E+00 -0.13365006220E+03  0.13365006220E+03  0.00000000000E+00 0. -1.
         23    2    1    2    0    0 -0.10599510400E+03  0.41586360644E+02  0.52064991147E+02  0.15547959876E+03  0.92188691630E+02 0.  0.
         23    2    1    2    0    0  0.11978201857E+03 -0.25329336071E+02 -0.12511095650E+02  0.14991033436E+03  0.85599495302E+02 0.  0.
        -11    1    4    4    0    0  0.45971122066E+02 -0.30031096794E+02  0.32033447102E+02  0.63571633390E+02  0.00000000000E+00 0.  1.
         11    1    4    4    0    0  0.73810896504E+02  0.47017607234E+01 -0.44544542752E+02  0.86338700973E+02  0.00000000000E+00 0. -1.
        -11    1    3    3    0    0 -0.69857121135E+02 -0.19587907571E+02  0.41686005894E+02  0.83674527687E+02  0.00000000000E+00 0.  1.
         11    1    3    3    0    0 -0.36137982869E+02  0.61174268216E+02  0.10378985254E+02  0.71805071078E+02  0.00000000000E+00 0. -1.
         21    1    1    2  502  501 -0.13786914567E+02 -0.16257024574E+02  0.15443972330E+03  0.15590381007E+03  0.00000000000E+00 0.  1.
<scales pt_clust_5="13000.00000" pt_clust_6="13000.00000" pt_clust_7="13000.00000" pt_clust_8="13000.00000" pt_clust_9="21.31595"></scales>
<clustering>
<clus scale="   21.316">  1  9  2 -1</clus>
<clus scale="   85.599">  5  6 -1 -1</clus>
<clus scale="   92.189">  7  8 -1 -1</clus>
<clus scale="  146.291">  2  5  1 -1</clus>
<clus scale="  146.291">  2  5  1 -1</clus>
</clustering>
</event>
<event>
 9    1  0.1484717E-005  0.1188203E+03  0.7546771E-02  0.1245507E+00
          1   -1    0    0  502    0  0.00000000000E+00  0.00000000000E+00  0.23249581155E+02  0.23249581155E+02  0.00000000000E+00 0. -1.
         -1   -1    0    0    0  501 -0.00000000000E+00 -0.00000000000E+00 -0.87586515281E+03  0.87586515281E+03  0.00000000000E+00 0.  1.
         23    2    1    2    0    0 -0.57471103998E+02 -0.85678473759E+01 -0.40434528267E+03  0.41821649471E+03  0.89630313092E+02 0.  0.
         23    2    1    2    0    0  0.83809026374E+02  0.30028536536E+02 -0.25906003655E+03  0.28866201229E+03  0.91038392401E+02 0.  0.
        -11    1    3    3    0    0  0.20789664682E+02 -0.42117640236E+00 -0.36115380676E+02  0.41673831939E+02  0.00000000000E+00 0.  1.
         11    1    3    3    0    0 -0.78260768680E+02 -0.81466709736E+01 -0.36822990200E+03  0.37654266277E+03  0.00000000000E+00 0. -1.
        -13    1    4    4    0    0  0.31558679762E+02  0.58209725687E+02 -0.16023321066E+03  0.17337532763E+03  0.00000000000E+00 0.  1.
         13    1    4    4    0    0  0.52250346612E+02 -0.28181189151E+02 -0.98826825897E+02  0.11528668466E+03  0.00000000000E+00 0. -1.
         21    1    1    2  502  501 -0.26337922376E+02 -0.21460689160E+02 -0.18921025243E+03  0.19223622697E+03  0.00000000000E+00 0. -1.
<scales pt_clust_5="13000.00000" pt_clust_6="13000.00000" pt_clust_7="13000.00000" pt_clust_8="13000.00000" pt_clust_9="33.97422"></scales>
<clustering>
<clus scale="   33.974">  2  9  1 -1</clus>
<clus scale="   89.630">  5  6 -1 -1</clus>
<clus scale="   91.038">  7  8 -1 -1</clus>
<clus scale="  117.745">  2  5  1 -1</clus>
<clus scale="  118.820">  1  5  2 -1</clus>
</clustering>
</event>
<event>
 9    1  0.1484717E-005  0.1328060E+03  0.7546771E-02  0.1225069E+00
         -2   -1    0    0    0  501 -0.00000000000E+00  0.00000000000E+00  0.77179826404E+02  0.77179826404E+02  0.00000000000E+00 0.  1.
          2   -1    0    0  502    0  0.00000000000E+00 -0.00000000000E+00 -0.34243385516E+03  0.34243385516E+03  0.00000000000E+00 0. -1.
         23    2    1    2    0    0 -0.23328651161E+02 -0.10982712599E+03 -0.58109427222E+02  0.15256654615E+03  0.85402704320E+02 0.  0.
         23    2    1    2    0    0  0.38568264917E+02  0.60709565197E+02 -0.14852007086E+03  0.18906241766E+03  0.92267133682E+02 0.  0.
        -11    1    3    3    0    0 -0.49885788269E+02 -0.94220224573E+02 -0.58807042777E+02  0.12175512667E+03  0.00000000000E+00 0.  1.
         11    1    3    3    0    0  0.26557137109E+02 -0.15606901417E+02  0.69761555529E+00  0.30811419486E+02  0.00000000000E+00 0. -1.
        -13    1    4    4    0    0  0.67154066839E+01  0.23328620033E+02  0.75697476042E+01  0.25428768715E+02  0.00000000000E+00 0.  1.
         13    1    4    4    0    0  0.31852858233E+02  0.37380945164E+02 -0.15608981846E+03  0.16363364894E+03  0.00000000000E+00 0. -1.
         21    1    1    2  502  501 -0.15239613756E+02  0.49117560793E+02 -0.58624530675E+02  0.77984717750E+02  0.00000000000E+00 0. -1.
<scales pt_clust_5="13000.00000" pt_clust_6="13000.00000" pt_clust_7="13000.00000" pt_clust_8="13000.00000" pt_clust_9="51.42743"></scales>
<clustering>
<clus scale="   51.427">  2  9  1 -1</clus>
<clus scale="   85.403">  5  6 -1 -1</clus>
<clus scale="   92.267">  7  8 -1 -1</clus>
<clus scale="  128.132">  1  5  2 -1</clus>
<clus scale="   51.427">  2  5  1 -1</clus>
</clustering>
</event>
<event>
 9    1  0.1484717E-005  0.1286385E+03  0.7546771E-02  0.1229919E+00
          1   -1    0    0  502    0  0.00000000000E+00  0.00000000000E+00  0.58914290966E+03  0.58914290966E+03  0.00000000000E+00 0. -1.
         -1   -1    0    0    0  501 -0.00000000000E+00 -0.00000000000E+00 -0.14896488277E+03  0.14896488277E+03  0.00000000000E+00 0.  1.
         23    2    1    2    0    0 -0.53127624316E+02  0.53290629080E+02 -0.11462187739E+02  0.11886392579E+03  0.91295210678E+02 0.  0.
         23    2    1    2    0    0 -0.25259360754E+02 -0.93907426836E+02  0.50094871728E+03  0.51812229564E+03  0.89690890176E+02 0.  0.
        -11    1    3    3    0    0  0.21690484020E+02  0.35182897008E+02 -0.39485138823E+01  0.41519924142E+02  0.00000000000E+00 0.  1.
         11    1    3    3    0    0 -0.74818108336E+02  0.18107732072E+02 -0.75136738565E+01  0.77344001646E+02  0.00000000000E+00 0. -1.
        -13    1    4    4    0    0  0.18705799445E+02 -0.27229833828E+02  0.48525002267E+02  0.58703037640E+02  0.00000000000E+00 0.  1.
         13    1    4    4    0    0 -0.43965160199E+02 -0.66677593008E+02  0.45242371501E+03  0.45941925800E+03  0.00000000000E+00 0. -1.
         21    1    1    2  502  501  0.78386985070E+02  0.40616797756E+02 -0.49308502641E+02  0.10112157100E+03  0.00000000000E+00 0.  1.
<scales pt_clust_5="13000.00000" pt_clust_6="13000.00000" pt_clust_7="13000.00000" pt_clust_8="13000.00000" pt_clust_9="88.28501"></scales>
<clustering>
<clus scale="   88.285">  2  9  1 -1</clus>
<clus scale="   89.691">  7  8 -1 -1</clus>
<clus scale="   91.295">  5  6 -1 -1</clus>
<clus scale="  127.505">  1  7  2 -1</clus>
<clus scale="  127.505">  1  5  2 -1</clus>
</clustering>
</event>
<event>
 9    1  0.1484717E-005  0.1224116E+03  0.7546771E-02  0.1239825E+00
          1   -1    0    0  502    0  0.00000000000E+00  0.00000000000E+00  0.49140723925E+03  0.49140723925E+03  0.00000000000E+00 0. -1.
         -1   -1    0    0    0  501 -0.00000000000E+00 -0.00000000000E+00 -0.56849591206E+02  0.56849591206E+02  0.00000000000E+00 0.  1.
         23    2    1    2    0    0  0.43906049138E+02 -0.68447989241E+01  0.40796842975E+02  0.10799189208E+03  0.89572729859E+02 0.  0.
         23    2    1    2    0    0 -0.87182114743E+02  0.37701180078E+02  0.33964346396E+03  0.36441231337E+03  0.91741764830E+02 0.  0.
        -13    1    3    3    0    0  0.18648689662E+02 -0.33599527090E+02  0.56218638541E+02  0.68097262546E+02  0.00000000000E+00 0. -1.
         13    1    3    3    0    0  0.25257359476E+02  0.26754728166E+02 -0.15421795566E+02  0.39894629531E+02  0.00000000000E+00 0.  1.
        -13    1    4    4    0    0 -0.98530387486E+02  0.64061414896E+01  0.25722887250E+03  0.27552852621E+03  0.00000000000E+00 0. -1.
         13    1    4    4    0    0  0.11348272743E+02  0.31295038589E+02  0.82414591458E+02  0.88883787159E+02  0.00000000000E+00 0.  1.
         21    1    1    2  502  501  0.43276065604E+02 -0.30856381154E+02  0.54117341107E+02  0.75852625008E+02  0.00000000000E+00 0. -1.
<scales pt_clust_5="13000.00000" pt_clust_6="13000.00000" pt_clust_7="13000.00000" pt_clust_8="13000.00000" pt_clust_9="53.15011"></scales>
<clustering>
<clus scale="   53.150">  2  9  1 -1</clus>
<clus scale="   89.573">  5  6 -1 -1</clus>
<clus scale="   91.742">  7  8 -1 -1</clus>
<clus scale="  120.795">  2  5  1 -1</clus>
<clus scale="  122.412">  1  5  2 -1</clus>
</clustering>
</event>
<event>
 9    1  0.1484717E-005  0.1186183E+03  0.7546771E-02  0.1246731E+00
         -3   -1    0    0    0  501 -0.00000000000E+00  0.00000000000E+00  0.15320866772E+03  0.15320866772E+03  0.00000000000E+00 0.  1.
          3   -1    0    0  502    0  0.00000000000E+00 -0.00000000000E+00 -0.27196905030E+03  0.27196905030E+03  0.00000000000E+00 0. -1.
         23    2    1    2    0    0 -0.66467125811E+02 -0.26328948639E+01  0.76552177341E+02  0.13850294688E+03  0.94329314054E+02 0.  0.
         23    2    1    2    0    0  0.69002269159E+02 -0.24459264792E+02 -0.22070085829E+03  0.24945948180E+03  0.90341548737E+02 0.  0.
        -11    1    3    3    0    0 -0.26221728635E+02  0.15651281802E+02 -0.17059314497E+02  0.34979449478E+02  0.00000000000E+00 0. -1.
         11    1    3    3    0    0 -0.40245397176E+02 -0.18284176666E+02  0.93611491838E+02  0.10352349740E+03  0.00000000000E+00 0.  1.
        -11    1    4    4    0    0 -0.52078079118E+01 -0.32779812361E+02 -0.30311417005E+02  0.44949075213E+02  0.00000000000E+00 0.  1.
         11    1    4    4    0    0  0.74210077071E+02  0.83205475686E+01 -0.19038944128E+03  0.20451040659E+03  0.00000000000E+00 0. -1.
         21    1    1    2  502  501 -0.25351433481E+01  0.27092159656E+02  0.25388298367E+02  0.37215289339E+02  0.00000000000E+00 0.  1.
<scales pt_clust_5="13000.00000" pt_clust_6="13000.00000" pt_clust_7="13000.00000" pt_clust_8="13000.00000" pt_clust_9="27.21051"></scales>
<clustering>
<clus scale="   27.211">  1  9  2 -1</clus>
<clus scale="   90.342">  7  8 -1 -1</clus>
<clus scale="   94.329">  5  6 -1 -1</clus>
<clus scale="  115.472">  2  7  1 -1</clus>
<clus scale="  115.472">  2  5  1 -1</clus>
</clustering>
</event>
<event>
 9    1  0.1484717E-005  0.9777978E+02  0.7546771E-02  0.1285247E+00
         -1   -1    0    0    0  501 -0.00000000000E+00  0.00000000000E+00  0.51346451672E+02  0.51346451672E+02  0.00000000000E+00 0.  1.
          1   -1    0    0  502    0  0.00000000000E+00 -0.00000000000E+00 -0.48317231407E+03  0.48317231407E+03  0.00000000000E+00 0. -1.
         23    2    1    2    0    0 -0.57948707757E+02  0.10368875772E+02 -0.13506556964E+03  0.17498650978E+03  0.94403411951E+02 0.  0.
         23    2    1    2    0    0  0.92574324610E+01 -0.69918186461E+01 -0.29566715885E+03  0.31071177106E+03  0.94805855649E+02 0.  0.
        -11    1    4    4    0    0 -0.38350233575E+02  0.10940628455E+02 -0.17977622107E+03  0.18414648362E+03  0.00000000000E+00 0. -1.
         11    1    4    4    0    0  0.47607666036E+02 -0.17932447101E+02 -0.11589093778E+03  0.12656528744E+03  0.00000000000E+00 0.  1.
        -11    1    3    3    0    0  0.53608684277E+01  0.29913514820E+02 -0.89642490186E+02  0.94653754949E+02  0.00000000000E+00 0.  1.
         11    1    3    3    0    0 -0.63309576184E+02 -0.19544639047E+02 -0.45423079458E+02  0.80332754836E+02  0.00000000000E+00 0. -1.
         21    1    1    2  502  501  0.48691275296E+02 -0.33770571262E+01 -0.10931339062E+01  0.48820484906E+02  0.00000000000E+00 0.  1.
<scales pt_clust_5="13000.00000" pt_clust_6="13000.00000" pt_clust_7="13000.00000" pt_clust_8="13000.00000" pt_clust_9="48.80825"></scales>
<clustering>
<clus scale="   48.808">  1  9  2 -1</clus>
<clus scale="   94.403">  7  8 -1 -1</clus>
<clus scale="   94.806">  5  6 -1 -1</clus>
<clus scale="   97.390">  1  7  2 -1</clus>
<clus scale="   97.780">  2  5  1 -1</clus>
</clustering>
</event>
<event>
 9    1  0.1484717E-005  0.1008306E+03  0.7546771E-02  0.1279192E+00
         -1   -1    0    0    0  501 -0.00000000000E+00  0.00000000000E+00  0.77943372679E+02  0.77943372679E+02  0.00000000000E+00 0.  1.
          1   -1    0    0  502    0  0.00000000000E+00 -0.00000000000E+00 -0.25052605337E+03  0.25052605337E+03  0.00000000000E+00 0. -1.
         23    2    1    2    0    0  0.46347287397E+02 -0.15933091723E+02 -0.87294151563E+02  0.13739613943E+03  0.94103643772E+02 0.  0.
         23    2    1    2    0    0 -0.21930556443E+02  0.17689298623E+02 -0.11638317543E+03  0.15149882463E+03  0.92806194560E+02 0.  0.
        -11    1    3    3    0    0 -0.20506059482E+02  0.15202902439E+02 -0.34923412007E+01  0.25764765963E+02  0.00000000000E+00 0.  1.
         11    1    3    3    0    0  0.66853346879E+02 -0.31135994161E+02 -0.83801810362E+02  0.11163137346E+03  0.00000000000E+00 0. -1.
        -13    1    4    4    0    0  0.34535401561E+02  0.80078245852E+01 -0.24061162076E+02  0.42845755170E+02  0.00000000000E+00 0. -1.
         13    1    4    4    0    0 -0.56465958004E+02  0.96814740377E+01 -0.92322013359E+02  0.10865306946E+03  0.00000000000E+00 0.  1.
         21    1    1    2  502  501 -0.24416730954E+02 -0.17562069003E+01  0.31094646306E+02  0.39574461993E+02  0.00000000000E+00 0.  1.
<scales pt_clust_5="13000.00000" pt_clust_6="13000.00000" pt_clust_7="13000.00000" pt_clust_8="13000.00000" pt_clust_9="24.47981"></scales>
<clustering>
<clus scale="   24.480">  1  9  2 -1</clus>
<clus scale="   92.806">  7  8 -1 -1</clus>
<clus scale="   94.104">  5  6 -1 -1</clus>
<clus scale="   99.621">  2  7  1 -1</clus>
<clus scale="   99.621">  2  5  1 -1</clus>
</clustering>
</event>
<event>
 9    1  0.1484717E-005  0.1402414E+03  0.7546771E-02  0.1213612E+00
         -2   -1    0    0    0  501 -0.00000000000E+00  0.00000000000E+00  0.51088636553E+02  0.51088636553E+02  0.00000000000E+00 0.  1.
          2   -1    0    0  502    0  0.00000000000E+00 -0.00000000000E+00 -0.54150039664E+03  0.54150039664E+03  0.00000000000E+00 0. -1.
         23    2    1    2    0    0 -0.10589985710E+03  0.11684491112E+02 -0.16667962791E+03  0.21695457961E+03  0.89083579808E+02 0.  0.
         23    2    1    2    0    0  0.10550460552E+03  0.20411322678E+02 -0.31001947952E+03  0.34072980733E+03  0.91852490670E+02 0.  0.
        -11    1    3    3    0    0 -0.17667928218E+02 -0.13675033139E+02 -0.10258529104E+03  0.10499001932E+03  0.00000000000E+00 0. -1.
         11    1    3    3    0    0 -0.88231928879E+02  0.25359524251E+02 -0.64094336865E+02  0.11196456030E+03  0.00000000000E+00 0.  1.
        -11    1    4    4    0    0  0.50589297023E+02 -0.35138771490E+02 -0.16296237543E+03  0.17421465507E+03  0.00000000000E+00 0.  1.
         11    1    4    4    0    0  0.54915308495E+02  0.55550094168E+02 -0.14705710409E+03  0.16651515226E+03  0.00000000000E+00 0. -1.
         21    1    1    2  502  501  0.39525157912E+00 -0.32095813790E+02 -0.13712652661E+02  0.34904646248E+02  0.00000000000E+00 0.  1.
<scales pt_clust_5="13000.00000" pt_clust_6="13000.00000" pt_clust_7="13000.00000" pt_clust_8="13000.00000" pt_clust_9="32.09825"></scales>
<clustering>
<clus scale="   32.098">  1  9  2 -1</clus>
<clus scale="   89.084">  5  6 -1 -1</clus>
<clus scale="   91.852">  7  8 -1 -1</clus>
<clus scale="  138.444">  1  5  2 -1</clus>
<clus scale="  140.241">  2  5  1 -1</clus>
</clustering>
</event>
<event>
 9    1  0.1484717E-005  0.1036524E+03  0.7546771E-02  0.1273363E+00
          2   -1    0    0  502    0  0.00000000000E+00  0.00000000000E+00  0.28246016982E+03  0.28246016982E+03  0.00000000000E+00 0. -1.
         -2   -1    0    0    0  501 -0.00000000000E+00 -0.00000000000E+00 -0.80602176436E+02  0.80602176436E+02  0.00000000000E+00 0.  1.
         23    2    1    2    0    0 -0.28951534250E+02  0.34099771356E+02  0.50260152933E+02  0.11469181783E+03  0.92882422252E+02 0.  0.
         23    2    1    2    0    0  0.44079229385E+02 -0.18938348116E+02  0.18309035495E+03  0.21028517187E+03  0.91630431303E+02 0.  0.
        -13    1    3    3    0    0 -0.53939683822E+02  0.30496763810E+02  0.61277260440E+02  0.87146111450E+02  0.00000000000E+00 0. -1.
         13    1    3    3    0    0  0.24988149573E+02  0.36030075460E+01 -0.11017107507E+02  0.27545706385E+02  0.00000000000E+00 0.  1.
        -13    1    4    4    0    0  0.55357642816E+02  0.22949524155E+02  0.11125704106E+03  0.12636961051E+03  0.00000000000E+00 0. -1.
         13    1    4    4    0    0 -0.11278413431E+02 -0.41887872270E+02  0.71833313892E+02  0.83915561355E+02  0.00000000000E+00 0.  1.
         21    1    1    2  502  501 -0.15127695136E+02 -0.15161423240E+02 -0.31492514493E+02  0.38085356555E+02  0.00000000000E+00 0.  1.
<scales pt_clust_5="13000.00000" pt_clust_6="13000.00000" pt_clust_7="13000.00000" pt_clust_8="13000.00000" pt_clust_9="21.41765"></scales>
<clustering>
<clus scale="   21.418">  2  9  1 -1</clus>
<clus scale="   91.630">  7  8 -1 -1</clus>
<clus scale="   92.882">  5  6 -1 -1</clus>
<clus scale="  102.532">  1  7  2 -1</clus>
<clus scale="  102.532">  1  5  2 -1</clus>
</clustering>
</event>
<event>
 9    1  0.1484717E-005  0.1397662E+03  0.7546771E-02  0.1214676E+00
         -2   -1    0    0    0  501 -0.00000000000E+00  0.00000000000E+00  0.98417907508E+02  0.98417907508E+02  0.00000000000E+00 0.  1.
          2   -1    0    0  502    0  0.00000000000E+00 -0.00000000000E+00 -0.49845571693E+03  0.49845571693E+03  0.00000000000E+00 0. -1.
         23    2    1    2    0    0 -0.92007385880E+02 -0.72793977738E+02 -0.23297040249E+02  0.14970176164E+03  0.90019681742E+02 0.  0.
         23    2    1    2    0    0  0.84679063262E+02  0.53878308013E+02 -0.39592613069E+03  0.41925081392E+03  0.94553308670E+02 0.  0.
        -13    1    3    3    0    0 -0.10995020777E+03 -0.58529813035E+02 -0.23617584100E+02  0.12677766949E+03  0.00000000000E+00 0.  1.
         13    1    3    3    0    0  0.17942821894E+02 -0.14264164703E+02  0.32054385154E+00  0.22924092142E+02  0.00000000000E+00 0. -1.
        -13    1    4    4    0    0  0.20017086532E+02 -0.22105563812E+02 -0.16528950112E+03  0.16795820577E+03  0.00000000000E+00 0. -1.
         13    1    4    4    0    0  0.64661976729E+02  0.75983871825E+02 -0.23063662957E+03  0.25129260816E+03  0.00000000000E+00 0.  1.
         21    1    1    2  502  501  0.73283226180E+01  0.18915669725E+02  0.19185361523E+02  0.27921048876E+02  0.00000000000E+00 0.  1.
<scales pt_clust_5="13000.00000" pt_clust_6="13000.00000" pt_clust_7="13000.00000" pt_clust_8="13000.00000" pt_clust_9="20.28563"></scales>
<clustering>
<clus scale="   20.286">  1  9  2 -1</clus>
<clus scale="   90.020">  5  6 -1 -1</clus>
<clus scale="   94.553">  7  8 -1 -1</clus>
<clus scale="  136.740">  1  5  2 -1</clus>
<clus scale="  139.766">  2  5  1 -1</clus>
</clustering>
</event>
<event>
 9    1  0.1484717E-005  0.1895284E+03  0.7546771E-02  0.1169309E+00
          2   -1    0    0  502    0  0.00000000000E+00  0.00000000000E+00  0.89723475961E+03  0.89723475961E+03  0.00000000000E+00 0. -1.
         -2   -1    0    0    0  501 -0.00000000000E+00 -0.00000000000E+00 -0.75898850211E+02  0.75898850211E+02  0.00000000000E+00 0.  1.
         23    2    1    2    0    0  0.37488432829E+02 -0.12183876721E+03  0.31137445816E+03  0.35006378955E+03  0.96646447265E+02 0.  0.
         23    2    1    2    0    0 -0.92145632578E+02 -0.76733992233E+02  0.25493325314E+03  0.29526205327E+03  0.88373035374E+02 0.  0.
        -11    1    3    3    0    0 -0.10002987649E+02 -0.10916708440E+03  0.19434460226E+03  0.22313076100E+03  0.00000000000E+00 0. -1.
         11    1    3    3    0    0  0.47491420478E+02 -0.12671682811E+02  0.11702985591E+03  0.12693302855E+03  0.00000000000E+00 0.  1.
        -13    1    4    4    0    0 -0.10368833737E+03 -0.45075747603E+02  0.21576830206E+03  0.24359608885E+03  0.00000000000E+00 0.  1.
         13    1    4    4    0    0  0.11542704795E+02 -0.31658244630E+02  0.39164951080E+02  0.51665964427E+02  0.00000000000E+00 0. -1.
         21    1    1    2  502  501  0.54657199749E+02  0.19857275944E+03  0.25502819810E+03  0.32780776700E+03  0.00000000000E+00 0.  1.
<scales pt_clust_5="13000.00000" pt_clust_6="13000.00000" pt_clust_7="13000.00000" pt_clust_8="13000.00000" pt_clust_9="163.03518"></scales>
<clustering>
<clus scale="   88.373">  7  8 -1 -1</clus>
<clus scale="   96.646">  5  6 -1 -1</clus>
<clus scale="  148.959">  1  7  2 -1</clus>
<clus scale="  163.035">  1  9  2 -1</clus>
<clus scale="  148.959">  1  5  2 -1</clus>
</clustering>
</event>
<event>
 9    1  0.1484717E-005  0.1082918E+03  0.7546771E-02  0.1264181E+00
          1   -1    0    0  502    0  0.00000000000E+00  0.00000000000E+00  0.14454176460E+03  0.14454176460E+03  0.00000000000E+00 0. -1.
         -1   -1    0    0    0  501 -0.00000000000E+00 -0.00000000000E+00 -0.10429880623E+03  0.10429880623E+03  0.00000000000E+00 0.  1.
         23    2    1    2    0    0 -0.10506686597E+02 -0.44043766272E+02 -0.76775468202E+01  0.10232924530E+03  0.91444441647E+02 0.  0.
         23    2    1    2    0    0  0.24955597685E+02  0.61739562518E+02  0.51241209676E+02  0.12342584709E+03  0.90408642983E+02 0.  0.
        -11    1    3    3    0    0 -0.40102454406E+02 -0.50465692931E+02  0.12870771577E+02  0.65731649708E+02  0.00000000000E+00 0.  1.
         11    1    3    3    0    0  0.29595767809E+02  0.64219266587E+01 -0.20548318397E+02  0.36597595593E+02  0.00000000000E+00 0. -1.
        -13    1    4    4    0    0  0.47604758241E+02  0.69152893151E+01  0.41049015324E+02  0.63238088938E+02  0.00000000000E+00 0. -1.
         13    1    4    4    0    0 -0.22649160555E+02  0.54824273203E+02  0.10192194352E+02  0.60187758156E+02  0.00000000000E+00 0.  1.
         21    1    1    2  502  501 -0.14448911088E+02 -0.17695796246E+02 -0.33207044879E+01  0.23085478438E+02  0.00000000000E+00 0. -1.
<scales pt_clust_5="13000.00000" pt_clust_6="13000.00000" pt_clust_7="13000.00000" pt_clust_8="13000.00000" pt_clust_9="22.84540"></scales>
<clustering>
<clus scale="   22.845">  2  9  1 -1</clus>
<clus scale="   90.409">  7  8 -1 -1</clus>
<clus scale="   91.444">  5  6 -1 -1</clus>
<clus scale="  107.419">  1  7  2 -1</clus>
<clus scale="  107.419">  1  5  2 -1</clus>
</clustering>
</event>
<event>
 9    1  0.1484717E-005  0.9337538E+02  0.7546771E-02  0.1299419E+00
         -2   -1    0    0    0  501 -0.00000000000E+00  0.00000000000E+00  0.31704975946E+02  0.31704975946E+02  0.00000000000E+00 0.  1.
          2   -1    0    0  502    0  0.00000000000E+00 -0.00000000000E+00 -0.36815482726E+03  0.36815482726E+03  0.00000000000E+00 0. -1.
         23    2    1    2    0    0  0.54715151818E+01 -0.14492846125E+02 -0.11594188801E+03  0.14395843542E+03  0.83913822847E+02 0.  0.
         23    2    1    2    0    0 -0.24355465106E+02  0.25987270027E+01 -0.21159406733E+03  0.23186948946E+03  0.91604960309E+02 0.  0.
        -11    1    4    4    0    0 -0.54656247058E+02 -0.13028044333E+02 -0.94790182467E+02  0.11019171463E+03  0.00000000000E+00 0.  1.
         11    1    4    4    0    0  0.30300781951E+02  0.15626771336E+02 -0.11680388486E+03  0.12167777483E+03  0.00000000000E+00 0. -1.
        -13    1    3    3    0    0  0.73938411775E+01  0.33831916021E+02 -0.65414099267E+02  0.74015348489E+02  0.00000000000E+00 0. -1.
         13    1    3    3    0    0 -0.19223259956E+01 -0.48324762145E+02 -0.50527788744E+02  0.69943086928E+02  0.00000000000E+00 0.  1.
         21    1    1    2  502  501  0.18883949925E+02  0.11894119122E+02 -0.89138959777E+01  0.24031878327E+02  0.00000000000E+00 0. -1.
<scales pt_clust_5="13000.00000" pt_clust_6="13000.00000" pt_clust_7="13000.00000" pt_clust_8="13000.00000" pt_clust_9="22.31756"></scales>
<clustering>
<clus scale="   22.318">  1  9  2 -1</clus>
<clus scale="   83.914">  7  8 -1 -1</clus>
<clus scale="   85.843">  1  7  2 -1</clus>
<clus scale="   91.605">  5  6 -1 -1</clus>
<clus scale="   93.375">  2  5  1 -1</clus>
</clustering>
</event>
<event>
 9    1  0.1484717E-005  0.1651322E+03  0.7546771E-02  0.1185045E+00
          2   -1    0    0  502    0  0.00000000000E+00  0.00000000000E+00  0.12977218689E+04  0.12977218689E+04  0.00000000000E+00 0. -1.
         -2   -1    0    0    0  501 -0.00000000000E+00 -0.00000000000E+00 -0.25812318078E+02  0.25812318078E+02  0.00000000000E+00 0.  1.
         23    2    1    2    0    0 -0.18997238549E+02 -0.13636948758E+03  0.53874840130E+03  0.56561076973E+03  0.10348029148E+03 0.  0.
         23    2    1    2    0    0  0.45642143868E+02  0.11546731841E+03  0.65201118437E+03  0.66999066737E+03  0.91394764088E+02 0.  0.
        -11    1    4    4    0    0 -0.20267323500E+02  0.73000862026E+02  0.31803301814E+03  0.32693254791E+03  0.00000000000E+00 0.  1.
         11    1    4    4    0    0  0.65909467369E+02  0.42466456379E+02  0.33397816623E+03  0.34305811945E+03  0.00000000000E+00 0. -1.
        -13    1    3    3    0    0 -0.37501743026E+02 -0.75463203059E+01  0.78644203774E+02  0.87454207831E+02  0.00000000000E+00 0.  1.
         13    1    3    3    0    0  0.18504504477E+02 -0.12882316727E+03  0.46010419752E+03  0.47815656190E+03  0.00000000000E+00 0. -1.
         21    1    1    2  502  501 -0.26644905319E+02  0.20902169171E+02  0.81149965141E+02  0.87932749860E+02  0.00000000000E+00 0. -1.
<scales pt_clust_5="13000.00000" pt_clust_6="13000.00000" pt_clust_7="13000.00000" pt_clust_8="13000.00000" pt_clust_9="33.86520"></scales>
<clustering>
<clus scale="   33.865">  2  9  1 -1</clus>
<clus scale="   91.395">  5  6 -1 -1</clus>
<clus scale="  103.480">  7  8 -1 -1</clus>
<clus scale="  157.840">  1  5  2 -1</clus>
<clus scale="  157.840">  1  5  2 -1</clus>
</clustering>
</event>
<event>
 9    1  0.1484717E-005  0.1154944E+03  0.7546771E-02  0.1251027E+00
         -2   -1    0    0    0  501 -0.00000000000E+00  0.00000000000E+00  0.13926548020E+03  0.13926548020E+03  0.00000000000E+00 0.  1.
          2   -1    0    0  502    0  0.00000000000E+00 -0.00000000000E+00 -0.13997325630E+03  0.13997325630E+03  0.00000000000E+00 0. -1.
         23    2    1    2    0    0 -0.69574217810E+02 -0.45745978949E+02  0.36247809461E+02  0.12837866501E+03  0.90740903490E+02 0.  0.
         23    2    1    2    0    0  0.30572266888E+02  0.46512313544E+02 -0.36612253455E+02  0.11184908173E+03  0.89842646700E+02 0.  0.
        -11    1    3    3    0    0 -0.35862124154E+02 -0.71965599265E+02  0.22093136608E+02  0.83386126613E+02  0.00000000000E+00 0.  1.
         11    1    3    3    0    0 -0.33712093656E+02  0.26219620316E+02  0.14154672853E+02  0.44992538401E+02  0.00000000000E+00 0. -1.
        -13    1    4    4    0    0  0.37966265525E+02 -0.15624460522E+02 -0.39030029877E+01  0.41240690062E+02  0.00000000000E+00 0.  1.
         13    1    4    4    0    0 -0.73939986369E+01  0.62136774066E+02 -0.32709250467E+02  0.70608391664E+02  0.00000000000E+00 0. -1.
         21    1    1    2  502  501  0.39001950923E+02 -0.76633459533E+00 -0.34333210525E+00  0.39010989752E+02  0.00000000000E+00 0.  1.
<scales pt_clust_5="13000.00000" pt_clust_6="13000.00000" pt_clust_7="13000.00000" pt_clust_8="13000.00000" pt_clust_9="39.00948"></scales>
<clustering>
<clus scale="   39.009">  2  9  1 -1</clus>
<clus scale="   89.843">  7  8 -1 -1</clus>
<clus scale="   90.741">  5  6 -1 -1</clus>
<clus scale="  114.790">  2  7  1 -1</clus>
<clus scale="   39.009">  2  5  1 -1</clus>
</clustering>
</event>
<event>
 9    1  0.1484717E-005  0.1275626E+03  0.7546771E-02  0.1233398E+00
         -1   -1    0    0    0  501 -0.00000000000E+00  0.00000000000E+00  0.26812348353E+03  0.26812348353E+03  0.00000000000E+00 0.  1.
          1   -1    0    0  502    0  0.00000000000E+00 -0.00000000000E+00 -0.16088646208E+03  0.16088646208E+03  0.00000000000E+00 0. -1.
         23    2    1    2    0    0 -0.82298907921E+02  0.61934807116E+02  0.36016429869E+02  0.14450387140E+03  0.94737294935E+02 0.  0.
         23    2    1    2    0    0  0.61361724846E+02 -0.49904300563E+02 -0.73042694213E+02  0.13823579579E+03  0.86707551965E+02 0.  0.
        -11    1    3    3    0    0 -0.42850299123E+02  0.73730404197E+02 -0.62381357357E+01  0.85505759896E+02  0.00000000000E+00 0.  1.
         11    1    3    3    0    0 -0.39448608798E+02 -0.11795597081E+02  0.42254565604E+02  0.58998111504E+02  0.00000000000E+00 0. -1.
        -11    1    4    4    0    0 -0.12310686143E+02 -0.28448895133E+02 -0.48710272422E+02  0.57737191368E+02  0.00000000000E+00 0. -1.
         11    1    4    4    0    0  0.73672410988E+02 -0.21455405430E+02 -0.24332421791E+02  0.80498604418E+02  0.00000000000E+00 0.  1.
         21    1    1    2  502  501  0.20937183076E+02 -0.12030506553E+02  0.14426328579E+03  0.14627027842E+03  0.00000000000E+00 0.  1.
<scales pt_clust_5="13000.00000" pt_clust_6="13000.00000" pt_clust_7="13000.00000" pt_clust_8="13000.00000" pt_clust_9="24.14744"></scales>
<clustering>
<clus scale="   24.147">  1  9  2 -1</clus>
<clus scale="   86.708">  7  8 -1 -1</clus>
<clus scale="   94.737">  5  6 -1 -1</clus>
<clus scale="  121.718">  2  7  1 -1</clus>
<clus scale="  121.718">  2  5  1 -1</clus>
</clustering>
</event>
<event>
 9    1  0.1484717E-005  0.3454851E+03  0.7546771E-02  0.1064553E+00
         -2   -1    0    0    0  501 -0.00000000000E+00  0.00000000000E+00  0.20337036364E+03  0.20337036364E+03  0.00000000000E+00 0.  1.
          2   -1    0    0  502    0  0.00000000000E+00 -0.00000000000E+00 -0.99910331346E+03  0.99910331346E+03  0.00000000000E+00 0. -1.
         23    2    1    2    0    0 -0.11020583801E+03  0.33018085765E+03 -0.37063145297E+03  0.51642488015E+03  0.90345212475E+02 0.  0.
         23    2    1    2    0    0  0.13140065393E+03 -0.29470002447E+03 -0.49895983213E+03  0.60141332310E+03  0.92859220582E+02 0.  0.
        -11    1    3    3    0    0 -0.77079634942E+02  0.12214130781E+03 -0.11145499327E+03  0.18243350767E+03  0.00000000000E+00 0.  1.
         11    1    3    3    0    0 -0.33126203066E+02  0.20803954984E+03 -0.25917645970E+03  0.33399137247E+03  0.00000000000E+00 0. -1.
        -13    1    4    4    0    0  0.24327207333E+02 -0.15487615566E+02 -0.14969673243E+02  0.32492620232E+02  0.00000000000E+00 0.  1.
         13    1    4    4    0    0  0.10707344660E+03 -0.27921240891E+03 -0.48399015889E+03  0.56892070287E+03  0.00000000000E+00 0. -1.
         21    1    1    2  502  501 -0.21194815921E+02 -0.35480833179E+02  0.73858335271E+02  0.84635473851E+02  0.00000000000E+00 0. -1.
<scales pt_clust_5="13000.00000" pt_clust_6="13000.00000" pt_clust_7="13000.00000" pt_clust_8="13000.00000" pt_clust_9="41.32928"></scales>
<clustering>
<clus scale="   41.329">  1  9  2 -1</clus>
<clus scale="   90.345">  5  6 -1 -1</clus>
<clus scale="   92.859">  7  8 -1 -1</clus>
<clus scale="  344.818">  1  5  2 -1</clus>
<clus scale="  345.485">  2  5  1 -1</clus>
</clustering>
</event>
<event>
 9    1  0.1484717E-005  0.9372445E+02  0.7546771E-02  0.1294577E+00
         -1   -1    0    0    0  501 -0.00000000000E+00  0.00000000000E+00  0.15154067925E+03  0.15154067925E+03  0.00000000000E+00 0.  1.
          1   -1    0    0  502    0  0.00000000000E+00 -0.00000000000E+00 -0.10246558924E+03  0.10246558924E+03  0.00000000000E+00 0. -1.
         23    2    1    2    0    0 -0.12489096185E+01 -0.20773015632E+02  0.44946843825E+02  0.10418839798E+03  0.91662018029E+02 0.  0.
         23    2    1    2    0    0 -0.24345112922E+02  0.58740309114E+01 -0.35252369986E+02  0.10054448352E+03  0.90770451216E+02 0.  0.
        -11    1    4    4    0    0  0.21997958022E+02 -0.20417991227E+02  0.89445850891E+01  0.31317888263E+02  0.00000000000E+00 0.  1.
         11    1    4    4    0    0 -0.46343070943E+02  0.26292022138E+02 -0.44196955075E+02  0.69226595254E+02  0.00000000000E+00 0. -1.
        -13    1    3    3    0    0  0.42632772694E+02  0.30008584865E+01  0.29550862520E+02  0.51959714539E+02  0.00000000000E+00 0.  1.
         13    1    3    3    0    0 -0.43881682313E+02 -0.23773874118E+02  0.15395981305E+02  0.52228683437E+02  0.00000000000E+00 0. -1.
         21    1    1    2  502  501  0.25594022540E+02  0.14898984720E+02  0.39380616172E+02  0.49273386991E+02  0.00000000000E+00 0. -1.
<scales pt_clust_5="13000.00000" pt_clust_6="13000.00000" pt_clust_7="13000.00000" pt_clust_8="13000.00000" pt_clust_9="29.61476"></scales>
<clustering>
<clus scale="   29.615">  1  9  2 -1</clus>
<clus scale="   90.770">  5  6 -1 -1</clus>
<clus scale="   91.662">  7  8 -1 -1</clus>
<clus scale="   92.853">  2  5  1 -1</clus>
<clus scale="   92.853">  2  5  1 -1</clus>
</clustering>
</event>
<event>
 9    1  0.1484717E-005  0.1054800E+03  0.7546771E-02  0.1269964E+00
         -1   -1    0    0    0  501 -0.00000000000E+00  0.00000000000E+00  0.28853221042E+03  0.28853221042E+03  0.00000000000E+00 0.  1.
          1   -1    0    0  502    0  0.00000000000E+00 -0.00000000000E+00 -0.97115602228E+02  0.97115602228E+02  0.00000000000E+00 0. -1.
         23    2    1    2    0    0 -0.66772578159E+01  0.51275670533E+02  0.22569943074E+03  0.24840174794E+03  0.89941176235E+02 0.  0.
         23    2    1    2    0    0  0.30699065920E+02 -0.49324841775E+02 -0.25330195262E+02  0.11153609519E+03  0.91778587229E+02 0.  0.
        -11    1    4    4    0    0 -0.86405149531E+01 -0.65329061453E+02 -0.11673473571E+02  0.66923947539E+02  0.00000000000E+00 0. -1.
         11    1    4    4    0    0  0.39339580873E+02  0.16004219677E+02 -0.13656721691E+02  0.44612147652E+02  0.00000000000E+00 0.  1.
        -11    1    3    3    0    0  0.31570505887E+02  0.56893337693E+02  0.13909611061E+03  0.15356196372E+03  0.00000000000E+00 0.  1.
         11    1    3    3    0    0 -0.38247763703E+02 -0.56176671600E+01  0.86603320131E+02  0.94839784217E+02  0.00000000000E+00 0. -1.
         21    1    1    2  502  501 -0.24021808104E+02 -0.19508287575E+01 -0.89526272838E+01  0.25709969520E+02  0.00000000000E+00 0. -1.
<scales pt_clust_5="13000.00000" pt_clust_6="13000.00000" pt_clust_7="13000.00000" pt_clust_8="13000.00000" pt_clust_9="24.10089"></scales>
<clustering>
<clus scale="   24.101">  2  9  1 -1</clus>
<clus scale="   89.941">  7  8 -1 -1</clus>
<clus scale="   91.779">  5  6 -1 -1</clus>
<clus scale="  103.885">  1  7  2 -1</clus>
<clus scale="   24.101">  2  5  1 -1</clus>
</clustering>
</event>
<event>
 9    1  0.1484717E-005  0.1494233E+03  0.7546771E-02  0.1201753E+00
         -2   -1    0    0    0  501 -0.00000000000E+00  0.00000000000E+00  0.72643188729E+02  0.72643188729E+02  0.00000000000E+00 0.  1.
          2   -1    0    0  502    0  0.00000000000E+00 -0.00000000000E+00 -0.46334906934E+03  0.46334906934E+03  0.00000000000E+00 0. -1.
         23    2    1    2    0    0  0.33971978882E+02 -0.85031899134E+02 -0.53426674725E+02  0.13945169488E+03  0.90597165597E+02 0.  0.
         23    2    1    2    0    0 -0.55803618378E+02  0.11823320344E+03 -0.31204323376E+03  0.34946826369E+03  0.87544008203E+02 0.  0.
        -11    1    4    4    0    0 -0.69976344109E+02  0.58117994002E+02 -0.22541484227E+03  0.24307661565E+03  0.00000000000E+00 0. -1.
         11    1    4    4    0    0  0.14172725730E+02  0.60115209434E+02 -0.86628391492E+02  0.10639164804E+03  0.00000000000E+00 0.  1.
        -11    1    3    3    0    0  0.25091289481E+02  0.82066145732E+01 -0.35256828238E+02  0.44045036814E+02  0.00000000000E+00 0. -1.
         11    1    3    3    0    0  0.88806894015E+01 -0.93238513708E+02 -0.18169846487E+02  0.95406658070E+02  0.00000000000E+00 0.  1.
         21    1    1    2  502  501  0.21831639496E+02 -0.33201304302E+02 -0.25235972123E+02  0.47072299492E+02  0.00000000000E+00 0.  1.
<scales pt_clust_5="13000.00000" pt_clust_6="13000.00000" pt_clust_7="13000.00000" pt_clust_8="13000.00000" pt_clust_9="39.73597"></scales>
<clustering>
<clus scale="   39.736">  1  9  2 -1</clus>
<clus scale="   87.544">  5  6 -1 -1</clus>
<clus scale="   90.597">  7  8 -1 -1</clus>
<clus scale="  147.592">  2  5  1 -1</clus>
<clus scale="  147.592">  2  5  1 -1</clus>
</clustering>
</event>
<event>
 9    1  0.1484717E-005  0.1033094E+03  0.7546771E-02  0.1273700E+00
          2   -1    0    0  502    0  0.00000000000E+00  0.00000000000E+00  0.54773609235E+03  0.54773609235E+03  0.00000000000E+00 0. -1.
         -2   -1    0    0    0  501 -0.00000000000E+00 -0.00000000000E+00 -0.36766251792E+02  0.36766251792E+02  0.00000000000E+00 0.  1.
         23    2    1    2    0    0  0.26353982084E+01 -0.42693827505E+02  0.16838962877E+03  0.19599614406E+03  0.90717766613E+02 0.  0.
         23    2    1    2    0    0  0.26491847622E+02  0.47782264234E+02  0.34283184928E+03  0.35893675707E+03  0.91197346088E+02 0.  0.
        -13    1    3    3    0    0 -0.49562050334E+01  0.19925519219E+02  0.54064835640E+01  0.21232530443E+02  0.00000000000E+00 0.  1.
         13    1    3    3    0    0  0.75916032418E+01 -0.62619346724E+02  0.16298314521E+03  0.17476361362E+03  0.00000000000E+00 0. -1.
        -13    1    4    4    0    0 -0.64896831824E+01  0.62825939561E+02  0.15045876786E+03  0.16317798716E+03  0.00000000000E+00 0.  1.
         13    1    4    4    0    0  0.32981530805E+02 -0.15043675327E+02  0.19237308142E+03  0.19575876991E+03  0.00000000000E+00 0. -1.
         21    1    1    2  502  501 -0.29127245831E+02 -0.50884367289E+01 -0.25163749455E+00  0.29569443002E+02  0.00000000000E+00 0.  1.
<scales pt_clust_5="13000.00000" pt_clust_6="13000.00000" pt_clust_7="13000.00000" pt_clust_8="13000.00000" pt_clust_9="29.56837"></scales>
<clustering>
<clus scale="   29.568">  2  9  1 -1</clus>
<clus scale="   90.718">  5  6 -1 -1</clus>
<clus scale="   91.197">  7  8 -1 -1</clus>
<clus scale="  102.886">  2  5  1 -1</clus>
<clus scale="  103.309">  1  5  2 -1</clus>
</clustering>
</event>
<event>
 9    1  0.1484717E-005  0.1117841E+03  0.7546771E-02  0.1257467E+00
         -1   -1    0    0    0  501 -0.00000000000E+00  0.00000000000E+00  0.45546373854E+03  0.45546373854E+03  0.00000000000E+00 0.  1.
          1   -1    0    0  502    0  0.00000000000E+00 -0.00000000000E+00 -0.89683525117E+02  0.89683525117E+02  0.00000000000E+00 0. -1.
         23    2    1    2    0    0 -0.86657423353E+02  0.32746399878E+02  0.13871895365E+03  0.18990878412E+03  0.90777543780E+02 0.  0.
         23    2    1    2    0    0  0.51705950624E+02 -0.25583049700E+02 -0.17057803674E+02  0.10852602309E+03  0.90326802554E+02 0.  0.
        -11    1    3    3    0    0 -0.15609190519E+02  0.43337657639E+02  0.18041948002E+02  0.49470307114E+02  0.00000000000E+00 0.  1.
         11    1    3    3    0    0 -0.71048232834E+02 -0.10591257760E+02  0.12067700565E+03  0.14043847700E+03  0.00000000000E+00 0. -1.
        -13    1    4    4    0    0  0.41448587863E+02 -0.10361888922E+01  0.32231063776E+02  0.52515717603E+02  0.00000000000E+00 0.  1.
         13    1    4    4    0    0  0.10257362761E+02 -0.24546860808E+02 -0.49288867449E+02  0.56010305487E+02  0.00000000000E+00 0. -1.
         21    1    1    2  502  501  0.34951472728E+02 -0.71633501784E+01  0.24411906345E+03  0.24671245646E+03  0.00000000000E+00 0. -1.
<scales pt_clust_5="13000.00000" pt_clust_6="13000.00000" pt_clust_7="13000.00000" pt_clust_8="13000.00000" pt_clust_9="35.67799"></scales>
<clustering>
<clus scale="   35.678">  1  9  2 -1</clus>
<clus scale="   90.327">  7  8 -1 -1</clus>
<clus scale="   90.778">  5  6 -1 -1</clus>
<clus scale="  111.418">  2  7  1 -1</clus>
<clus scale="  111.418">  2  5  1 -1</clus>
</clustering>
</event>
<event>
 9    1  0.1484717E-005  0.9934550E+02  0.7546771E-02  0.1283404E+00
          1   -1    0    0  502    0  0.00000000000E+00  0.00000000000E+00  0.27286839547E+03  0.27286839547E+03  0.00000000000E+00 0. -1.
         -1   -1    0    0    0  501 -0.00000000000E+00 -0.00000000000E+00 -0.47851871147E+02  0.47851871147E+02  0.00000000000E+00 0.  1.
         23    2    1    2    0    0  0.40712778454E+02 -0.11363043299E+02  0.91369302820E+02  0.13491314800E+03  0.89814024083E+02 0.  0.
         23    2    1    2    0    0 -0.29531312477E+02 -0.72682872880E+01  0.13140518940E+03  0.16396270586E+03  0.93228314876E+02 0.  0.
        -13    1    4    4    0    0 -0.30282324378E+01  0.32815153623E+02  0.11695337352E+02  0.34968348757E+02  0.00000000000E+00 0.  1.
         13    1    4    4    0    0 -0.26503080039E+02 -0.40083440911E+02  0.11970985205E+03  0.12899435710E+03  0.00000000000E+00 0. -1.
        -13    1    3    3    0    0  0.66262155934E+02 -0.23056911119E+02  0.56169792494E+02  0.89874023211E+02  0.00000000000E+00 0.  1.
         13    1    3    3    0    0 -0.25549377480E+02  0.11693867820E+02  0.35199510327E+02  0.45039124785E+02  0.00000000000E+00 0. -1.
         21    1    1    2  502  501 -0.11181465977E+02  0.18631330587E+02  0.22420321014E+01  0.21844412759E+02  0.00000000000E+00 0. -1.
<scales pt_clust_5="13000.00000" pt_clust_6="13000.00000" pt_clust_7="13000.00000" pt_clust_8="13000.00000" pt_clust_9="21.72905"></scales>
<clustering>
<clus scale="   21.729">  2  9  1 -1</clus>
<clus scale="   89.814">  7  8 -1 -1</clus>
<clus scale="   93.228">  5  6 -1 -1</clus>
<clus scale="   96.149">  2  7  1 -1</clus>
<clus scale="   99.345">  1  5  2 -1</clus>
</clustering>
</event>
<event>
 9    1  0.1484717E-005  0.9642441E+02  0.7546771E-02  0.1289270E+00
         -1   -1    0    0    0  501 -0.00000000000E+00  0.00000000000E+00  0.21692251649E+03  0.21692251649E+03  0.00000000000E+00 0.  1.
          1   -1    0    0  502    0  0.00000000000E+00 -0.00000000000E+00 -0.73422621049E+02  0.73422621049E+02  0.00000000000E+00 0. -1.
         23    2    1    2    0    0  0.79364863753E+01  0.11801030569E+02  0.43208335100E+02  0.10206324179E+03  0.91365710007E+02 0.  0.
         23    2    1    2    0    0  0.10210384800E+02 -0.31440448769E+02  0.17005988752E+02  0.10080903072E+03  0.93704339519E+02 0.  0.
        -11    1    4    4    0    0  0.91082604016E+01  0.30370990341E+02  0.22296229894E+02  0.38761828250E+02  0.00000000000E+00 0.  1.
         11    1    4    4    0    0  0.11021243989E+01 -0.61811439109E+02 -0.52902411421E+01  0.62047202470E+02  0.00000000000E+00 0. -1.
        -13    1    3    3    0    0 -0.32504524151E+02  0.27473724487E+02  0.40270117594E+02  0.58592081364E+02  0.00000000000E+00 0. -1.
         13    1    3    3    0    0  0.40441010527E+02 -0.15672693918E+02  0.29382175059E+01  0.43471160431E+02  0.00000000000E+00 0.  1.
         21    1    1    2  502  501 -0.18146871176E+02  0.19639418200E+02  0.83285571588E+02  0.87472865023E+02  0.00000000000E+00 0. -1.
<scales pt_clust_5="13000.00000" pt_clust_6="13000.00000" pt_clust_7="13000.00000" pt_clust_8="13000.00000" pt_clust_9="26.73978"></scales>
<clustering>
<clus scale="   26.740">  1  9  2 -1</clus>
<clus scale="   91.366">  7  8 -1 -1</clus>
<clus scale="   93.704">  5  6 -1 -1</clus>
<clus scale="   94.153">  1  7  2 -1</clus>
<clus scale="   96.424">  2  5  1 -1</clus>
</clustering>
</event>
<event>
 9    1  0.1484717E-005  0.1260204E+03  0.7546771E-02  0.1240157E+00
         -1   -1    0    0    0  501 -0.00000000000E+00  0.00000000000E+00  0.53470044023E+02  0.53470044023E+02  0.00000000000E+00 0.  1.
          1   -1    0    0  502    0  0.00000000000E+00 -0.00000000000E+00 -0.36203505726E+03  0.36203505726E+03  0.00000000000E+00 0. -1.
         23    2    1    2    0    0 -0.35199628105E+02  0.91405406562E+02 -0.14794287216E+03  0.18922211050E+03  0.65756760193E+02 0.  0.
         23    2    1    2    0    0  0.48785909631E+02 -0.63424168281E+02 -0.15209495345E+03  0.19403008905E+03  0.90067255373E+02 0.  0.
        -11    1    4    4    0    0  0.94685191537E+01 -0.73499296763E+02 -0.12471340592E+03  0.14506975252E+03  0.00000000000E+00 0. -1.
         11    1    4    4    0    0  0.39317390477E+02  0.10075128482E+02 -0.27381547527E+02  0.48960336527E+02  0.00000000000E+00 0.  1.
        -13    1    3    3    0    0 -0.26052685472E+01  0.81913813368E+02 -0.11966549028E+03  0.14503961461E+03  0.00000000000E+00 0.  1.
         13    1    3    3    0    0 -0.32594359557E+02  0.94915931936E+01 -0.28277381889E+02  0.44182495887E+02  0.00000000000E+00 0. -1.
         21    1    1    2  502  501 -0.13586281526E+02 -0.27981238281E+02 -0.85271876220E+01  0.32252901733E+02  0.00000000000E+00 0. -1.
<scales pt_clust_5="13000.00000" pt_clust_6="13000.00000" pt_clust_7="13000.00000" pt_clust_8="13000.00000" pt_clust_9="31.10525"></scales>
<clustering>
<clus scale="   31.105">  1  9  2 -1</clus>
<clus scale="   65.757">  7  8 -1 -1</clus>
<clus scale="   90.067">  5  6 -1 -1</clus>
<clus scale="  109.968">  1  7  2 -1</clus>
<clus scale="  126.020">  2  5  1 -1</clus>
</clustering>
</event>
<event>
 9    1  0.1484717E-005  0.1334858E+03  0.7546771E-02  0.1222636E+00
          1   -1    0    0  502    0  0.00000000000E+00  0.00000000000E+00  0.18280371410E+03  0.18280371410E+03  0.00000000000E+00 0. -1.
         -1   -1    0    0    0  501 -0.00000000000E+00 -0.00000000000E+00 -0.23142691814E+03  0.23142691814E+03  0.00000000000E+00 0.  1.
         23    2    1    2    0    0 -0.22556431143E+02  0.10904561809E+03 -0.41086441186E+02  0.15014733446E+03  0.91958615614E+02 0.  0.
         23    2    1    2    0    0  0.31918742056E+02 -0.86315364189E+02  0.93817934784E+02  0.15978999962E+03  0.90894944317E+02 0.  0.
        -11    1    3    3    0    0 -0.16977566149E+02  0.82822647439E+02 -0.70693055160E+02  0.11020588337E+03  0.00000000000E+00 0.  1.
         11    1    3    3    0    0 -0.55788649935E+01  0.26222970651E+02  0.29606613973E+02  0.39941451092E+02  0.00000000000E+00 0. -1.
        -11    1    4    4    0    0  0.11905114882E+01 -0.95941265407E+02  0.79257557137E+02  0.12445040815E+03  0.00000000000E+00 0. -1.
         11    1    4    4    0    0  0.30728230568E+02  0.96259012183E+01  0.14560377646E+02  0.35339591471E+02  0.00000000000E+00 0.  1.
         21    1    1    2  502  501 -0.93623109135E+01 -0.22730253901E+02 -0.10135469764E+03  0.10429329816E+03  0.00000000000E+00 0. -1.
<scales pt_clust_5="13000.00000" pt_clust_6="13000.00000" pt_clust_7="13000.00000" pt_clust_8="13000.00000" pt_clust_9="24.58287"></scales>
<clustering>
<clus scale="   24.583">  2  9  1 -1</clus>
<clus scale="   90.895">  7  8 -1 -1</clus>
<clus scale="   91.959">  5  6 -1 -1</clus>
<clus scale="  132.755">  1  7  2 -1</clus>
<clus scale="  132.755">  1  5  2 -1</clus>
</clustering>
</event>
<event>
 9    1  0.1484717E-005  0.9584531E+02  0.7546771E-02  0.1289810E+00
         -1   -1    0    0    0  501 -0.00000000000E+00  0.00000000000E+00  0.44981254876E+02  0.44981254876E+02  0.00000000000E+00 0.  1.
          1   -1    0    0  502    0  0.00000000000E+00 -0.00000000000E+00 -0.59522114363E+03  0.59522114363E+03  0.00000000000E+00 0. -1.
         23    2    1    2    0    0  0.26348725917E+02  0.56128276732E+01 -0.27792613933E+02  0.97767137373E+02  0.89778753438E+02 0.  0.
         23    2    1    2    0    0 -0.57301079939E+02 -0.13918221421E+02 -0.45589186346E+03  0.46856611625E+03  0.90772702264E+02 0.  0.
        -11    1    3    3    0    0 -0.19802432454E+02 -0.29630777191E+02 -0.11680315742E+02  0.37503987307E+02  0.00000000000E+00 0.  1.
         11    1    3    3    0    0  0.46151158371E+02  0.35243604865E+02 -0.16112298191E+02  0.60263150066E+02  0.00000000000E+00 0. -1.
        -13    1    4    4    0    0  0.48653587444E+01 -0.39244963321E+02 -0.13224439815E+03  0.13803050280E+03  0.00000000000E+00 0.  1.
         13    1    4    4    0    0 -0.62166438683E+02  0.25326741901E+02 -0.32364746531E+03  0.33053561344E+03  0.00000000000E+00 0. -1.
         21    1    1    2  502  501  0.30952354022E+02  0.83053937477E+01 -0.66555411359E+02  0.73869144884E+02  0.00000000000E+00 0.  1.
<scales pt_clust_5="13000.00000" pt_clust_6="13000.00000" pt_clust_7="13000.00000" pt_clust_8="13000.00000" pt_clust_9="32.04727"></scales>
<clustering>
<clus scale="   32.047">  2  9  1 -1</clus>
<clus scale="   89.779">  5  6 -1 -1</clus>
<clus scale="   90.773">  7  8 -1 -1</clus>
<clus scale="   94.904">  1  5  2 -1</clus>
<clus scale="   32.047">  2  5  1 -1</clus>
</clustering>
</event>
<event>
 9    1  0.1484717E-005  0.1501447E+03  0.7546771E-02  0.1200665E+00
          2   -1    0    0  502    0  0.00000000000E+00  0.00000000000E+00  0.56907444048E+02  0.56907444048E+02  0.00000000000E+00 0. -1.
         -2   -1    0    0    0  501 -0.00000000000E+00 -0.00000000000E+00 -0.49743683759E+03  0.49743683759E+03  0.00000000000E+00 0.  1.
         23    2    1    2    0    0 -0.79018407942E+02  0.10208144478E+03 -0.24498210929E+03  0.29243215297E+03  0.93998936473E+02 0.  0.
         23    2    1    2    0    0  0.61851045772E+02 -0.90834838083E+02 -0.13107270588E+03  0.19424991068E+03  0.92067659359E+02 0.  0.
        -13    1    3    3    0    0 -0.76080955252E+02  0.66204094788E+02 -0.96267440966E+02  0.13942278906E+03  0.00000000000E+00 0. -1.
         13    1    3    3    0    0 -0.29374526895E+01  0.35877349996E+02 -0.14871466832E+03  0.15300936392E+03  0.00000000000E+00 0.  1.
        -13    1    4    4    0    0  0.52982475307E+02 -0.77771238748E+01 -0.24622916053E+02  0.58939921449E+02  0.00000000000E+00 0.  1.
         13    1    4    4    0    0  0.88685704650E+01 -0.83057714209E+02 -0.10644978983E+03  0.13530998923E+03  0.00000000000E+00 0. -1.
         21    1    1    2  502  501  0.17167362170E+02 -0.11246606701E+02 -0.64474578374E+02  0.67662217985E+02  0.00000000000E+00 0.  1.
<scales pt_clust_5="13000.00000" pt_clust_6="13000.00000" pt_clust_7="13000.00000" pt_clust_8="13000.00000" pt_clust_9="20.52327"></scales>
<clustering>
<clus scale="   20.523">  2  9  1 -1</clus>
<clus scale="   92.068">  7  8 -1 -1</clus>
<clus scale="   93.999">  5  6 -1 -1</clus>
<clus scale="  148.943">  1  7  2 -1</clus>
<clus scale="  148.943">  1  5  2 -1</clus>
</clustering>
</event>
<event>
 9    1  0.1484717E-005  0.2018129E+03  0.7546771E-02  0.1148271E+00
          2   -1    0    0  502    0  0.00000000000E+00  0.00000000000E+00  0.60657469063E+03  0.60657469063E+03  0.00000000000E+00 0. -1.
         -2   -1    0    0    0  501 -0.00000000000E+00 -0.00000000000E+00 -0.75879376341E+02  0.75879376341E+02  0.00000000000E+00 0.  1.
         23    2    1    2    0    0 -0.47507795211E+02  0.16120349442E+03  0.21212785970E+03  0.28504481959E+03  0.89491692908E+02 0.  0.
         23    2    1    2    0    0  0.57970319941E+02 -0.18364056097E+03  0.29057808516E+03  0.36004226757E+03  0.90057743878E+02 0.  0.
        -11    1    4    4    0    0  0.12966756163E+02 -0.14821284859E+03  0.24588587270E+03  0.28739354142E+03  0.00000000000E+00 0. -1.
         11    1    4    4    0    0  0.45003563779E+02 -0.35427712372E+02  0.44692212461E+02  0.72648726151E+02  0.00000000000E+00 0.  1.
        -13    1    3    3    0    0 -0.66810951800E+02  0.98549442397E+02  0.16840466221E+03  0.20624215411E+03  0.00000000000E+00 0.  1.
         13    1    3    3    0    0  0.19303156589E+02  0.62654052023E+02  0.43723197482E+02  0.78802665484E+02  0.00000000000E+00 0. -1.
         21    1    1    2  502  501 -0.10462524730E+02  0.22437066545E+02  0.27989369433E+02  0.37366979810E+02  0.00000000000E+00 0.  1.
<scales pt_clust_5="13000.00000" pt_clust_6="13000.00000" pt_clust_7="13000.00000" pt_clust_8="13000.00000" pt_clust_9="24.75654"></scales>
<clustering>
<clus scale="   24.757">  2  9  1 -1</clus>
<clus scale="   89.492">  7  8 -1 -1</clus>
<clus scale="   90.058">  5  6 -1 -1</clus>
<clus scale="  201.561">  2  7  1 -1</clus>
<clus scale="  201.813">  1  5  2 -1</clus>
</clustering>
</event>
<event>
 9    1  0.1484717E-005  0.1254180E+03  0.7546771E-02  0.1237162E+00
         -2   -1    0    0    0  501 -0.00000000000E+00  0.00000000000E+00  0.11028088758E+03  0.11028088758E+03  0.00000000000E+00 0.  1.
          2   -1    0    0  502    0  0.00000000000E+00 -0.00000000000E+00 -0.29307216704E+03  0.29307216704E+03  0.00000000000E+00 0. -1.
         23    2    1    2    0    0 -0.25326642854E+02  0.36392268220E+02 -0.16444444306E+02  0.10231271396E+03  0.90728361969E+02 0.  0.
         23    2    1    2    0    0 -0.85150750142E+01 -0.12539094115E+03 -0.13311913715E+03  0.20019339937E+03  0.81001838546E+02 0.  0.
        -11    1    3    3    0    0  0.15541205711E+02 -0.22742986575E+02 -0.12699361344E+02  0.30332264865E+02  0.00000000000E+00 0. -1.
         11    1    3    3    0    0 -0.40867848565E+02  0.59135254795E+02 -0.37450829621E+01  0.71980449098E+02  0.00000000000E+00 0.  1.
        -13    1    4    4    0    0 -0.41250486958E+02 -0.41248144336E+02 -0.41710066164E+02  0.71712911702E+02  0.00000000000E+00 0. -1.
         13    1    4    4    0    0  0.32735411944E+02 -0.84142796817E+02 -0.91409070988E+02  0.12848048766E+03  0.00000000000E+00 0.  1.
         21    1    1    2  502  501  0.33841717869E+02  0.88998672933E+02 -0.33227698002E+02  0.10084694129E+03  0.00000000000E+00 0.  1.
<scales pt_clust_5="13000.00000" pt_clust_6="13000.00000" pt_clust_7="13000.00000" pt_clust_8="13000.00000" pt_clust_9="95.21568"></scales>
<clustering>
<clus scale="   81.002">  7  8 -1 -1</clus>
<clus scale="   90.728">  5  6 -1 -1</clus>
<clus scale="   95.216">  1  9  2 -1</clus>
<clus scale="  118.572">  2  7  1 -1</clus>
<clus scale="  118.572">  2  5  1 -1</clus>
</clustering>
</event>
<event>
 9    1  0.1484717E-005  0.1037952E+03  0.7546771E-02  0.1272705E+00
         -1   -1    0    0    0  501 -0.00000000000E+00  0.00000000000E+00  0.11357513599E+03  0.11357513599E+03  0.00000000000E+00 0.  1.
          1   -1    0    0  502    0  0.00000000000E+00 -0.00000000000E+00 -0.18211272332E+03  0.18211272332E+03  0.00000000000E+00 0. -1.
         23    2    1    2    0    0  0.50687158018E+02 -0.41432451547E+01 -0.29334085318E+02  0.10942409631E+03  0.92340618495E+02 0.  0.
         23    2    1    2    0    0 -0.40632577473E+02  0.24027743810E+02 -0.86003046079E+02  0.13443051882E+03  0.91905939046E+02 0.  0.
        -13    1    4    4    0    0  0.26643203391E+02  0.17782155631E+02 -0.11956041858E+02  0.34190821616E+02  0.00000000000E+00 0.  1.
         13    1    4    4    0    0 -0.67275780864E+02  0.62455881788E+01 -0.74047004221E+02  0.10023969721E+03  0.00000000000E+00 0. -1.
        -13    1    3    3    0    0  0.55106089628E+02  0.21876104717E+02  0.11895386248E+02  0.60471028482E+02  0.00000000000E+00 0.  1.
         13    1    3    3    0    0 -0.44189316103E+01 -0.26019349872E+02 -0.41229471566E+02  0.48953067830E+02  0.00000000000E+00 0. -1.
         21    1    1    2  502  501 -0.10054580545E+02 -0.19884498656E+02  0.46799544061E+02  0.51833244169E+02  0.00000000000E+00 0. -1.
<scales pt_clust_5="13000.00000" pt_clust_6="13000.00000" pt_clust_7="13000.00000" pt_clust_8="13000.00000" pt_clust_9="22.28201"></scales>
<clustering>
<clus scale="   22.282">  1  9  2 -1</clus>
<clus scale="   91.906">  5  6 -1 -1</clus>
<clus scale="   92.341">  7  8 -1 -1</clus>
<clus scale="  103.409">  2  5  1 -1</clus>
<clus scale="  103.409">  2  5  1 -1</clus>
</clustering>
</event>
<event>
 9    1  0.1484717E-005  0.9396684E+02  0.7546771E-02  0.1294747E+00
         -4   -1    0    0    0  501 -0.00000000000E+00  0.00000000000E+00  0.19094737270E+03  0.19094737270E+03  0.00000000000E+00 0.  1.
          4   -1    0    0  502    0  0.00000000000E+00 -0.00000000000E+00 -0.80792330658E+02  0.80792330658E+02  0.00000000000E+00 0. -1.
         23    2    1    2    0    0  0.78154932774E+01 -0.95156850630E+01  0.11077466138E+03  0.14382420632E+03  0.90899650832E+02 0.  0.
         23    2    1    2    0    0 -0.79953617063E+01 -0.16653601089E+02 -0.17931757089E+02  0.96537574807E+02  0.93041319849E+02 0.  0.
        -11    1    3    3    0    0  0.40775834118E+02  0.15066122898E+02  0.28886541259E+02  0.52192805761E+02  0.00000000000E+00 0.  1.
         11    1    3    3    0    0 -0.32960340841E+02 -0.24581807961E+02  0.81888120120E+02  0.91631400555E+02  0.00000000000E+00 0. -1.
        -11    1    4    4    0    0  0.18562022549E+02 -0.42114322171E+02  0.13699013700E+02  0.48019035698E+02  0.00000000000E+00 0.  1.
         11    1    4    4    0    0 -0.26557384255E+02  0.25460721082E+02 -0.31630770789E+02  0.48518539108E+02  0.00000000000E+00 0. -1.
         21    1    1    2  502  501  0.17986842896E+00  0.26169286152E+02  0.17312137756E+02  0.31377922239E+02  0.00000000000E+00 0.  1.
<scales pt_clust_5="13000.00000" pt_clust_6="13000.00000" pt_clust_7="13000.00000" pt_clust_8="13000.00000" pt_clust_9="26.16990"></scales>
<clustering>
<clus scale="   26.170">  1  9  2 -1</clus>
<clus scale="   90.900">  5  6 -1 -1</clus>
<clus scale="   91.847">  1  5  2 -1</clus>
<clus scale="   93.041">  7  8 -1 -1</clus>
<clus scale="   93.967">  2  5  1 -1</clus>
</clustering>
</event>
<event>
 9    1  0.1484717E-005  0.1858911E+03  0.7546771E-02  0.1164384E+00
          1   -1    0    0  502    0  0.00000000000E+00  0.00000000000E+00  0.53383346139E+03  0.53383346139E+03  0.00000000000E+00 0. -1.
         -1   -1    0    0    0  501 -0.00000000000E+00 -0.00000000000E+00 -0.12947282173E+03  0.12947282173E+03  0.00000000000E+00 0.  1.
         23    2    1    2    0    0 -0.19173391869E+03 -0.48304791864E+02  0.20320010845E+03  0.30434346066E+03  0.11063186466E+03 0.  0.
         23    2    1    2    0    0  0.12534734900E+03 -0.33250889625E+02  0.19646471149E+03  0.25369859995E+03  0.94588673715E+02 0.  0.
        -11    1    4    4    0    0  0.12367280451E+03 -0.58401046850E+00  0.17602372732E+03  0.21512706995E+03  0.00000000000E+00 0.  1.
         11    1    4    4    0    0  0.16745444861E+01 -0.32666879156E+02  0.20440984166E+02  0.38571530002E+02  0.00000000000E+00 0. -1.
        -13    1    3    3    0    0 -0.13505382954E+03 -0.27972102491E+02  0.62740356684E+02  0.15152005725E+03  0.00000000000E+00 0.  1.
         13    1    3    3    0    0 -0.56680089145E+02 -0.20332689373E+02  0.14045975177E+03  0.15282340341E+03  0.00000000000E+00 0. -1.
         21    1    1    2  502  501  0.66386569688E+02  0.81555681489E+02  0.46958197256E+01  0.10526422251E+03  0.00000000000E+00 0.  1.
<scales pt_clust_5="13000.00000" pt_clust_6="13000.00000" pt_clust_7="13000.00000" pt_clust_8="13000.00000" pt_clust_9="105.15943"></scales>
<clustering>
<clus scale="   94.589">  5  6 -1 -1</clus>
<clus scale="  105.159">  2  9  1 -1</clus>
<clus scale="  110.632">  7  8 -1 -1</clus>
<clus scale="  176.814">  1  5  2 -1</clus>
<clus scale="  176.814">  1  5  2 -1</clus>
</clustering>
</event>
<event>
 9    1  0.1484717E-005  0.9562958E+02  0.7546771E-02  0.1297325E+00
          2   -1    0    0  502    0  0.00000000000E+00  0.00000000000E+00  0.59288090988E+03  0.59288090988E+03  0.00000000000E+00 0. -1.
         -2   -1    0    0    0  501 -0.00000000000E+00 -0.00000000000E+00 -0.34200536573E+02  0.34200536573E+02  0.00000000000E+00 0.  1.
         23    2    1    2    0    0 -0.42152517732E+02  0.23860648678E+02  0.76042925188E+02  0.12906495600E+03  0.92352970119E+02 0.  0.
         23    2    1    2    0    0  0.18208235588E+02 -0.11308790405E+02  0.43950817922E+03  0.44711450985E+03  0.79274943916E+02 0.  0.
        -11    1    4    4    0    0 -0.15043382164E+02  0.26846369698E+02  0.13815700793E+03  0.14154289015E+03  0.00000000000E+00 0. -1.
         11    1    4    4    0    0  0.33251617752E+02 -0.38155160103E+02  0.30135117129E+03  0.30557161970E+03  0.00000000000E+00 0.  1.
        -11    1    3    3    0    0  0.14238167724E+02 -0.25180153782E+02  0.27760138829E+02  0.40092279461E+02  0.00000000000E+00 0.  1.
         11    1    3    3    0    0 -0.56390685456E+02  0.49040802459E+02  0.48282786359E+02  0.88972676539E+02  0.00000000000E+00 0. -1.
         21    1    1    2  502  501  0.23944282144E+02 -0.12551858273E+02  0.43129268897E+02  0.50901980601E+02  0.00000000000E+00 0.  1.
<scales pt_clust_5="13000.00000" pt_clust_6="13000.00000" pt_clust_7="13000.00000" pt_clust_8="13000.00000" pt_clust_9="27.03475"></scales>
<clustering>
<clus scale="   27.035">  2  9  1 -1</clus>
<clus scale="   79.275">  5  6 -1 -1</clus>
<clus scale="   83.069">  1  5  2 -1</clus>
<clus scale="   92.353">  7  8 -1 -1</clus>
<clus scale="   83.069">  1  5  2 -1</clus>
</clustering>
</event>
<event>
 9    1  0.1484717E-005  0.1060992E+03  0.7546771E-02  0.1269520E+00
         -2   -1    0    0    0  501 -0.00000000000E+00  0.00000000000E+00  0.34712145593E+02  0.34712145593E+02  0.00000000000E+00 0.  1.
          2   -1    0    0  502    0  0.00000000000E+00 -0.00000000000E+00 -0.56734580570E+03  0.56734580570E+03  0.00000000000E+00 0. -1.
         23    2    1    2    0    0 -0.72071014559E+01  0.51575554256E+02 -0.22908565361E+03  0.25198848181E+03  0.91137139342E+02 0.  0.
         23    2    1    2    0    0 -0.22478579418E+02 -0.43321688602E+02 -0.30084008109E+03  0.31913892136E+03  0.94672284762E+02 0.  0.
        -11    1    3    3    0    0  0.21131341598E+02 -0.75927296821E-01 -0.70606298398E+01  0.22279853150E+02  0.00000000000E+00 0. -1.
         11    1    3    3    0    0 -0.28338443054E+02  0.51651481553E+02 -0.22202502377E+03  0.22970862866E+03  0.00000000000E+00 0.  1.
        -13    1    4    4    0    0 -0.42455891697E+02 -0.58216934987E+02 -0.27021434638E+03  0.27965605169E+03  0.00000000000E+00 0. -1.
         13    1    4    4    0    0  0.19977312279E+02  0.14895246385E+02 -0.30625734709E+02  0.39482869668E+02  0.00000000000E+00 0.  1.
         21    1    1    2  502  501  0.29685680874E+02 -0.82538656543E+01 -0.27079254126E+01  0.30930548124E+02  0.00000000000E+00 0.  1.
<scales pt_clust_5="13000.00000" pt_clust_6="13000.00000" pt_clust_7="13000.00000" pt_clust_8="13000.00000" pt_clust_9="30.81178"></scales>
<clustering>
<clus scale="   30.812">  1  9  2 -1</clus>
<clus scale="   91.137">  5  6 -1 -1</clus>
<clus scale="   94.672">  7  8 -1 -1</clus>
<clus scale="  102.957">  1  5  2 -1</clus>
<clus scale="  106.099">  2  5  1 -1</clus>
</clustering>
</event>
<event>
 9    1  0.1484717E-005  0.9831383E+02  0.7546771E-02  0.1284650E+00
          1   -1    0    0  502    0  0.00000000000E+00  0.00000000000E+00  0.68117922503E+02  0.68117922503E+02  0.00000000000E+00 0. -1.
         -1   -1    0    0    0  501 -0.00000000000E+00 -0.00000000000E+00 -0.19512009923E+03  0.19512009923E+03  0.00000000000E+00 0.  1.
         23    2    1    2    0    0  0.25097714094E+02  0.95105078043E+01 -0.92665608923E+02  0.13411228007E+03  0.93160311163E+02 0.  0.
         23    2    1    2    0    0 -0.42679151782E+02  0.48759556068E+01 -0.23336052749E+02  0.10388512733E+03  0.91663860832E+02 0.  0.
        -11    1    3    3    0    0  0.46112643554E+02 -0.26717984268E+02 -0.39008784035E+02  0.66044771260E+02  0.00000000000E+00 0.  1.
         11    1    3    3    0    0 -0.21014929460E+02  0.36228492073E+02 -0.53656824888E+02  0.68067508806E+02  0.00000000000E+00 0. -1.
        -11    1    4    4    0    0 -0.45277384158E+02  0.41310862271E+02 -0.27390799123E+02  0.67133335493E+02  0.00000000000E+00 0. -1.
         11    1    4    4    0    0  0.25982323760E+01 -0.36434906664E+02  0.40547463744E+01  0.36751791838E+02  0.00000000000E+00 0.  1.
         21    1    1    2  502  501  0.17581437688E+02 -0.14386463411E+02 -0.11000515056E+02  0.25240614338E+02  0.00000000000E+00 0.  1.
<scales pt_clust_5="13000.00000" pt_clust_6="13000.00000" pt_clust_7="13000.00000" pt_clust_8="13000.00000" pt_clust_9="22.71733"></scales>
<clustering>
<clus scale="   22.717">  1  9  2 -1</clus>
<clus scale="   91.664">  7  8 -1 -1</clus>
<clus scale="   93.160">  5  6 -1 -1</clus>
<clus scale="   96.897">  1  7  2 -1</clus>
<clus scale="   22.717">  1  5  2 -1</clus>
</clustering>
</event>
<event>
 9    1  0.1484717E-005  0.9466565E+02  0.7546771E-02  0.1292299E+00
         -1   -1    0    0    0  501 -0.00000000000E+00  0.00000000000E+00  0.23236663782E+03  0.23236663782E+03  0.00000000000E+00 0.  1.
          1   -1    0    0  502    0  0.00000000000E+00 -0.00000000000E+00 -0.55930307916E+02  0.55930307916E+02  0.00000000000E+00 0. -1.
         23    2    1    2    0    0  0.20634044303E+01  0.11874370231E+02  0.10996881629E+03  0.14364060260E+03  0.91619997006E+02 0.  0.
         23    2    1    2    0    0 -0.29344731572E+02 -0.14039421437E+02  0.34487359836E+02  0.10256491298E+03  0.90950342279E+02 0.  0.
        -13    1    4    4    0    0  0.13592576781E+01  0.36283395692E+02  0.21514025565E+02  0.42204095541E+02  0.00000000000E+00 0.  1.
         13    1    4    4    0    0 -0.30703989251E+02 -0.50322817130E+02  0.12973334271E+02  0.60360817439E+02  0.00000000000E+00 0. -1.
        -13    1    3    3    0    0 -0.19656767791E+02  0.78034073730E+01 -0.87463043423E+01  0.22886230058E+02  0.00000000000E+00 0. -1.
         13    1    3    3    0    0  0.21720172222E+02  0.40709628579E+01  0.11871512063E+03  0.12075437254E+03  0.00000000000E+00 0.  1.
         21    1    1    2  502  501  0.27281327142E+02  0.21650512062E+01  0.31980153775E+02  0.42091430159E+02  0.00000000000E+00 0.  1.
<scales pt_clust_5="13000.00000" pt_clust_6="13000.00000" pt_clust_7="13000.00000" pt_clust_8="13000.00000" pt_clust_9="27.36710"></scales>
<clustering>
<clus scale="   27.367">  1  9  2 -1</clus>
<clus scale="   90.950">  5  6 -1 -1</clus>
<clus scale="   91.620">  7  8 -1 -1</clus>
<clus scale="   94.018">  2  5  1 -1</clus>
<clus scale="   94.018">  2  5  1 -1</clus>
</clustering>
</event>
<event>
 9    1  0.1484717E-005  0.1138203E+03  0.7546771E-02  0.1262487E+00
          2   -1    0    0  502    0  0.00000000000E+00  0.00000000000E+00  0.11853040302E+03  0.11853040302E+03  0.00000000000E+00 0. -1.
         -2   -1    0    0    0  501 -0.00000000000E+00 -0.00000000000E+00 -0.34553179120E+03  0.34553179120E+03  0.00000000000E+00 0.  1.
         23    2    1    2    0    0  0.43767155485E+02 -0.58254058726E+02 -0.12843579502E+02  0.11632117321E+03  0.89758334121E+02 0.  0.
         23    2    1    2    0    0  0.55314613515E+01  0.70079615052E+01  0.12666043517E+02  0.11003200556E+03  0.10893532485E+03 0.  0.
        -11    1    3    3    0    0 -0.11959689306E+02 -0.37305998464E+02 -0.35259621821E+02  0.52706855537E+02  0.00000000000E+00 0.  1.
         11    1    3    3    0    0  0.55726844791E+02 -0.20948060263E+02  0.22416042319E+02  0.63614317668E+02  0.00000000000E+00 0. -1.
        -13    1    4    4    0    0  0.45700734379E+02  0.37175823195E+02  0.39377331323E+01  0.59043244281E+02  0.00000000000E+00 0.  1.
         13    1    4    4    0    0 -0.40169273027E+02 -0.30167861690E+02  0.87283103850E+01  0.50988761278E+02  0.00000000000E+00 0. -1.
         21    1    1    2  502  501 -0.49298616836E+02  0.51246097221E+02 -0.22682385220E+03  0.23770901546E+03  0.00000000000E+00 0.  1.
<scales pt_clust_5="13000.00000" pt_clust_6="13000.00000" pt_clust_7="13000.00000" pt_clust_8="13000.00000" pt_clust_9="71.10918"></scales>
<clustering>
<clus scale="   71.109">  2  9  1 -1</clus>
<clus scale="   89.758">  5  6 -1 -1</clus>
<clus scale="   95.628">  2  5  1 -1</clus>
<clus scale="  108.935">  7  8 -1 -1</clus>
<clus scale="  113.820">  1  5  2 -1</clus>
</clustering>
</event>
<event>
 9    1  0.1484717E-005  0.1450874E+03  0.7546771E-02  0.1223231E+00
          1   -1    0    0  502    0  0.00000000000E+00  0.00000000000E+00  0.26596001080E+03  0.26596001080E+03  0.00000000000E+00 0. -1.
         -1   -1    0    0    0  501 -0.00000000000E+00 -0.00000000000E+00 -0.23743524775E+03  0.23743524775E+03  0.00000000000E+00 0.  1.
         23    2    1    2    0    0  0.57935741210E+02 -0.58738223072E+02  0.13315091838E+02  0.12833360679E+03  0.97393500818E+02 0.  0.
         23    2    1    2    0    0  0.44125644251E+02  0.44654256636E+01  0.15998877198E+03  0.18979683869E+03  0.91975107019E+02 0.  0.
        -13    1    4    4    0    0  0.21597205691E+02 -0.25806811517E+02  0.14555668120E+03  0.14939604499E+03  0.00000000000E+00 0. -1.
         13    1    4    4    0    0  0.22528438561E+02  0.30272237180E+02  0.14432090773E+02  0.40400793705E+02  0.00000000000E+00 0.  1.
        -13    1    3    3    0    0 -0.17465684467E+02 -0.47702233874E+02 -0.93580617714E+00  0.50807764994E+02  0.00000000000E+00 0. -1.
         13    1    3    3    0    0  0.75401425677E+02 -0.11035989198E+02  0.14250898015E+02  0.77525841795E+02  0.00000000000E+00 0.  1.
         21    1    1    2  502  501 -0.10206138546E+03  0.54272797408E+02 -0.14477910077E+03  0.18526481306E+03  0.00000000000E+00 0.  1.
<scales pt_clust_5="13000.00000" pt_clust_6="13000.00000" pt_clust_7="13000.00000" pt_clust_8="13000.00000" pt_clust_9="107.54007"></scales>
<clustering>
<clus scale="   91.975">  5  6 -1 -1</clus>
<clus scale="   97.394">  7  8 -1 -1</clus>
<clus scale="  102.110">  1  5  2 -1</clus>
<clus scale="  107.540">  2  9  1 -1</clus>
<clus scale="  102.110">  1  5  2 -1</clus>
</clustering>
</event>
<event>
 9    1  0.1484717E-005  0.3516398E+03  0.7546771E-02  0.1062008E+00
          1   -1    0    0  502    0  0.00000000000E+00  0.00000000000E+00  0.15908322220E+04  0.15908322220E+04  0.00000000000E+00 0. -1.
         -1   -1    0    0    0  501 -0.00000000000E+00 -0.00000000000E+00 -0.19140293097E+03  0.19140293097E+03  0.00000000000E+00 0.  1.
         23    2    1    2    0    0 -0.14130930463E+03 -0.35365960417E+03  0.17820322164E+03  0.43017113746E+03  0.90815109447E+02 0.  0.
         23    2    1    2    0    0  0.64159877423E+02  0.32591209784E+03  0.12223153880E+04  0.12700692301E+04  0.93197404092E+02 0.  0.
        -11    1    4    4    0    0 -0.48337325269E+01  0.13272748893E+03  0.61048804375E+03  0.62476843939E+03  0.00000000000E+00 0. -1.
         11    1    4    4    0    0  0.68993609950E+02  0.19318460891E+03  0.61182734420E+03  0.64530079068E+03  0.00000000000E+00 0.  1.
        -13    1    3    3    0    0 -0.11268610269E+03 -0.16733192310E+03  0.10941892601E+03  0.22950083137E+03  0.00000000000E+00 0. -1.
         13    1    3    3    0    0 -0.28623201934E+02 -0.18632768107E+03  0.68784295629E+02  0.20067030609E+03  0.00000000000E+00 0.  1.
         21    1    1    2  502  501  0.77149427206E+02  0.27747506325E+02 -0.10893185667E+01  0.81994785447E+02  0.00000000000E+00 0.  1.
<scales pt_clust_5="13000.00000" pt_clust_6="13000.00000" pt_clust_7="13000.00000" pt_clust_8="13000.00000" pt_clust_9="81.98755"></scales>
<clustering>
<clus scale="   81.988">  2  9  1 -1</clus>
<clus scale="   90.815">  7  8 -1 -1</clus>
<clus scale="   93.197">  5  6 -1 -1</clus>
<clus scale="  351.016">  2  7  1 -1</clus>
<clus scale="  351.640">  1  5  2 -1</clus>
</clustering>
</event>
<event>
 9    1  0.1484717E-005  0.1024185E+03  0.7546771E-02  0.1276367E+00
         -3   -1    0    0    0  501 -0.00000000000E+00  0.00000000000E+00  0.44320950699E+03  0.44320950699E+03  0.00000000000E+00 0.  1.
          3   -1    0    0  502    0  0.00000000000E+00 -0.00000000000E+00 -0.48248883935E+02  0.48248883935E+02  0.00000000000E+00 0. -1.
         23    2    1    2    0    0 -0.24998461304E+02 -0.14259079817E+02  0.26561088491E+03  0.28143998716E+03  0.88493388264E+02 0.  0.
         23    2    1    2    0    0  0.44843900814E+02  0.26381171430E+02  0.31340898363E+02  0.10928847152E+03  0.90855800312E+02 0.  0.
        -11    1    4    4    0    0 -0.18343070707E+02  0.25813551946E+02 -0.10660473394E+02  0.33413371575E+02  0.00000000000E+00 0. -1.
         11    1    4    4    0    0  0.63186971521E+02  0.56761948430E+00  0.42001371757E+02  0.75875099943E+02  0.00000000000E+00 0.  1.
        -13    1    3    3    0    0  0.18236493101E+02  0.20584377123E+02  0.36524782935E+02  0.45720302171E+02  0.00000000000E+00 0. -1.
         13    1    3    3    0    0 -0.43234954405E+02 -0.34843456941E+02  0.22908610198E+03  0.23571968499E+03  0.00000000000E+00 0.  1.
         21    1    1    2  502  501 -0.19845439510E+02 -0.12122091613E+02  0.98008839779E+02  0.10072993224E+03  0.00000000000E+00 0.  1.
<scales pt_clust_5="13000.00000" pt_clust_6="13000.00000" pt_clust_7="13000.00000" pt_clust_8="13000.00000" pt_clust_9="23.25482"></scales>
<clustering>
<clus scale="   23.255">  1  9  2 -1</clus>
<clus scale="   88.493">  7  8 -1 -1</clus>
<clus scale="   90.856">  5  6 -1 -1</clus>
<clus scale="  100.329">  1  7  2 -1</clus>
<clus scale="  102.419">  2  5  1 -1</clus>
</clustering>
</event>
<event>
 9    1  0.1484717E-005  0.1360955E+03  0.7546771E-02  0.1218929E+00
         -1   -1    0    0    0  501 -0.00000000000E+00  0.00000000000E+00  0.32321260172E+02  0.32321260172E+02  0.00000000000E+00 0.  1.
          1   -1    0    0  502    0  0.00000000000E+00 -0.00000000000E+00 -0.69610435654E+03  0.69610435654E+03  0.00000000000E+00 0. -1.
         23    2    1    2    0    0  0.42706527794E+02  0.82138547288E+02 -0.26085386511E+03  0.29128255762E+03  0.90720455055E+02 0.  0.
         23    2    1    2    0    0 -0.34583650634E+02 -0.10395674659E+03 -0.37470396662E+03  0.40055507584E+03  0.89656411549E+02 0.  0.
        -13    1    4    4    0    0 -0.22704394997E+02  0.28727135666E+01 -0.21658138320E+02  0.31508998571E+02  0.00000000000E+00 0.  1.
         13    1    4    4    0    0 -0.11879255637E+02 -0.10682946015E+03 -0.35304582830E+03  0.36904607727E+03  0.00000000000E+00 0. -1.
        -13    1    3    3    0    0  0.37111674340E+01  0.21286677119E+02 -0.10720876556E+01  0.21634342108E+02  0.00000000000E+00 0.  1.
         13    1    3    3    0    0  0.38995360360E+02  0.60851870169E+02 -0.25978177746E+03  0.26964821552E+03  0.00000000000E+00 0. -1.
         21    1    1    2  502  501 -0.81228771594E+01  0.21818199300E+02 -0.28225264640E+02  0.36587983247E+02  0.00000000000E+00 0. -1.
<scales pt_clust_5="13000.00000" pt_clust_6="13000.00000" pt_clust_7="13000.00000" pt_clust_8="13000.00000" pt_clust_9="23.28121"></scales>
<clustering>
<clus scale="   23.281">  1  9  2 -1</clus>
<clus scale="   89.656">  5  6 -1 -1</clus>
<clus scale="   90.720">  7  8 -1 -1</clus>
<clus scale="  135.389">  2  5  1 -1</clus>
<clus scale="  135.389">  2  5  1 -1</clus>
</clustering>
</event>
<event>
 9    1  0.1484717E-005  0.1308975E+03  0.7546771E-02  0.1226176E+00
         -1   -1    0    0    0  501 -0.00000000000E+00  0.00000000000E+00  0.37178454363E+03  0.37178454363E+03  0.00000000000E+00 0.  1.
          1   -1    0    0  502    0  0.00000000000E+00 -0.00000000000E+00 -0.11059266495E+03  0.11059266495E+03  0.00000000000E+00 0. -1.
         23    2    1    2    0    0 -0.77883822134E+02  0.46987440992E+02  0.90866429174E+02  0.15677298222E+03  0.89707026714E+02 0.  0.
         23    2    1    2    0    0  0.99826259902E+02 -0.10468368363E+02 -0.15104575480E+02  0.13534280776E+03  0.89524625155E+02 0.  0.
        -11    1    4    4    0    0  0.22132920119E+02  0.35831909079E+02  0.58034808600E+01  0.42514376995E+02  0.00000000000E+00 0.  1.
         11    1    4    4    0    0  0.77693339783E+02 -0.46300277442E+02 -0.20908056340E+02  0.92828430762E+02  0.00000000000E+00 0. -1.
        -13    1    3    3    0    0 -0.70928752213E+02  0.13089138101E+02  0.97761001266E+02  0.12148838132E+03  0.00000000000E+00 0.  1.
         13    1    3    3    0    0 -0.69550699208E+01  0.33898302890E+02 -0.68945720912E+01  0.35284600901E+02  0.00000000000E+00 0. -1.
         21    1    1    2  502  501 -0.21942437768E+02 -0.36519072629E+02  0.18543002499E+03  0.19026141860E+03  0.00000000000E+00 0.  1.
<scales pt_clust_5="13000.00000" pt_clust_6="13000.00000" pt_clust_7="13000.00000" pt_clust_8="13000.00000" pt_clust_9="42.60415"></scales>
<clustering>
<clus scale="   42.604">  1  9  2 -1</clus>
<clus scale="   89.525">  5  6 -1 -1</clus>
<clus scale="   89.707">  7  8 -1 -1</clus>
<clus scale="  130.773">  2  5  1 -1</clus>
<clus scale="  130.773">  2  5  1 -1</clus>
</clustering>
</event>
<event>
 9    1  0.1484717E-005  0.1005840E+03  0.7546771E-02  0.1279160E+00
         -2   -1    0    0    0  501 -0.00000000000E+00  0.00000000000E+00  0.24061672049E+03  0.24061672049E+03  0.00000000000E+00 0.  1.
          2   -1    0    0  502    0  0.00000000000E+00 -0.00000000000E+00 -0.12352551381E+03  0.12352551381E+03  0.00000000000E+00 0. -1.
         23    2    1    2    0    0  0.61277930695E+01  0.15826195056E+02  0.13840410299E+03  0.16716417171E+03  0.92196237891E+02 0.  0.
         23    2    1    2    0    0  0.44556687958E+02  0.24214125472E+02 -0.60687877763E+02  0.12133063667E+03  0.92013491255E+02 0.  0.
        -11    1    4    4    0    0 -0.26334726118E+02  0.11952371661E+02 -0.29254981564E+01  0.29067774726E+02  0.00000000000E+00 0.  1.
         11    1    4    4    0    0  0.70891414076E+02  0.12261753811E+02 -0.57762379606E+02  0.92262861943E+02  0.00000000000E+00 0. -1.
        -13    1    3    3    0    0  0.41018091312E+02 -0.14815118830E+02  0.90434866068E+02  0.10040137729E+03  0.00000000000E+00 0. -1.
         13    1    3    3    0    0 -0.34890298242E+02  0.30641313885E+02  0.47969236920E+02  0.66762794419E+02  0.00000000000E+00 0.  1.
         21    1    1    2  502  501 -0.50684481027E+02 -0.40040320528E+02  0.39374981455E+02  0.75647425928E+02  0.00000000000E+00 0.  1.
<scales pt_clust_5="13000.00000" pt_clust_6="13000.00000" pt_clust_7="13000.00000" pt_clust_8="13000.00000" pt_clust_9="64.59213"></scales>
<clustering>
<clus scale="   64.592">  1  9  2 -1</clus>
<clus scale="   92.013">  5  6 -1 -1</clus>
<clus scale="   92.196">  7  8 -1 -1</clus>
<clus scale="  100.416">  2  5  1 -1</clus>
<clus scale="  100.416">  2  5  1 -1</clus>
</clustering>
</event>
<event>
 9    1  0.1484717E-005  0.1036070E+03  0.7546771E-02  0.1273689E+00
          2   -1    0    0  502    0  0.00000000000E+00  0.00000000000E+00  0.39732917566E+02  0.39732917566E+02  0.00000000000E+00 0. -1.
         -2   -1    0    0    0  501 -0.00000000000E+00 -0.00000000000E+00 -0.37896149038E+03  0.37896149038E+03  0.00000000000E+00 0.  1.
         23    2    1    2    0    0 -0.47904554710E+02  0.93425729857E+01 -0.20198017373E+03  0.22609488541E+03  0.89111035212E+02 0.  0.
         23    2    1    2    0    0  0.41908103924E+02 -0.30176588150E+02 -0.80839189440E+02  0.13216763904E+03  0.90919715211E+02 0.  0.
        -13    1    3    3    0    0 -0.23822019521E+02  0.44286756136E+02 -0.62038952624E+02  0.79860109102E+02  0.00000000000E+00 0. -1.
         13    1    3    3    0    0 -0.24082535188E+02 -0.34944183150E+02 -0.13994122111E+03  0.14623477631E+03  0.00000000000E+00 0.  1.
        -13    1    4    4    0    0  0.15240296182E+02 -0.60369756157E+02 -0.61374011617E+02  0.87427360638E+02  0.00000000000E+00 0.  1.
         13    1    4    4    0    0  0.26667807741E+02  0.30193168007E+02 -0.19465177823E+02  0.44740278405E+02  0.00000000000E+00 0. -1.
         21    1    1    2  502  501  0.59964507862E+01  0.20834015164E+02 -0.56409209644E+02  0.60431883494E+02  0.00000000000E+00 0. -1.
<scales pt_clust_5="13000.00000" pt_clust_6="13000.00000" pt_clust_7="13000.00000" pt_clust_8="13000.00000" pt_clust_9="21.67980"></scales>
<clustering>
<clus scale="   21.680">  2  9  1 -1</clus>
<clus scale="   89.111">  5  6 -1 -1</clus>
<clus scale="   90.920">  7  8 -1 -1</clus>
<clus scale="  102.023">  2  5  1 -1</clus>
<clus scale="  103.607">  1  5  2 -1</clus>
</clustering>
</event>
<event>
 9    1  0.1484717E-005  0.1117168E+03  0.7546771E-02  0.1257515E+00
          2   -1    0    0  502    0  0.00000000000E+00  0.00000000000E+00  0.19470637937E+03  0.19470637937E+03  0.00000000000E+00 0. -1.
         -2   -1    0    0    0  501 -0.00000000000E+00 -0.00000000000E+00 -0.92448476111E+02  0.92448476111E+02  0.00000000000E+00 0.  1.
         23    2    1    2    0    0  0.53196190435E+02 -0.48928562031E+02  0.10130970095E+02  0.11714039037E+03  0.91626391629E+02 0.  0.
         23    2    1    2    0    0 -0.54302967766E+02  0.26523404611E+02  0.97479980060E+02  0.14695213335E+03  0.91870994780E+02 0.  0.
        -11    1    4    4    0    0  0.20167863730E+02  0.13328583735E+02  0.55303392499E+02  0.60356102374E+02  0.00000000000E+00 0. -1.
         11    1    4    4    0    0 -0.74470831497E+02  0.13194820876E+02  0.42176587561E+02  0.86596030972E+02  0.00000000000E+00 0.  1.
        -11    1    3    3    0    0  0.19909761405E+02  0.27143791039E+02  0.32770974120E+01  0.33821936057E+02  0.00000000000E+00 0.  1.
         11    1    3    3    0    0  0.33286429030E+02 -0.76072353070E+02  0.68538726830E+01  0.83318454318E+02  0.00000000000E+00 0. -1.
         21    1    1    2  502  501  0.11067773318E+01  0.22405157419E+02 -0.53530468990E+01  0.23062331759E+02  0.00000000000E+00 0.  1.
<scales pt_clust_5="13000.00000" pt_clust_6="13000.00000" pt_clust_7="13000.00000" pt_clust_8="13000.00000" pt_clust_9="22.43248"></scales>
<clustering>
<clus scale="   22.432">  2  9  1 -1</clus>
<clus scale="   91.626">  7  8 -1 -1</clus>
<clus scale="   91.871">  5  6 -1 -1</clus>
<clus scale="  111.516">  2  7  1 -1</clus>
<clus scale="  111.717">  1  5  2 -1</clus>
</clustering>
</event>
<event>
 9    1  0.1484717E-005  0.1317736E+03  0.7546771E-02  0.1224869E+00
          1   -1    0    0  502    0  0.00000000000E+00  0.00000000000E+00  0.11465777358E+03  0.11465777358E+03  0.00000000000E+00 0. -1.
         -1   -1    0    0    0  501 -0.00000000000E+00 -0.00000000000E+00 -0.20000695820E+03  0.20000695820E+03  0.00000000000E+00 0.  1.
         23    2    1    2    0    0  0.90895630895E+02  0.31506879637E+02 -0.45227814755E+02  0.13966359699E+03  0.90585130761E+02 0.  0.
         23    2    1    2    0    0 -0.95529022340E+02 -0.11046721327E+02 -0.28129975609E+01  0.13219925355E+03  0.90669209348E+02 0.  0.
        -11    1    3    3    0    0 -0.17485839602E+01  0.20609028780E+02  0.17631269238E+02  0.27178139525E+02  0.00000000000E+00 0.  1.
         11    1    3    3    0    0  0.92644214856E+02  0.10897850858E+02 -0.62859083993E+02  0.11248545746E+03  0.00000000000E+00 0. -1.
        -13    1    4    4    0    0  0.90250646555E+01 -0.25063907804E+02 -0.18811761840E+01  0.26705619077E+02  0.00000000000E+00 0. -1.
         13    1    4    4    0    0 -0.10455408700E+03  0.14017186477E+02 -0.93182137685E+00  0.10549363448E+03  0.00000000000E+00 0.  1.
         21    1    1    2  502  501  0.46333914443E+01 -0.20460158311E+02 -0.37308372299E+02  0.42801881243E+02  0.00000000000E+00 0.  1.
<scales pt_clust_5="13000.00000" pt_clust_6="13000.00000" pt_clust_7="13000.00000" pt_clust_8="13000.00000" pt_clust_9="20.97824"></scales>
<clustering>
<clus scale="   20.978">  2  9  1 -1</clus>
<clus scale="   90.585">  5  6 -1 -1</clus>
<clus scale="   90.669">  7  8 -1 -1</clus>
<clus scale="  131.716">  2  5  1 -1</clus>
<clus scale="  131.774">  1  5  2 -1</clus>
</clustering>
</event>
<event>
 9    1  0.1484717E-005  0.1471850E+03  0.7546771E-02  0.1204059E+00
          1   -1    0    0  502    0  0.00000000000E+00  0.00000000000E+00  0.17815340435E+03  0.17815340435E+03  0.00000000000E+00 0. -1.
         -1   -1    0    0    0  501 -0.00000000000E+00 -0.00000000000E+00 -0.24446513660E+03  0.24446513660E+03  0.00000000000E+00 0.  1.
         23    2    1    2    0    0 -0.27579116412E+02 -0.10917835890E+03 -0.16078058332E+03  0.21667365358E+03  0.91741781468E+02 0.  0.
         23    2    1    2    0    0  0.47254375010E+02  0.11934914462E+03  0.94682993739E+02  0.18379524765E+03  0.91316096477E+02 0.  0.
        -13    1    4    4    0    0  0.74310507110E+00  0.82383984239E+02  0.93160075448E+02  0.12436427430E+03  0.00000000000E+00 0. -1.
         13    1    4    4    0    0  0.46511269939E+02  0.36965160378E+02  0.15229182914E+01  0.59430973349E+02  0.00000000000E+00 0.  1.
        -13    1    3    3    0    0 -0.53691893769E+02 -0.68153989241E+02 -0.62212925571E+02  0.10676251128E+03  0.00000000000E+00 0. -1.
         13    1    3    3    0    0  0.26112777356E+02 -0.41024369656E+02 -0.98567657753E+02  0.10991114230E+03  0.00000000000E+00 0.  1.
         21    1    1    2  502  501 -0.19675258598E+02 -0.10170785720E+02 -0.21414266641E+00  0.22149639729E+02  0.00000000000E+00 0.  1.
<scales pt_clust_5="13000.00000" pt_clust_6="13000.00000" pt_clust_7="13000.00000" pt_clust_8="13000.00000" pt_clust_9="22.14860"></scales>
<clustering>
<clus scale="   22.149">  1  9  2 -1</clus>
<clus scale="   91.316">  5  6 -1 -1</clus>
<clus scale="   91.742">  7  8 -1 -1</clus>
<clus scale="  146.920">  1  5  2 -1</clus>
<clus scale="   22.149">  1  5  2 -1</clus>
</clustering>
</event>
<event>
 9    1  0.1484717E-005  0.9798714E+02  0.7546771E-02  0.1287325E+00
          1   -1    0    0  502    0  0.00000000000E+00  0.00000000000E+00  0.27827188569E+02  0.27827188569E+02  0.00000000000E+00 0. -1.
         -1   -1    0    0    0  501 -0.00000000000E+00 -0.00000000000E+00 -0.49446697370E+03  0.49446697370E+03  0.00000000000E+00 0.  1.
         23    2    1    2    0    0 -0.21090295235E+01  0.36855709080E+00 -0.23653328897E+03  0.25388325831E+03  0.92217830255E+02 0.  0.
         23    2    1    2    0    0 -0.20335712783E+02 -0.30493587853E+01 -0.11894034335E+03  0.15496987662E+03  0.97190624956E+02 0.  0.
        -11    1    3    3    0    0  0.18574379111E+02  0.41857023944E+02 -0.12318377783E+03  0.13142017019E+03  0.00000000000E+00 0. -1.
         11    1    3    3    0    0 -0.20683408634E+02 -0.41488466854E+02 -0.11334951114E+03  0.12246308812E+03  0.00000000000E+00 0.  1.
        -13    1    4    4    0    0  0.18202916513E+02 -0.28931001626E+02 -0.85776220401E+01  0.35240950959E+02  0.00000000000E+00 0. -1.
         13    1    4    4    0    0 -0.38538629297E+02  0.25881642840E+02 -0.11036272131E+03  0.11972892566E+03  0.00000000000E+00 0.  1.
         21    1    1    2  502  501  0.22444742307E+02  0.26808016945E+01 -0.11116615281E+03  0.11344102734E+03  0.00000000000E+00 0.  1.
<scales pt_clust_5="13000.00000" pt_clust_6="13000.00000" pt_clust_7="13000.00000" pt_clust_8="13000.00000" pt_clust_9="22.60427"></scales>
<clustering>
<clus scale="   22.604">  2  9  1 -1</clus>
<clus scale="   92.218">  5  6 -1 -1</clus>
<clus scale="   93.057">  2  5  1 -1</clus>
<clus scale="   97.191">  7  8 -1 -1</clus>
<clus scale="   97.987">  1  5  2 -1</clus>
</clustering>
</event>
<event>
 9    1  0.1484717E-005  0.1369716E+03  0.7546771E-02  0.1217925E+00
         -2   -1    0    0    0  501 -0.00000000000E+00  0.00000000000E+00  0.24437348471E+03  0.24437348471E+03  0.00000000000E+00 0.  1.
          2   -1    0    0  502    0  0.00000000000E+00 -0.00000000000E+00 -0.14969069862E+03  0.14969069862E+03  0.00000000000E+00 0. -1.
         23    2    1    2    0    0 -0.58785301169E+02  0.66527452371E+02  0.14867213046E+02  0.12579491900E+03  0.87873284166E+02 0.  0.
         23    2    1    2    0    0  0.97600005117E+02 -0.65078722332E+02 -0.30851347684E+02  0.15098393957E+03  0.89907414904E+02 0.  0.
        -11    1    3    3    0    0 -0.46050436751E+02  0.47838663955E+02 -0.32034847091E+02  0.73725246165E+02  0.00000000000E+00 0. -1.
         11    1    3    3    0    0 -0.12734864418E+02  0.18688788416E+02  0.46902060137E+02  0.52069672836E+02  0.00000000000E+00 0.  1.
        -13    1    4    4    0    0  0.47934294211E+02 -0.77599802298E+02 -0.38856193033E+02  0.99142471299E+02  0.00000000000E+00 0. -1.
         13    1    4    4    0    0  0.49665710906E+02  0.12521079966E+02  0.80048453493E+01  0.51841468270E+02  0.00000000000E+00 0.  1.
         21    1    1    2  502  501 -0.38814703947E+02 -0.14487300397E+01  0.11066692073E+03  0.11728532476E+03  0.00000000000E+00 0.  1.
<scales pt_clust_5="13000.00000" pt_clust_6="13000.00000" pt_clust_7="13000.00000" pt_clust_8="13000.00000" pt_clust_9="38.84173"></scales>
<clustering>
<clus scale="   38.842">  1  9  2 -1</clus>
<clus scale="   87.873">  5  6 -1 -1</clus>
<clus scale="   89.907">  7  8 -1 -1</clus>
<clus scale="  135.645">  1  5  2 -1</clus>
<clus scale="  136.972">  2  5  1 -1</clus>
</clustering>
</event>
<event>
 9    1  0.1484717E-005  0.9800539E+02  0.7546771E-02  0.1285474E+00
          2   -1    0    0  502    0  0.00000000000E+00  0.00000000000E+00  0.40984856694E+03  0.40984856694E+03  0.00000000000E+00 0. -1.
         -2   -1    0    0    0  501 -0.00000000000E+00 -0.00000000000E+00 -0.36197530540E+02  0.36197530540E+02  0.00000000000E+00 0.  1.
         23    2    1    2    0    0  0.37523026862E+01  0.24692368072E+02  0.15064204180E+03  0.17762106339E+03  0.90732709566E+02 0.  0.
         23    2    1    2    0    0  0.22225823815E+02 -0.35485291750E+02  0.21709467118E+03  0.23967908691E+03  0.92535265023E+02 0.  0.
        -11    1    3    3    0    0 -0.31914608371E+01  0.58875448462E+02  0.10097130937E+03  0.11692608421E+03  0.00000000000E+00 0.  1.
         11    1    3    3    0    0  0.69437635233E+01 -0.34183080390E+02  0.49670732431E+02  0.60694979175E+02  0.00000000000E+00 0. -1.
        -11    1    4    4    0    0 -0.26465327557E+02  0.10252819917E+02  0.31363006959E+02  0.42298606177E+02  0.00000000000E+00 0.  1.
         11    1    4    4    0    0  0.48691151372E+02 -0.45738111667E+02  0.18573166422E+03  0.19738048073E+03  0.00000000000E+00 0. -1.
         21    1    1    2  502  501 -0.25978126501E+02  0.10792923678E+02  0.59143234270E+01  0.28745947186E+02  0.00000000000E+00 0.  1.
<scales pt_clust_5="13000.00000" pt_clust_6="13000.00000" pt_clust_7="13000.00000" pt_clust_8="13000.00000" pt_clust_9="28.13095"></scales>
<clustering>
<clus scale="   28.131">  2  9  1 -1</clus>
<clus scale="   90.733">  5  6 -1 -1</clus>
<clus scale="   92.535">  7  8 -1 -1</clus>
<clus scale="   96.305">  2  5  1 -1</clus>
<clus scale="   98.005">  1  5  2 -1</clus>
</clustering>
</event>
<event>
 9    1  0.1484717E-005  0.1680981E+03  0.7546771E-02  0.1180175E+00
          1   -1    0    0  502    0  0.00000000000E+00  0.00000000000E+00  0.49493001870E+03  0.49493001870E+03  0.00000000000E+00 0. -1.
         -1   -1    0    0    0  501 -0.00000000000E+00 -0.00000000000E+00 -0.15367203933E+03  0.15367203933E+03  0.00000000000E+00 0.  1.
         23    2    1    2    0    0  0.97154106605E+02  0.82033568327E+02  0.16212397687E+03  0.22465526315E+03  0.89539804699E+02 0.  0.
         23    2    1    2    0    0 -0.96891049620E+02 -0.11925453074E+03  0.27102568433E+03  0.32480270565E+03  0.91827868520E+02 0.  0.
        -11    1    3    3    0    0  0.70709931285E+02  0.99981339680E+02  0.13874315133E+03  0.18505627444E+03  0.00000000000E+00 0.  1.
         11    1    3    3    0    0  0.26444175320E+02 -0.17947771353E+02  0.23380825534E+02  0.39598988718E+02  0.00000000000E+00 0. -1.
        -13    1    4    4    0    0  0.41000971070E+01 -0.41789780948E+02  0.12089616249E+03  0.12798077470E+03  0.00000000000E+00 0.  1.
         13    1    4    4    0    0 -0.10099114673E+03 -0.77464749787E+02  0.15012952183E+03  0.19682193095E+03  0.00000000000E+00 0. -1.
         21    1    1    2  502  501 -0.26305698530E+00  0.37220962408E+02 -0.91891681816E+02  0.99144089227E+02  0.00000000000E+00 0.  1.
<scales pt_clust_5="13000.00000" pt_clust_6="13000.00000" pt_clust_7="13000.00000" pt_clust_8="13000.00000" pt_clust_9="37.22189"></scales>
<clustering>
<clus scale="   37.222">  2  9  1 -1</clus>
<clus scale="   89.540">  5  6 -1 -1</clus>
<clus scale="   91.828">  7  8 -1 -1</clus>
<clus scale="  166.859">  2  5  1 -1</clus>
<clus scale="  168.098">  1  5  2 -1</clus>
</clustering>
</event>
<event>
 9    1  0.1484717E-005  0.1007969E+03  0.7546771E-02  0.1280062E+00
         -1   -1    0    0    0  501 -0.00000000000E+00  0.00000000000E+00  0.18725394270E+03  0.18725394270E+03  0.00000000000E+00 0.  1.
          1   -1    0    0  502    0  0.00000000000E+00 -0.00000000000E+00 -0.14818745650E+03  0.14818745650E+03  0.00000000000E+00 0. -1.
         23    2    1    2    0    0  0.21215464647E+01 -0.33193031519E+02  0.12780555610E+03  0.16065911802E+03  0.91492151210E+02 0.  0.
         23    2    1    2    0    0 -0.28741870372E+02  0.23373140571E+02 -0.10167443639E+03  0.14359902270E+03  0.94395918831E+02 0.  0.
        -11    1    4    4    0    0  0.22730349432E+02  0.35675095506E+02 -0.21286991472E+02  0.47355223900E+02  0.00000000000E+00 0.  1.
         11    1    4    4    0    0 -0.51472219804E+02 -0.12301954935E+02 -0.80387444914E+02  0.96243798795E+02  0.00000000000E+00 0. -1.
        -11    1    3    3    0    0 -0.24483815130E+02  0.16878915307E+02  0.12681643787E+02  0.32329229412E+02  0.00000000000E+00 0. -1.
         11    1    3    3    0    0  0.26605361595E+02 -0.50071946826E+02  0.11512391231E+03  0.12832988861E+03  0.00000000000E+00 0.  1.
         21    1    1    2  502  501  0.26620323907E+02  0.98198909485E+01  0.12935366487E+02  0.31183258478E+02  0.00000000000E+00 0.  1.
<scales pt_clust_5="13000.00000" pt_clust_6="13000.00000" pt_clust_7="13000.00000" pt_clust_8="13000.00000" pt_clust_9="28.37379"></scales>
<clustering>
<clus scale="   28.374">  1  9  2 -1</clus>
<clus scale="   91.492">  7  8 -1 -1</clus>
<clus scale="   94.396">  5  6 -1 -1</clus>
<clus scale="   98.083">  1  7  2 -1</clus>
<clus scale="  100.797">  2  5  1 -1</clus>
</clustering>
</event>
<event>
 9    1  0.1484717E-005  0.9497893E+02  0.7546771E-02  0.1292825E+00
         -2   -1    0    0    0  501 -0.00000000000E+00  0.00000000000E+00  0.73362801065E+02  0.73362801065E+02  0.00000000000E+00 0.  1.
          2   -1    0    0  502    0  0.00000000000E+00 -0.00000000000E+00 -0.25769625140E+03  0.25769625140E+03  0.00000000000E+00 0. -1.
         23    2    1    2    0    0 -0.12995216319E+02  0.16326510042E+02  0.76142772588E+01  0.94416969471E+02  0.91766858553E+02 0.  0.
         23    2    1    2    0    0 -0.76341437076E+01 -0.44093014202E+02 -0.11369292067E+03  0.15108295692E+03  0.88867911018E+02 0.  0.
        -11    1    4    4    0    0 -0.47746444586E+02 -0.25881750782E+02 -0.51319212788E+02  0.74721145571E+02  0.00000000000E+00 0.  1.
         11    1    4    4    0    0  0.40112300879E+02 -0.18211263420E+02 -0.62373707881E+02  0.76361811346E+02  0.00000000000E+00 0. -1.
        -13    1    3    3    0    0  0.53054771376E+01 -0.35488635024E+02 -0.90258668945E+01  0.37000778056E+02  0.00000000000E+00 0. -1.
         13    1    3    3    0    0 -0.18300693456E+02  0.51815145066E+02  0.16640144153E+02  0.57416191415E+02  0.00000000000E+00 0.  1.
         21    1    1    2  502  501  0.20629360026E+02  0.27766504160E+02 -0.78254806921E+02  0.85559126074E+02  0.00000000000E+00 0. -1.
<scales pt_clust_5="13000.00000" pt_clust_6="13000.00000" pt_clust_7="13000.00000" pt_clust_8="13000.00000" pt_clust_9="34.59117"></scales>
<clustering>
<clus scale="   34.591">  2  9  1 -1</clus>
<clus scale="   88.868">  5  6 -1 -1</clus>
<clus scale="   91.767">  7  8 -1 -1</clus>
<clus scale="   92.181">  2  5  1 -1</clus>
<clus scale="   34.591">  2  5  1 -1</clus>
</clustering>
</event>
<event>
 9    1  0.1484717E-005  0.1243368E+03  0.7546771E-02  0.1237614E+00
          2   -1    0    0  502    0  0.00000000000E+00  0.00000000000E+00  0.16675248624E+03  0.16675248624E+03  0.00000000000E+00 0. -1.
         -2   -1    0    0    0  501 -0.00000000000E+00 -0.00000000000E+00 -0.13636190480E+03  0.13636190480E+03  0.00000000000E+00 0.  1.
         23    2    1    2    0    0 -0.80143513368E+02  0.15175734384E+02 -0.36962705111E+02  0.12578573282E+03  0.88331893233E+02 0.  0.
         23    2    1    2    0    0  0.71776629306E+02 -0.43386758297E+02  0.75892363157E+02  0.14668910131E+03  0.93400997566E+02 0.  0.
        -13    1    4    4    0    0  0.59440770903E+02  0.17024616934E+02  0.24821305085E+02  0.66626871556E+02  0.00000000000E+00 0.  1.
         13    1    4    4    0    0  0.12335858403E+02 -0.60411375231E+02  0.51071058072E+02  0.80062229750E+02  0.00000000000E+00 0. -1.
        -13    1    3    3    0    0 -0.28619516985E+02  0.13287331212E+02 -0.61168762759E+02  0.68827664936E+02  0.00000000000E+00 0. -1.
         13    1    3    3    0    0 -0.51523996383E+02  0.18884031724E+01  0.24206057648E+02  0.56958067880E+02  0.00000000000E+00 0.  1.
         21    1    1    2  502  501  0.83668840620E+01  0.28211023913E+02 -0.85390766015E+01  0.30639556921E+02  0.00000000000E+00 0.  1.
<scales pt_clust_5="13000.00000" pt_clust_6="13000.00000" pt_clust_7="13000.00000" pt_clust_8="13000.00000" pt_clust_9="29.42561"></scales>
<clustering>
<clus scale="   29.426">  2  9  1 -1</clus>
<clus scale="   88.332">  7  8 -1 -1</clus>
<clus scale="   93.401">  5  6 -1 -1</clus>
<clus scale="  120.575">  2  7  1 -1</clus>
<clus scale="  124.337">  1  5  2 -1</clus>
</clustering>
</event>
<event>
 9    1  0.1484717E-005  0.9685064E+02  0.7546771E-02  0.1289789E+00
         -2   -1    0    0    0  501 -0.00000000000E+00  0.00000000000E+00  0.33346669236E+03  0.33346669236E+03  0.00000000000E+00 0.  1.
          2   -1    0    0  502    0  0.00000000000E+00 -0.00000000000E+00 -0.29239143272E+03  0.29239143272E+03  0.00000000000E+00 0. -1.
         23    2    1    2    0    0  0.27241691372E+02  0.86042077859E+02 -0.94178286878E+01  0.12769471883E+03  0.89843735507E+02 0.  0.
         23    2    1    2    0    0 -0.31156574338E+02 -0.86329108055E+01 -0.20876493274E+03  0.22756734763E+03  0.84609936138E+02 0.  0.
        -11    1    4    4    0    0 -0.45630123934E+02  0.14350618106E+02 -0.18623012830E+03  0.19227508715E+03  0.00000000000E+00 0. -1.
         11    1    4    4    0    0  0.14473549596E+02 -0.22983528911E+02 -0.22534804439E+02  0.35292260487E+02  0.00000000000E+00 0.  1.
        -13    1    3    3    0    0  0.23660828567E+02 -0.63892556989E+01 -0.23705587930E+02  0.34097100991E+02  0.00000000000E+00 0. -1.
         13    1    3    3    0    0  0.35808628052E+01  0.92431333558E+02  0.14287759243E+02  0.93597617843E+02  0.00000000000E+00 0.  1.
         21    1    1    2  502  501  0.39148829659E+01 -0.77409167053E+02  0.25925802107E+03  0.27059605862E+03  0.00000000000E+00 0.  1.
<scales pt_clust_5="13000.00000" pt_clust_6="13000.00000" pt_clust_7="13000.00000" pt_clust_8="13000.00000" pt_clust_9="77.50810"></scales>
<clustering>
<clus scale="   77.508">  1  9  2 -1</clus>
<clus scale="   84.610">  5  6 -1 -1</clus>
<clus scale="   89.844">  7  8 -1 -1</clus>
<clus scale="   92.016">  2  5  1 -1</clus>
<clus scale="   92.016">  2  5  1 -1</clus>
</clustering>
</event>
<event>
 9    1  0.1484717E-005  0.1027796E+03  0.7546771E-02  0.1274825E+00
          1   -1    0    0  502    0  0.00000000000E+00  0.00000000000E+00  0.17962752995E+03  0.17962752995E+03  0.00000000000E+00 0. -1.
         -1   -1    0    0    0  501 -0.00000000000E+00 -0.00000000000E+00 -0.37865063932E+03  0.37865063932E+03  0.00000000000E+00 0.  1.
         23    2    1    2    0    0 -0.11467468028E+02 -0.10092865848E+02 -0.42583781833E+02  0.10084875019E+03  0.90131699066E+02 0.  0.
         23    2    1    2    0    0  0.61824715196E-01 -0.67204540924E+02  0.12356075620E+03  0.16673193942E+03  0.89531139870E+02 0.  0.
        -11    1    3    3    0    0 -0.49564908778E+01 -0.48975894466E+02 -0.11265196205E+02  0.50498610734E+02  0.00000000000E+00 0. -1.
         11    1    3    3    0    0 -0.65109771498E+01  0.38883028617E+02 -0.31318585629E+02  0.50350139460E+02  0.00000000000E+00 0.  1.
        -13    1    4    4    0    0  0.27306474488E+02  0.95826274497E+01  0.21048399373E+02  0.35784150318E+02  0.00000000000E+00 0.  1.
         13    1    4    4    0    0 -0.27244649773E+02 -0.76787168374E+02  0.10251235682E+03  0.13094778910E+03  0.00000000000E+00 0. -1.
         21    1    1    2  502  501  0.11405643312E+02  0.77297406772E+02 -0.28000008373E+03  0.29069747966E+03  0.00000000000E+00 0.  1.
<scales pt_clust_5="13000.00000" pt_clust_6="13000.00000" pt_clust_7="13000.00000" pt_clust_8="13000.00000" pt_clust_9="78.13436"></scales>
<clustering>
<clus scale="   78.134">  2  9  1 -1</clus>
<clus scale="   89.531">  7  8 -1 -1</clus>
<clus scale="   90.132">  5  6 -1 -1</clus>
<clus scale="  102.253">  1  7  2 -1</clus>
<clus scale="  102.253">  1  5  2 -1</clus>
</clustering>
</event>
<event>
 9    1  0.1484717E-005  0.9491314E+02  0.7546771E-02  0.1291938E+00
          3   -1    0    0  502    0  0.00000000000E+00  0.00000000000E+00  0.14597021783E+03  0.14597021783E+03  0.00000000000E+00 0. -1.
         -3   -1    0    0    0  501 -0.00000000000E+00 -0.00000000000E+00 -0.19053846360E+03  0.19053846360E+03  0.00000000000E+00 0.  1.
         23    2    1    2    0    0  0.28861771303E+02  0.13303673009E+02 -0.90113310962E+02  0.13155616597E+03  0.90424700351E+02 0.  0.
         23    2    1    2    0    0 -0.24488515511E+02  0.63798708227E+01  0.10537987045E+03  0.14181163185E+03  0.91461640539E+02 0.  0.
        -11    1    3    3    0    0 -0.17729656936E+02 -0.23051551467E+02 -0.75912364348E+01  0.30055642244E+02  0.00000000000E+00 0.  1.
         11    1    3    3    0    0  0.46591428239E+02  0.36355224476E+02 -0.82522074527E+02  0.10150052372E+03  0.00000000000E+00 0. -1.
        -13    1    4    4    0    0 -0.44601870434E+02  0.33042018599E+02  0.40075921572E+02  0.68462992406E+02  0.00000000000E+00 0.  1.
         13    1    4    4    0    0  0.20113354923E+02 -0.26662147776E+02  0.65303948874E+02  0.73348639448E+02  0.00000000000E+00 0. -1.
         21    1    1    2  502  501 -0.43732557914E+01 -0.19683543831E+02 -0.59834805252E+02  0.63140883613E+02  0.00000000000E+00 0.  1.
<scales pt_clust_5="13000.00000" pt_clust_6="13000.00000" pt_clust_7="13000.00000" pt_clust_8="13000.00000" pt_clust_9="20.16351"></scales>
<clustering>
<clus scale="   20.164">  2  9  1 -1</clus>
<clus scale="   90.425">  5  6 -1 -1</clus>
<clus scale="   91.462">  7  8 -1 -1</clus>
<clus scale="   93.914">  2  5  1 -1</clus>
<clus scale="   94.913">  1  5  2 -1</clus>
</clustering>
</event>
<event>
 9    1  0.3518971E-005  0.2594100E+03  0.7546771E-02  0.1107508E+00
          2   -1    0    0  502    0  0.00000000000E+00  0.00000000000E+00  0.80878383235E+03  0.80878383235E+03  0.00000000000E+00 0. -1.
         -2   -1    0    0    0  501 -0.00000000000E+00 -0.00000000000E+00 -0.16762556006E+03  0.16762556006E+03  0.00000000000E+00 0.  1.
         23    2    1    2    0    0 -0.19617021110E+03 -0.11665654450E+03 -0.14831095933E+02  0.24631620590E+03  0.91434188287E+02 0.  0.
         23    2    1    2    0    0  0.21870516257E+03  0.11165311487E+03  0.65662552740E+03  0.70700069758E+03  0.91621705690E+02 0.  0.
        -11    1    3    3    0    0 -0.15512903472E+03 -0.71108308042E+02 -0.47101959102E+02  0.17703108042E+03  0.00000000000E+00 0.  1.
         11    1    3    3    0    0 -0.41041176382E+02 -0.45548236460E+02  0.32270863169E+02  0.69285125482E+02  0.00000000000E+00 0. -1.
        -13    1    4    4    0    0  0.15310962168E+03  0.78933232138E+02  0.55886511035E+03  0.58481041624E+03  0.00000000000E+00 0. -1.
         13    1    4    4    0    0  0.65595540893E+02  0.32719882729E+02  0.97760417057E+02  0.12219028134E+03  0.00000000000E+00 0.  1.
         21    1    1    2  502  501 -0.22534951473E+02  0.50034296344E+01 -0.63615917912E+00  0.23092488919E+02  0.00000000000E+00 0. -1.
<scales pt_clust_5="13000.00000" pt_clust_6="13000.00000" pt_clust_7="13000.00000" pt_clust_8="13000.00000" pt_clust_9="23.08372"></scales>
<clustering>
<clus scale="   23.084">  2  9  1 -1</clus>
<clus scale="   91.434">  5  6 -1 -1</clus>
<clus scale="   91.622">  7  8 -1 -1</clus>
<clus scale="  259.344">  2  5  1 -1</clus>
<clus scale="  259.410">  1  5  2 -1</clus>
</clustering>
</event>
<event>
 9    1  0.1484717E-005  0.9530382E+02  0.7546771E-02  0.1292798E+00
         -1   -1    0    0    0  501 -0.00000000000E+00  0.00000000000E+00  0.13510344336E+03  0.13510344336E+03  0.00000000000E+00 0.  1.
          1   -1    0    0  502    0  0.00000000000E+00 -0.00000000000E+00 -0.17329364049E+03  0.17329364049E+03  0.00000000000E+00 0. -1.
         23    2    1    2    0    0 -0.20608893614E+02  0.19328242349E+02  0.56778110185E+02  0.10972812715E+03  0.89544405986E+02 0.  0.
         23    2    1    2    0    0 -0.13371091905E+02 -0.15319610774E+02 -0.12195352756E+03  0.15509246470E+03  0.93635106392E+02 0.  0.
        -11    1    4    4    0    0  0.11935862739E+02 -0.50431007370E+02 -0.56972960424E+02  0.77017332745E+02  0.00000000000E+00 0.  1.
         11    1    4    4    0    0 -0.25306954645E+02  0.35111396596E+02 -0.64980567135E+02  0.78075131953E+02  0.00000000000E+00 0. -1.
        -13    1    3    3    0    0  0.51330167722E+01  0.19422092440E+02 -0.20242941334E+02  0.28519155138E+02  0.00000000000E+00 0. -1.
         13    1    3    3    0    0 -0.25741910386E+02 -0.93850090367E-01  0.77021051520E+02  0.81208972013E+02  0.00000000000E+00 0.  1.
         21    1    1    2  502  501  0.33979985520E+02 -0.40086315748E+01  0.26985220248E+02  0.43576491998E+02  0.00000000000E+00 0.  1.
<scales pt_clust_5="13000.00000" pt_clust_6="13000.00000" pt_clust_7="13000.00000" pt_clust_8="13000.00000" pt_clust_9="34.21562"></scales>
<clustering>
<clus scale="   34.216">  1  9  2 -1</clus>
<clus scale="   89.544">  7  8 -1 -1</clus>
<clus scale="   91.288">  1  7  2 -1</clus>
<clus scale="   93.635">  5  6 -1 -1</clus>
<clus scale="   95.304">  2  5  1 -1</clus>
</clustering>
</event>
<event>
 9    1  0.1484717E-005  0.9811754E+02  0.7546771E-02  0.1284350E+00
         -2   -1    0    0    0  501 -0.00000000000E+00  0.00000000000E+00  0.18304326153E+02  0.18304326153E+02  0.00000000000E+00 0.  1.
          2   -1    0    0  502    0  0.00000000000E+00 -0.00000000000E+00 -0.73299609937E+03  0.73299609937E+03  0.00000000000E+00 0. -1.
         23    2    1    2    0    0  0.28824651340E+02  0.67744920660E+01 -0.23216990325E+03  0.25130397038E+03  0.91509929992E+02 0.  0.
         23    2    1    2    0    0 -0.23508607102E+02 -0.35605240079E+02 -0.39372286231E+03  0.40648316134E+03  0.91599565587E+02 0.  0.
        -11    1    4    4    0    0 -0.19337860191E+02 -0.65396992880E+02 -0.31285184996E+03  0.32019837529E+03  0.00000000000E+00 0. -1.
         11    1    4    4    0    0 -0.41707469114E+01  0.29791752801E+02 -0.80871012348E+02  0.86284786046E+02  0.00000000000E+00 0.  1.
        -13    1    3    3    0    0 -0.21072227162E+02 -0.23024043944E+02 -0.41205846599E+02  0.51692041467E+02  0.00000000000E+00 0. -1.
         13    1    3    3    0    0  0.49896878502E+02  0.29798536010E+02 -0.19096405665E+03  0.19961192891E+03  0.00000000000E+00 0.  1.
         21    1    1    2  502  501 -0.53160442380E+01  0.28830748013E+02 -0.88799007654E+02  0.93513293802E+02  0.00000000000E+00 0.  1.
<scales pt_clust_5="13000.00000" pt_clust_6="13000.00000" pt_clust_7="13000.00000" pt_clust_8="13000.00000" pt_clust_9="29.31676"></scales>
<clustering>
<clus scale="   29.317">  1  9  2 -1</clus>
<clus scale="   91.510">  7  8 -1 -1</clus>
<clus scale="   91.600">  5  6 -1 -1</clus>
<clus scale="   98.034">  1  7  2 -1</clus>
<clus scale="   98.118">  2  5  1 -1</clus>
</clustering>
</event>
<event>
 9    1  0.1484717E-005  0.9638686E+02  0.7546771E-02  0.1288102E+00
         -1   -1    0    0    0  501 -0.00000000000E+00  0.00000000000E+00  0.57764603536E+02  0.57764603536E+02  0.00000000000E+00 0.  1.
          1   -1    0    0  502    0  0.00000000000E+00 -0.00000000000E+00 -0.39534426116E+03  0.39534426116E+03  0.00000000000E+00 0. -1.
         23    2    1    2    0    0 -0.94591967554E+01  0.13859437283E+02 -0.50622528530E+02  0.10521392188E+03  0.90696022830E+02 0.  0.
         23    2    1    2    0    0 -0.46647522197E+02 -0.10508926205E+01 -0.26889469676E+03  0.28757683451E+03  0.90658601907E+02 0.  0.
        -11    1    3    3    0    0 -0.26184977119E+01  0.44650398953E+02 -0.57583277860E+02  0.72913294714E+02  0.00000000000E+00 0.  1.
         11    1    3    3    0    0 -0.68406990435E+01 -0.30790961670E+02  0.69607493297E+01  0.32300627164E+02  0.00000000000E+00 0. -1.
        -13    1    4    4    0    0 -0.57556513822E+02  0.23785870456E+02 -0.23997995779E+03  0.24792922389E+03  0.00000000000E+00 0. -1.
         13    1    4    4    0    0  0.10908991625E+02 -0.24836763077E+02 -0.28914738965E+02  0.39647610619E+02  0.00000000000E+00 0.  1.
         21    1    1    2  502  501  0.56106718953E+02 -0.12808544663E+02 -0.18062432336E+02  0.60318108308E+02  0.00000000000E+00 0.  1.
<scales pt_clust_5="13000.00000" pt_clust_6="13000.00000" pt_clust_7="13000.00000" pt_clust_8="13000.00000" pt_clust_9="57.55018"></scales>
<clustering>
<clus scale="   57.550">  1  9  2 -1</clus>
<clus scale="   90.659">  7  8 -1 -1</clus>
<clus scale="   90.696">  5  6 -1 -1</clus>
<clus scale="   96.352">  2  7  1 -1</clus>
<clus scale="   96.352">  2  5  1 -1</clus>
</clustering>
</event>
<event>
 9    1  0.1484717E-005  0.1006393E+03  0.7546771E-02  0.1281189E+00
          2   -1    0    0  502    0  0.00000000000E+00  0.00000000000E+00  0.25036977622E+03  0.25036977622E+03  0.00000000000E+00 0. -1.
         -2   -1    0    0    0  501 -0.00000000000E+00 -0.00000000000E+00 -0.13788716154E+03  0.13788716154E+03  0.00000000000E+00 0.  1.
         23    2    1    2    0    0 -0.50140491081E+01 -0.25934043649E+02  0.37636333893E+02  0.10235869771E+03  0.91449953854E+02 0.  0.
         23    2    1    2    0    0  0.25290062263E+02  0.23208043225E+02  0.16476362842E+03  0.19368285526E+03  0.95852984568E+02 0.  0.
        -11    1    4    4    0    0  0.23515369521E+02  0.56687576629E+02  0.13712646966E+03  0.15023356026E+03  0.00000000000E+00 0. -1.
         11    1    4    4    0    0  0.17746927418E+01 -0.33479533403E+02  0.27637158763E+02  0.43449294997E+02  0.00000000000E+00 0.  1.
        -13    1    3    3    0    0 -0.29023593111E+02 -0.49896400437E+02  0.99541336075E+01  0.58575630680E+02  0.00000000000E+00 0.  1.
         13    1    3    3    0    0  0.24009544003E+02  0.23962356788E+02  0.27682200285E+02  0.43783067032E+02  0.00000000000E+00 0. -1.
         21    1    1    2  502  501 -0.20276013155E+02  0.27260004233E+01 -0.89917347626E+02  0.92215384790E+02  0.00000000000E+00 0. -1.
<scales pt_clust_5="13000.00000" pt_clust_6="13000.00000" pt_clust_7="13000.00000" pt_clust_8="13000.00000" pt_clust_9="20.45844"></scales>
<clustering>
<clus scale="   20.458">  2  9  1 -1</clus>
<clus scale="   91.450">  7  8 -1 -1</clus>
<clus scale="   95.853">  5  6 -1 -1</clus>
<clus scale="   96.455">  2  7  1 -1</clus>
<clus scale="  100.639">  1  5  2 -1</clus>
</clustering>
</event>
<event>
 9    1  0.1484717E-005  0.1379287E+03  0.7546771E-02  0.1235531E+00
          1   -1    0    0  502    0  0.00000000000E+00  0.00000000000E+00  0.41472908148E+03  0.41472908148E+03  0.00000000000E+00 0. -1.
         -1   -1    0    0    0  501 -0.00000000000E+00 -0.00000000000E+00 -0.11876827568E+03  0.11876827568E+03  0.00000000000E+00 0.  1.
         23    2    1    2    0    0  0.80113508880E+02 -0.80600567876E+02  0.19481115919E+02  0.14396614082E+03  0.86209686097E+02 0.  0.
         23    2    1    2    0    0 -0.10003618402E+02  0.42156316273E+01  0.27039381996E+03  0.28567028509E+03  0.91525133066E+02 0.  0.
        -11    1    4    4    0    0  0.34750210834E+02 -0.19837602559E+02  0.14373702318E+03  0.14920267914E+03  0.00000000000E+00 0.  1.
         11    1    4    4    0    0 -0.44753829236E+02  0.24053234186E+02  0.12665679678E+03  0.13646760596E+03  0.00000000000E+00 0. -1.
        -11    1    3    3    0    0  0.24795042039E+02  0.16513212268E+02 -0.30740721731E+01  0.29948793112E+02  0.00000000000E+00 0. -1.
         11    1    3    3    0    0  0.55318466842E+02 -0.97113780144E+02  0.22555188092E+02  0.11401734770E+03  0.00000000000E+00 0.  1.
         21    1    1    2  502  501 -0.70109890478E+02  0.76384936249E+02  0.60858699255E+01  0.10386093126E+03  0.00000000000E+00 0. -1.
<scales pt_clust_5="13000.00000" pt_clust_6="13000.00000" pt_clust_7="13000.00000" pt_clust_8="13000.00000" pt_clust_9="107.66715"></scales>
<clustering>
<clus scale="   86.210">  7  8 -1 -1</clus>
<clus scale="   91.525">  5  6 -1 -1</clus>
<clus scale="   92.167">  1  5  2 -1</clus>
<clus scale="  107.667">  2  9  1 -1</clus>
<clus scale="   92.167">  1  5  2 -1</clus>
</clustering>
</event>
<event>
 9    1  0.1484717E-005  0.1155980E+03  0.7546771E-02  0.1250674E+00
         -1   -1    0    0    0  501 -0.00000000000E+00  0.00000000000E+00  0.36396398331E+02  0.36396398331E+02  0.00000000000E+00 0.  1.
          1   -1    0    0  502    0  0.00000000000E+00 -0.00000000000E+00 -0.11026520467E+04  0.11026520467E+04  0.00000000000E+00 0. -1.
         23    2    1    2    0    0  0.39806056456E+02 -0.22122096269E+01 -0.16761203424E+03  0.19478374207E+03  0.90870766201E+02 0.  0.
         23    2    1    2    0    0 -0.12032820866E+03  0.36057607503E+02 -0.28406523101E+03  0.32351039009E+03  0.90481424448E+02 0.  0.
        -11    1    3    3    0    0  0.62588495726E+02 -0.67028657951E+01 -0.15720229530E+03  0.16933638078E+03  0.00000000000E+00 0. -1.
         11    1    3    3    0    0 -0.22782439271E+02  0.44906561682E+01 -0.10409738944E+02  0.25447361294E+02  0.00000000000E+00 0.  1.
        -13    1    4    4    0    0 -0.96790770148E+02  0.11005098819E+02 -0.11375496416E+03  0.14976567449E+03  0.00000000000E+00 0.  1.
         13    1    4    4    0    0 -0.23537438512E+02  0.25052508684E+02 -0.17031026685E+03  0.17374471560E+03  0.00000000000E+00 0. -1.
         21    1    1    2  502  501  0.80522152204E+02 -0.33845397876E+02 -0.61457838308E+03  0.62075431284E+03  0.00000000000E+00 0. -1.
<scales pt_clust_5="13000.00000" pt_clust_6="13000.00000" pt_clust_7="13000.00000" pt_clust_8="13000.00000" pt_clust_9="87.34602"></scales>
<clustering>
<clus scale="   87.346">  2  9  1 -1</clus>
<clus scale="   90.481">  7  8 -1 -1</clus>
<clus scale="   90.871">  5  6 -1 -1</clus>
<clus scale="  115.292">  2  7  1 -1</clus>
<clus scale="   87.346">  2  5  1 -1</clus>
</clustering>
</event>
<event>
 9    1  0.1484717E-005  0.9698465E+02  0.7546771E-02  0.1287782E+00
         -2   -1    0    0    0  501 -0.00000000000E+00  0.00000000000E+00  0.20991960888E+03  0.20991960888E+03  0.00000000000E+00 0.  1.
          2   -1    0    0  502    0  0.00000000000E+00 -0.00000000000E+00 -0.20480347356E+03  0.20480347356E+03  0.00000000000E+00 0. -1.
         23    2    1    2    0    0 -0.19814749143E+02  0.33473032922E+02 -0.53574193913E+02  0.11179364170E+03  0.90080829563E+02 0.  0.
         23    2    1    2    0    0  0.30653791629E+02 -0.38273950603E+01 -0.10104145398E+03  0.14010870725E+03  0.92015055995E+02 0.  0.
        -11    1    4    4    0    0  0.56646295478E+02 -0.26528009902E+02 -0.65557393346E+02  0.90610760526E+02  0.00000000000E+00 0.  1.
         11    1    4    4    0    0 -0.25992503849E+02  0.22700614842E+02 -0.35484060633E+02  0.49497946720E+02  0.00000000000E+00 0. -1.
        -13    1    3    3    0    0  0.12516222280E+02  0.22172274794E+02  0.18850081776E+02  0.31679507140E+02  0.00000000000E+00 0.  1.
         13    1    3    3    0    0 -0.32330971423E+02  0.11300758128E+02 -0.72424275689E+02  0.80114134561E+02  0.00000000000E+00 0. -1.
         21    1    1    2  502  501 -0.10839042486E+02 -0.29645637862E+02  0.15973178322E+03  0.16282073350E+03  0.00000000000E+00 0.  1.
<scales pt_clust_5="13000.00000" pt_clust_6="13000.00000" pt_clust_7="13000.00000" pt_clust_8="13000.00000" pt_clust_9="31.56499"></scales>
<clustering>
<clus scale="   31.565">  1  9  2 -1</clus>
<clus scale="   90.081">  7  8 -1 -1</clus>
<clus scale="   92.015">  5  6 -1 -1</clus>
<clus scale="   95.152">  1  7  2 -1</clus>
<clus scale="   96.985">  2  5  1 -1</clus>
</clustering>
</event>
<event>
 9    1  0.1484717E-005  0.9614129E+02  0.7546771E-02  0.1290650E+00
          1   -1    0    0  502    0  0.00000000000E+00  0.00000000000E+00  0.33604542104E+02  0.33604542104E+02  0.00000000000E+00 0. -1.
         -1   -1    0    0    0  501 -0.00000000000E+00 -0.00000000000E+00 -0.50962070897E+03  0.50962070897E+03  0.00000000000E+00 0.  1.
         23    2    1    2    0    0 -0.31672208663E+02  0.11223608513E+02 -0.14783526540E+03  0.17691589317E+03  0.91185905550E+02 0.  0.
         23    2    1    2    0    0  0.25344088277E+02  0.30440759617E+02 -0.11873333004E+03  0.15266420851E+03  0.87405916522E+02 0.  0.
        -11    1    4    4    0    0  0.15517733315E+02 -0.27494314237E+02 -0.68233712952E+02  0.75183621526E+02  0.00000000000E+00 0.  1.
         11    1    4    4    0    0  0.98263549617E+01  0.57935073854E+02 -0.50499617084E+02  0.77480586988E+02  0.00000000000E+00 0. -1.
        -13    1    3    3    0    0 -0.95379269200E+01 -0.33149452321E+02 -0.20170050978E+02  0.39958593513E+02  0.00000000000E+00 0.  1.
         13    1    3    3    0    0 -0.22134281743E+02  0.44373060834E+02 -0.12766521442E+03  0.13695729966E+03  0.00000000000E+00 0. -1.
         21    1    1    2  502  501  0.63281203863E+01 -0.41664368131E+02 -0.20944757143E+03  0.21364514939E+03  0.00000000000E+00 0. -1.
<scales pt_clust_5="13000.00000" pt_clust_6="13000.00000" pt_clust_7="13000.00000" pt_clust_8="13000.00000" pt_clust_9="42.14220"></scales>
<clustering>
<clus scale="   42.142">  2  9  1 -1</clus>
<clus scale="   87.406">  5  6 -1 -1</clus>
<clus scale="   91.186">  7  8 -1 -1</clus>
<clus scale="   92.564">  1  5  2 -1</clus>
<clus scale="   92.564">  1  5  2 -1</clus>
</clustering>
</event>
<event>
 9    1  0.1484717E-005  0.9737070E+02  0.7546771E-02  0.1286654E+00
         -2   -1    0    0    0  501 -0.00000000000E+00  0.00000000000E+00  0.26079215172E+02  0.26079215172E+02  0.00000000000E+00 0.  1.
          2   -1    0    0  502    0  0.00000000000E+00 -0.00000000000E+00 -0.94098478255E+03  0.94098478255E+03  0.00000000000E+00 0. -1.
         23    2    1    2    0    0  0.16121776432E+02  0.18099266763E+02 -0.10018061037E+03  0.13759474392E+03  0.91151871772E+02 0.  0.
         23    2    1    2    0    0 -0.23514576949E+02 -0.59979373270E+02 -0.61737454863E+03  0.62758864426E+03  0.92551134873E+02 0.  0.
        -13    1    3    3    0    0 -0.25119747290E+02 -0.17820481174E+02 -0.10474084308E+02  0.32531180355E+02  0.00000000000E+00 0.  1.
         13    1    3    3    0    0  0.41241523722E+02  0.35919747937E+02 -0.89706526066E+02  0.10506356357E+03  0.00000000000E+00 0. -1.
        -13    1    4    4    0    0 -0.13353524370E+02  0.24107203130E+02 -0.12729938989E+03  0.13024825727E+03  0.00000000000E+00 0. -1.
         13    1    4    4    0    0 -0.10161052579E+02 -0.84086576400E+02 -0.49007515874E+03  0.49734038699E+03  0.00000000000E+00 0.  1.
         21    1    1    2  502  501  0.73928005174E+01  0.41880106507E+02 -0.19735040838E+03  0.20188060954E+03  0.00000000000E+00 0. -1.
<scales pt_clust_5="13000.00000" pt_clust_6="13000.00000" pt_clust_7="13000.00000" pt_clust_8="13000.00000" pt_clust_9="42.52760"></scales>
<clustering>
<clus scale="   42.528">  2  9  1 -1</clus>
<clus scale="   91.152">  5  6 -1 -1</clus>
<clus scale="   92.551">  7  8 -1 -1</clus>
<clus scale="   96.042">  1  5  2 -1</clus>
<clus scale="   42.528">  2  5  1 -1</clus>
</clustering>
</event>
<event>
 9    1  0.1484717E-005  0.1379985E+03  0.7546771E-02  0.1235463E+00
         -2   -1    0    0    0  501 -0.00000000000E+00  0.00000000000E+00  0.61276279530E+02  0.61276279530E+02  0.00000000000E+00 0.  1.
          2   -1    0    0  502    0  0.00000000000E+00 -0.00000000000E+00 -0.62217440246E+03  0.62217440246E+03  0.00000000000E+00 0. -1.
         23    2    1    2    0    0 -0.92288563429E+02  0.32423992865E+02 -0.28303639235E+03  0.31303159751E+03  0.91162971596E+02 0.  0.
         23    2    1    2    0    0 -0.80590864723E+01 -0.14203874933E+01 -0.24278825861E+03  0.25968958153E+03  0.91790924734E+02 0.  0.
        -13    1    4    4    0    0 -0.32692851334E+02 -0.30538997093E+02 -0.72579388501E+02  0.85259723827E+02  0.00000000000E+00 0.  1.
         13    1    4    4    0    0  0.24633764862E+02  0.29118609600E+02 -0.17020887011E+03  0.17442985771E+03  0.00000000000E+00 0. -1.
        -13    1    3    3    0    0 -0.31871151161E+02  0.24862850162E+01 -0.12675445438E+02  0.34389225152E+02  0.00000000000E+00 0.  1.
         13    1    3    3    0    0 -0.60417412268E+02  0.29937707849E+02 -0.27036094691E+03  0.27864237236E+03  0.00000000000E+00 0. -1.
         21    1    1    2  502  501  0.10034764990E+03 -0.31003605372E+02 -0.35073471968E+02  0.11072950295E+03  0.00000000000E+00 0.  1.
<scales pt_clust_5="13000.00000" pt_clust_6="13000.00000" pt_clust_7="13000.00000" pt_clust_8="13000.00000" pt_clust_9="103.59967"></scales>
<clustering>
<clus scale="   91.163">  7  8 -1 -1</clus>
<clus scale="   91.791">  5  6 -1 -1</clus>
<clus scale="   92.155">  2  5  1 -1</clus>
<clus scale="  103.600">  1  9  2 -1</clus>
<clus scale="   92.155">  2  5  1 -1</clus>
</clustering>
</event>
<event>
 9    1  0.1484717E-005  0.9700061E+02  0.7546771E-02  0.1290470E+00
          2   -1    0    0  502    0  0.00000000000E+00  0.00000000000E+00  0.56799204115E+03  0.56799204115E+03  0.00000000000E+00 0. -1.
         -2   -1    0    0    0  501 -0.00000000000E+00 -0.00000000000E+00 -0.50098603326E+02  0.50098603326E+02  0.00000000000E+00 0.  1.
         23    2    1    2    0    0 -0.53195269169E+02  0.66479220330E+02  0.12646888547E+03  0.17797651613E+03  0.91826128649E+02 0.  0.
         23    2    1    2    0    0  0.11137783372E+02 -0.16914249367E+02  0.35508075453E+03  0.36564003824E+03  0.84853716895E+02 0.  0.
        -13    1    3    3    0    0 -0.34364203484E+02  0.84928150335E+02  0.68819231297E+02  0.11458523376E+03  0.00000000000E+00 0.  1.
         13    1    3    3    0    0 -0.18831065684E+02 -0.18448930006E+02  0.57649654173E+02  0.63391282362E+02  0.00000000000E+00 0. -1.
        -13    1    4    4    0    0 -0.26251221372E+02 -0.33644967621E+02  0.23285593852E+03  0.23673402496E+03  0.00000000000E+00 0.  1.
         13    1    4    4    0    0  0.37389004744E+02  0.16730718254E+02  0.12222481601E+03  0.12890601327E+03  0.00000000000E+00 0. -1.
         21    1    1    2  502  501  0.42057485797E+02 -0.49564970962E+02  0.36343797815E+02  0.74474090110E+02  0.00000000000E+00 0. -1.
<scales pt_clust_5="13000.00000" pt_clust_6="13000.00000" pt_clust_7="13000.00000" pt_clust_8="13000.00000" pt_clust_9="65.00399"></scales>
<clustering>
<clus scale="   65.004">  2  9  1 -1</clus>
<clus scale="   84.854">  7  8 -1 -1</clus>
<clus scale="   90.428">  1  7  2 -1</clus>
<clus scale="   91.826">  5  6 -1 -1</clus>
<clus scale="   90.428">  1  5  2 -1</clus>
</clustering>
</event>
<event>
 9    1  0.1484717E-005  0.9089956E+02  0.7546771E-02  0.1302112E+00
          4   -1    0    0  502    0  0.00000000000E+00  0.00000000000E+00  0.25410369485E+02  0.25410369485E+02  0.00000000000E+00 0. -1.
         -4   -1    0    0    0  501 -0.00000000000E+00 -0.00000000000E+00 -0.63493415375E+03  0.63493415375E+03  0.00000000000E+00 0.  1.
         23    2    1    2    0    0  0.93019247222E+01 -0.20650198803E+02 -0.29966381475E+03  0.31328270608E+03  0.88513815561E+02 0.  0.
         23    2    1    2    0    0  0.26805148564E+00 -0.69491917561E+01 -0.10046632808E+03  0.13564041833E+03  0.90865157738E+02 0.  0.
        -13    1    4    4    0    0 -0.42408845486E+02 -0.38950299713E+01 -0.73854534773E+02  0.85253584912E+02  0.00000000000E+00 0.  1.
         13    1    4    4    0    0  0.42676896972E+02 -0.30541617849E+01 -0.26611793304E+02  0.50386833421E+02  0.00000000000E+00 0. -1.
        -13    1    3    3    0    0  0.35316481644E+02 -0.43643479402E+02 -0.16881132844E+03  0.17790242207E+03  0.00000000000E+00 0. -1.
         13    1    3    3    0    0 -0.26014556922E+02  0.22993280599E+02 -0.13085248631E+03  0.13538028401E+03  0.00000000000E+00 0.  1.
         21    1    1    2  502  501 -0.95699762079E+01  0.27599390559E+02 -0.20939364144E+03  0.21142139882E+03  0.00000000000E+00 0. -1.
<scales pt_clust_5="13000.00000" pt_clust_6="13000.00000" pt_clust_7="13000.00000" pt_clust_8="13000.00000" pt_clust_9="29.21148"></scales>
<clustering>
<clus scale="   29.211">  2  9  1 -1</clus>
<clus scale="   88.514">  7  8 -1 -1</clus>
<clus scale="   88.549">  2  7  1 -1</clus>
<clus scale="   90.865">  5  6 -1 -1</clus>
<clus scale="   90.900">  1  5  2 -1</clus>
</clustering>
</event>
<event>
 9    1  0.1484717E-005  0.1061585E+03  0.7546771E-02  0.1267925E+00
          1   -1    0    0  502    0  0.00000000000E+00  0.00000000000E+00  0.31216143299E+03  0.31216143299E+03  0.00000000000E+00 0. -1.
         -1   -1    0    0    0  501 -0.00000000000E+00 -0.00000000000E+00 -0.62796772058E+02  0.62796772058E+02  0.00000000000E+00 0.  1.
         23    2    1    2    0    0 -0.34386371068E+02  0.22691318438E+02  0.71313756730E+02  0.12337379539E+03  0.91859256710E+02 0.  0.
         23    2    1    2    0    0  0.35920061105E+02 -0.49379346336E+02  0.19205528340E+03  0.22140617784E+03  0.91689110983E+02 0.  0.
        -13    1    4    4    0    0  0.54449575156E+02 -0.17875266461E+01  0.13054939215E+03  0.14146057853E+03  0.00000000000E+00 0.  1.
         13    1    4    4    0    0 -0.18529514052E+02 -0.47591819690E+02  0.61505891246E+02  0.79945599318E+02  0.00000000000E+00 0. -1.
        -13    1    3    3    0    0 -0.51494698498E+02 -0.15969960612E+02  0.57676122754E+02  0.78951116213E+02  0.00000000000E+00 0. -1.
         13    1    3    3    0    0  0.17108327429E+02  0.38661279049E+02  0.13637633975E+02  0.44422679181E+02  0.00000000000E+00 0.  1.
         21    1    1    2  502  501 -0.15336900365E+01  0.26688027898E+02 -0.14004379198E+02  0.30178231806E+02  0.00000000000E+00 0.  1.
<scales pt_clust_5="13000.00000" pt_clust_6="13000.00000" pt_clust_7="13000.00000" pt_clust_8="13000.00000" pt_clust_9="26.73206"></scales>
<clustering>
<clus scale="   26.732">  2  9  1 -1</clus>
<clus scale="   91.689">  5  6 -1 -1</clus>
<clus scale="   91.859">  7  8 -1 -1</clus>
<clus scale="  106.011">  1  5  2 -1</clus>
<clus scale="  106.011">  1  5  2 -1</clus>
</clustering>
</event>
<event>
 9    1  0.1484717E-005  0.9420816E+02  0.7546771E-02  0.1295021E+00
          1   -1    0    0  502    0  0.00000000000E+00  0.00000000000E+00  0.59113463488E+02  0.59113463488E+02  0.00000000000E+00 0. -1.
         -1   -1    0    0    0  501 -0.00000000000E+00 -0.00000000000E+00 -0.21300160801E+03  0.21300160801E+03  0.00000000000E+00 0.  1.
         23    2    1    2    0    0 -0.22654717113E+02 -0.96299824669E+01 -0.76755741038E+02  0.12361038341E+03  0.93712914453E+02 0.  0.
         23    2    1    2    0    0 -0.12390214292E+02  0.62155855552E+01 -0.61243751640E+02  0.10987497697E+03  0.90164086729E+02 0.  0.
        -11    1    4    4    0    0 -0.22267856106E+02  0.24566116884E+02 -0.76943246043E+02  0.83783140464E+02  0.00000000000E+00 0.  1.
         11    1    4    4    0    0  0.98776418144E+01 -0.18350531329E+02  0.15699494403E+02  0.26091836508E+02  0.00000000000E+00 0. -1.
        -13    1    3    3    0    0 -0.53202146126E+02  0.13504028810E+02 -0.28059500064E+02  0.61645459609E+02  0.00000000000E+00 0.  1.
         13    1    3    3    0    0  0.30547429013E+02 -0.23134011277E+02 -0.48696240974E+02  0.61964923804E+02  0.00000000000E+00 0. -1.
         21    1    1    2  502  501  0.35044931405E+02  0.34143969117E+01 -0.15888651848E+02  0.38629711117E+02  0.00000000000E+00 0. -1.
<scales pt_clust_5="13000.00000" pt_clust_6="13000.00000" pt_clust_7="13000.00000" pt_clust_8="13000.00000" pt_clust_9="35.21087"></scales>
<clustering>
<clus scale="   35.211">  1  9  2 -1</clus>
<clus scale="   90.164">  5  6 -1 -1</clus>
<clus scale="   90.679">  1  5  2 -1</clus>
<clus scale="   93.713">  7  8 -1 -1</clus>
<clus scale="   35.211">  1  5  2 -1</clus>
</clustering>
</event>
<event>
 9    1  0.1484717E-005  0.1648123E+03  0.7546771E-02  0.1212134E+00
          1   -1    0    0  502    0  0.00000000000E+00  0.00000000000E+00  0.33428743525E+03  0.33428743525E+03  0.00000000000E+00 0. -1.
         -1   -1    0    0    0  501 -0.00000000000E+00 -0.00000000000E+00 -0.11233561459E+03  0.11233561459E+03  0.00000000000E+00 0.  1.
         23    2    1    2    0    0 -0.30039522589E+02  0.84105595163E+01  0.25988849136E+02  0.91775187717E+02  0.82305251183E+02 0.  0.
         23    2    1    2    0    0  0.14241441056E+03  0.46962505583E+01  0.97317998364E+02  0.20474544827E+03  0.11020883213E+03 0.  0.
        -11    1    3    3    0    0 -0.20434671326E+02 -0.26847805341E+02 -0.14945927464E+02  0.36902048610E+02  0.00000000000E+00 0. -1.
         11    1    3    3    0    0 -0.96048512625E+01  0.35258364857E+02  0.40934776600E+02  0.54873139107E+02  0.00000000000E+00 0.  1.
        -13    1    4    4    0    0  0.14565204859E+03 -0.27017571753E+02  0.82933440441E+02  0.16977168193E+03  0.00000000000E+00 0.  1.
         13    1    4    4    0    0 -0.32376380322E+01  0.31713822311E+02  0.14384557924E+02  0.34973766344E+02  0.00000000000E+00 0. -1.
         21    1    1    2  502  501 -0.11237488797E+03 -0.13106810075E+02  0.98644973155E+02  0.15010241385E+03  0.00000000000E+00 0. -1.
<scales pt_clust_5="13000.00000" pt_clust_6="13000.00000" pt_clust_7="13000.00000" pt_clust_8="13000.00000" pt_clust_9="122.54433"></scales>
<clustering>
<clus scale="   82.305">  5  6 -1 -1</clus>
<clus scale="   88.019">  2  5  1 -1</clus>
<clus scale="  110.209">  7  8 -1 -1</clus>
<clus scale="  122.544">  1  9  2 -1</clus>
<clus scale="  122.544">  1  5  2 -1</clus>
</clustering>
</event>
<event>
 9    1  0.1484717E-005  0.1076805E+03  0.7546771E-02  0.1265959E+00
         -3   -1    0    0    0  501 -0.00000000000E+00  0.00000000000E+00  0.79649108010E+02  0.79649108010E+02  0.00000000000E+00 0.  1.
          3   -1    0    0  502    0  0.00000000000E+00 -0.00000000000E+00 -0.23368984876E+03  0.23368984876E+03  0.00000000000E+00 0. -1.
         23    2    1    2    0    0  0.10699976722E+02  0.54235186038E+02 -0.39093813552E+01  0.10583436633E+03  0.90164765439E+02 0.  0.
         23    2    1    2    0    0  0.11855363884E+02 -0.54599918084E+02 -0.14998770864E+03  0.18494584369E+03  0.92665806262E+02 0.  0.
        -11    1    4    4    0    0 -0.32828221800E+02 -0.23837048999E+00 -0.76261368120E+02  0.83027376416E+02  0.00000000000E+00 0. -1.
         11    1    4    4    0    0  0.44683585684E+02 -0.54361547594E+02 -0.73726340516E+02  0.10191846728E+03  0.00000000000E+00 0.  1.
        -11    1    3    3    0    0 -0.11617266250E+02  0.63393624213E+02 -0.29312575585E+02  0.70802115459E+02  0.00000000000E+00 0.  1.
         11    1    3    3    0    0  0.22317242972E+02 -0.91584381758E+01  0.25403194230E+02  0.35032250867E+02  0.00000000000E+00 0. -1.
         21    1    1    2  502  501 -0.22555340606E+02  0.36473204621E+00 -0.14365075700E+00  0.22558746749E+02  0.00000000000E+00 0. -1.
<scales pt_clust_5="13000.00000" pt_clust_6="13000.00000" pt_clust_7="13000.00000" pt_clust_8="13000.00000" pt_clust_9="22.55829"></scales>
<clustering>
<clus scale="   22.558">  1  9  2 -1</clus>
<clus scale="   90.165">  7  8 -1 -1</clus>
<clus scale="   92.666">  5  6 -1 -1</clus>
<clus scale="  105.536">  1  7  2 -1</clus>
<clus scale="  107.680">  2  5  1 -1</clus>
</clustering>
</event>
<event>
 9    1  0.1484717E-005  0.1654974E+03  0.7546771E-02  0.1182898E+00
          3   -1    0    0  502    0  0.00000000000E+00  0.00000000000E+00  0.84308407851E+03  0.84308407851E+03  0.00000000000E+00 0. -1.
         -3   -1    0    0    0  501 -0.00000000000E+00 -0.00000000000E+00 -0.37895801553E+02  0.37895801553E+02  0.00000000000E+00 0.  1.
         23    2    1    2    0    0  0.21925353650E+02  0.12600477658E+03  0.27171669707E+03  0.31375557713E+03  0.90855235713E+02 0.  0.
         23    2    1    2    0    0 -0.36408687010E+02 -0.14100631747E+03  0.49277359026E+03  0.52149532379E+03  0.89012288028E+02 0.  0.
        -11    1    3    3    0    0  0.26065224674E+02  0.32484341862E+02  0.22070721845E+02  0.47135391865E+02  0.00000000000E+00 0.  1.
         11    1    3    3    0    0 -0.41398710237E+01  0.93520434720E+02  0.24964597523E+03  0.26662018526E+03  0.00000000000E+00 0. -1.
        -13    1    4    4    0    0  0.46007454525E+01 -0.11814204885E+03  0.28633366598E+03  0.30978327721E+03  0.00000000000E+00 0. -1.
         13    1    4    4    0    0 -0.41009432462E+02 -0.22864268623E+02  0.20643992429E+03  0.21171204659E+03  0.00000000000E+00 0.  1.
         21    1    1    2  502  501  0.14483333360E+02  0.15001540888E+02  0.40697989620E+02  0.45728979142E+02  0.00000000000E+00 0. -1.
<scales pt_clust_5="13000.00000" pt_clust_6="13000.00000" pt_clust_7="13000.00000" pt_clust_8="13000.00000" pt_clust_9="20.85217"></scales>
<clustering>
<clus scale="   20.852">  2  9  1 -1</clus>
<clus scale="   89.012">  7  8 -1 -1</clus>
<clus scale="   90.855">  5  6 -1 -1</clus>
<clus scale="  164.493">  1  7  2 -1</clus>
<clus scale="  164.493">  1  5  2 -1</clus>
</clustering>
</event>
<event>
 9    1  0.1484717E-005  0.1975374E+03  0.7546771E-02  0.1153160E+00
          2   -1    0    0  502    0  0.00000000000E+00  0.00000000000E+00  0.78693930117E+03  0.78693930117E+03  0.00000000000E+00 0. -1.
         -2   -1    0    0    0  501 -0.00000000000E+00 -0.00000000000E+00 -0.85348842563E+02  0.85348842563E+02  0.00000000000E+00 0.  1.
         23    2    1    2    0    0 -0.76146308898E+02 -0.12947178670E+03  0.14883417088E+03  0.23009892245E+03  0.90734226077E+02 0.  0.
         23    2    1    2    0    0  0.56162081592E+02  0.21126378797E+03  0.43185918159E+03  0.49486165738E+03  0.10295212336E+03 0.  0.
        -11    1    4    4    0    0 -0.29358468997E+02  0.38258544859E+02  0.98434975266E+02  0.10961332178E+03  0.00000000000E+00 0. -1.
         11    1    4    4    0    0  0.85520550589E+02  0.17300524311E+03  0.33342420632E+03  0.38524833559E+03  0.00000000000E+00 0.  1.
        -13    1    3    3    0    0 -0.74601248753E+02 -0.85687798150E+02  0.14761095645E+03  0.18627060834E+03  0.00000000000E+00 0. -1.
         13    1    3    3    0    0 -0.15450601453E+01 -0.43783988555E+02  0.12232144308E+01  0.43828314115E+02  0.00000000000E+00 0.  1.
         21    1    1    2  502  501  0.19984227306E+02 -0.81792001267E+02  0.12089710614E+03  0.14732756390E+03  0.00000000000E+00 0.  1.
<scales pt_clust_5="13000.00000" pt_clust_6="13000.00000" pt_clust_7="13000.00000" pt_clust_8="13000.00000" pt_clust_9="84.19799"></scales>
<clustering>
<clus scale="   84.198">  1  9  2 -1</clus>
<clus scale="   90.734">  7  8 -1 -1</clus>
<clus scale="  102.952">  5  6 -1 -1</clus>
<clus scale="  191.454">  2  7  1 -1</clus>
<clus scale="   84.198">  1  5  2 -1</clus>
</clustering>
</event>
<event>
 9    1  0.1484717E-005  0.2257914E+03  0.7546771E-02  0.1129834E+00
         -1   -1    0    0    0  501 -0.00000000000E+00  0.00000000000E+00  0.82790664582E+02  0.82790664582E+02  0.00000000000E+00 0.  1.
          1   -1    0    0  502    0  0.00000000000E+00 -0.00000000000E+00 -0.73001194268E+03  0.73001194268E+03  0.00000000000E+00 0. -1.
         23    2    1    2    0    0 -0.12722613359E+03 -0.15000850481E+03 -0.23984623683E+03  0.32262816641E+03  0.88733735751E+02 0.  0.
         23    2    1    2    0    0  0.12160472391E+03  0.17647263502E+03 -0.39864125833E+03  0.46174506521E+03  0.91451367482E+02 0.  0.
        -11    1    3    3    0    0  0.49268333020E+01 -0.43999340103E+02 -0.32793677437E+02  0.55096650495E+02  0.00000000000E+00 0. -1.
         11    1    3    3    0    0 -0.13215296689E+03 -0.10600916470E+03 -0.20705255939E+03  0.26753151592E+03  0.00000000000E+00 0.  1.
        -11    1    4    4    0    0  0.29320434923E+02 -0.39438274415E+01 -0.64384739763E+02  0.70856449201E+02  0.00000000000E+00 0.  1.
         11    1    4    4    0    0  0.92284288990E+02  0.18041646246E+03 -0.33425651856E+03  0.39088861601E+03  0.00000000000E+00 0. -1.
         21    1    1    2  502  501  0.56214096764E+01 -0.26464130212E+02 -0.87337829383E+01  0.28429375636E+02  0.00000000000E+00 0.  1.
<scales pt_clust_5="13000.00000" pt_clust_6="13000.00000" pt_clust_7="13000.00000" pt_clust_8="13000.00000" pt_clust_9="27.05458"></scales>
<clustering>
<clus scale="   27.055">  1  9  2 -1</clus>
<clus scale="   88.734">  5  6 -1 -1</clus>
<clus scale="   91.451">  7  8 -1 -1</clus>
<clus scale="  224.704">  1  5  2 -1</clus>
<clus scale="  225.791">  2  5  1 -1</clus>
</clustering>
</event>
<event>
 9    1  0.1484717E-005  0.1141643E+03  0.7546771E-02  0.1253055E+00
         -2   -1    0    0    0  501 -0.00000000000E+00  0.00000000000E+00  0.68334197155E+02  0.68334197155E+02  0.00000000000E+00 0.  1.
          2   -1    0    0  502    0  0.00000000000E+00 -0.00000000000E+00 -0.35818561872E+03  0.35818561872E+03  0.00000000000E+00 0. -1.
         23    2    1    2    0    0  0.40056709418E+02 -0.76554296700E+02 -0.86266011430E+02  0.15240153618E+03  0.91210214281E+02 0.  0.
         23    2    1    2    0    0 -0.24044078141E+02  0.56787853723E+02 -0.21846385898E+03  0.24464821236E+03  0.91232187881E+02 0.  0.
        -11    1    4    4    0    0  0.28473349642E+01 -0.24242291236E+02 -0.56875998892E+02  0.61892449060E+02  0.00000000000E+00 0.  1.
         11    1    4    4    0    0 -0.26891413105E+02  0.81030144958E+02 -0.16158786009E+03  0.18275576330E+03  0.00000000000E+00 0. -1.
        -11    1    3    3    0    0  0.21558025503E+02 -0.90678962208E+02 -0.41669425003E+02  0.10209683458E+03  0.00000000000E+00 0.  1.
         11    1    3    3    0    0  0.18498683915E+02  0.14124665508E+02 -0.44596586427E+02  0.50304701602E+02  0.00000000000E+00 0. -1.
         21    1    1    2  502  501 -0.16012631278E+02  0.19766442977E+02  0.14878448850E+02  0.29470067333E+02  0.00000000000E+00 0.  1.
<scales pt_clust_5="13000.00000" pt_clust_6="13000.00000" pt_clust_7="13000.00000" pt_clust_8="13000.00000" pt_clust_9="25.43849"></scales>
<clustering>
<clus scale="   25.438">  1  9  2 -1</clus>
<clus scale="   91.210">  7  8 -1 -1</clus>
<clus scale="   91.232">  5  6 -1 -1</clus>
<clus scale="  114.147">  1  7  2 -1</clus>
<clus scale="  114.164">  2  5  1 -1</clus>
</clustering>
</event>
<event>
 9    1  0.1484717E-005  0.9422144E+02  0.7546771E-02  0.1293925E+00
          1   -1    0    0  502    0  0.00000000000E+00  0.00000000000E+00  0.28577619047E+03  0.28577619047E+03  0.00000000000E+00 0. -1.
         -1   -1    0    0    0  501 -0.00000000000E+00 -0.00000000000E+00 -0.52955957173E+02  0.52955957173E+02  0.00000000000E+00 0.  1.
         23    2    1    2    0    0  0.35432268389E+02 -0.14706308091E+02  0.39755652268E+02  0.10667753999E+03  0.91257134024E+02 0.  0.
         23    2    1    2    0    0 -0.50201743755E+01  0.48401460448E+01  0.16491641272E+03  0.18945700214E+03  0.92994103651E+02 0.  0.
        -13    1    4    4    0    0  0.40942512115E+02 -0.54217956891E+01  0.10772794692E+03  0.11537328857E+03  0.00000000000E+00 0.  1.
         13    1    4    4    0    0 -0.45962686490E+02  0.10261941734E+02  0.57188465796E+02  0.74083713579E+02  0.00000000000E+00 0. -1.
        -13    1    3    3    0    0  0.38327480854E+02 -0.37802802926E+02  0.56471770623E+02  0.78019924218E+02  0.00000000000E+00 0. -1.
         13    1    3    3    0    0 -0.28952124648E+01  0.23096494835E+02 -0.16716118355E+02  0.28657615772E+02  0.00000000000E+00 0.  1.
         21    1    1    2  502  501 -0.30412094014E+02  0.98661620461E+01  0.28148168318E+02  0.42597605513E+02  0.00000000000E+00 0.  1.
<scales pt_clust_5="13000.00000" pt_clust_6="13000.00000" pt_clust_7="13000.00000" pt_clust_8="13000.00000" pt_clust_9="31.97244"></scales>
<clustering>
<clus scale="   31.972">  2  9  1 -1</clus>
<clus scale="   91.257">  7  8 -1 -1</clus>
<clus scale="   92.508">  2  7  1 -1</clus>
<clus scale="   92.994">  5  6 -1 -1</clus>
<clus scale="   94.221">  1  5  2 -1</clus>
</clustering>
</event>
<event>
 9    1  0.1484717E-005  0.1110721E+03  0.7546771E-02  0.1260153E+00
         -1   -1    0    0    0  501 -0.00000000000E+00  0.00000000000E+00  0.21405075528E+03  0.21405075528E+03  0.00000000000E+00 0.  1.
          1   -1    0    0  502    0  0.00000000000E+00 -0.00000000000E+00 -0.20441571897E+03  0.20441571897E+03  0.00000000000E+00 0. -1.
         23    2    1    2    0    0 -0.14180498073E+02  0.53526941683E+01 -0.19994197325E+02  0.94635741631E+02  0.91249207158E+02 0.  0.
         23    2    1    2    0    0  0.76740380669E+02 -0.56845355806E+02 -0.10213423321E+03  0.16914768795E+03  0.95179085123E+02 0.  0.
        -11    1    4    4    0    0  0.53664868787E+02 -0.23216311532E+01 -0.95502060094E+02  0.10957167333E+03  0.00000000000E+00 0.  1.
         11    1    4    4    0    0  0.23075511882E+02 -0.54523724653E+02 -0.66321731133E+01  0.59576014627E+02  0.00000000000E+00 0. -1.
        -13    1    3    3    0    0 -0.38166917721E+01 -0.29598725558E+02 -0.42396501217E+02  0.51847034691E+02  0.00000000000E+00 0. -1.
         13    1    3    3    0    0 -0.10363806301E+02  0.34951419727E+02  0.22402303892E+02  0.42788706940E+02  0.00000000000E+00 0.  1.
         21    1    1    2  502  501 -0.62559882596E+02  0.51492661637E+02  0.13176346684E+03  0.15468304467E+03  0.00000000000E+00 0.  1.
<scales pt_clust_5="13000.00000" pt_clust_6="13000.00000" pt_clust_7="13000.00000" pt_clust_8="13000.00000" pt_clust_9="81.02613"></scales>
<clustering>
<clus scale="   81.026">  1  9  2 -1</clus>
<clus scale="   91.249">  7  8 -1 -1</clus>
<clus scale="   95.179">  5  6 -1 -1</clus>
<clus scale="  107.724">  1  7  2 -1</clus>
<clus scale="  111.072">  2  5  1 -1</clus>
</clustering>
</event>
<event>
 9    1  0.1484717E-005  0.1252624E+03  0.7546771E-02  0.1234915E+00
          1   -1    0    0  502    0  0.00000000000E+00  0.00000000000E+00  0.45162694838E+03  0.45162694838E+03  0.00000000000E+00 0. -1.
         -1   -1    0    0    0  501 -0.00000000000E+00 -0.00000000000E+00 -0.15931181388E+03  0.15931181388E+03  0.00000000000E+00 0.  1.
         23    2    1    2    0    0 -0.90403341438E+01  0.86806827100E+02 -0.11143766906E+03  0.16896550393E+03  0.92270442508E+02 0.  0.
         23    2    1    2    0    0  0.30415758544E+02 -0.79086431278E+02  0.39996818411E+03  0.41893336631E+03  0.91382903905E+02 0.  0.
        -11    1    4    4    0    0 -0.16612304548E+02 -0.75665466561E+02  0.24749269882E+03  0.25933350624E+03  0.00000000000E+00 0. -1.
         11    1    4    4    0    0  0.47028063092E+02 -0.34209647179E+01  0.15247548529E+03  0.15959986007E+03  0.00000000000E+00 0.  1.
        -13    1    3    3    0    0 -0.40578180190E+02  0.68380958320E+02 -0.10526527794E+03  0.13192165443E+03  0.00000000000E+00 0.  1.
         13    1    3    3    0    0  0.31537846046E+02  0.18425868780E+02 -0.61723911182E+01  0.37043849498E+02  0.00000000000E+00 0. -1.
         21    1    1    2  502  501 -0.21375424400E+02 -0.77203958212E+01  0.37846194440E+01  0.23039892019E+02  0.00000000000E+00 0. -1.
<scales pt_clust_5="13000.00000" pt_clust_6="13000.00000" pt_clust_7="13000.00000" pt_clust_8="13000.00000" pt_clust_9="22.72693"></scales>
<clustering>
<clus scale="   22.727">  2  9  1 -1</clus>
<clus scale="   91.383">  5  6 -1 -1</clus>
<clus scale="   92.270">  7  8 -1 -1</clus>
<clus scale="  124.610">  1  5  2 -1</clus>
<clus scale="  124.610">  1  5  2 -1</clus>
</clustering>
</event>
<event>
 9    1  0.1484717E-005  0.9151740E+02  0.7546771E-02  0.1300657E+00
          4   -1    0    0  502    0  0.00000000000E+00  0.00000000000E+00  0.43370947782E+02  0.43370947782E+02  0.00000000000E+00 0. -1.
         -4   -1    0    0    0  501 -0.00000000000E+00 -0.00000000000E+00 -0.26932424680E+03  0.26932424680E+03  0.00000000000E+00 0.  1.
         23    2    1    2    0    0  0.14514371844E+02  0.89061659818E+01 -0.96077960835E+02  0.13362660764E+03  0.91296817741E+02 0.  0.
         23    2    1    2    0    0  0.17181404438E+02 -0.34205094730E+01 -0.88435380158E+02  0.12660922378E+03  0.88894198573E+02 0.  0.
        -13    1    4    4    0    0 -0.18867852135E+02  0.29202143743E+02 -0.62465512554E+02  0.71489169124E+02  0.00000000000E+00 0.  1.
         13    1    4    4    0    0  0.36049256573E+02 -0.32622653216E+02 -0.25969867603E+02  0.55120054659E+02  0.00000000000E+00 0. -1.
        -13    1    3    3    0    0 -0.19021462141E+02  0.11939730861E+02 -0.97372613165E+02  0.99928969721E+02  0.00000000000E+00 0. -1.
         13    1    3    3    0    0  0.33535833985E+02 -0.30335648789E+01  0.12946523293E+01  0.33697637923E+02  0.00000000000E+00 0.  1.
         21    1    1    2  502  501 -0.31695776282E+02 -0.54856565088E+01 -0.41439958022E+02  0.52459363152E+02  0.00000000000E+00 0. -1.
<scales pt_clust_5="13000.00000" pt_clust_6="13000.00000" pt_clust_7="13000.00000" pt_clust_8="13000.00000" pt_clust_9="32.16698"></scales>
<clustering>
<clus scale="   32.167">  2  9  1 -1</clus>
<clus scale="   88.894">  5  6 -1 -1</clus>
<clus scale="   89.121">  1  5  2 -1</clus>
<clus scale="   91.297">  7  8 -1 -1</clus>
<clus scale="   89.121">  1  5  2 -1</clus>
</clustering>
</event>
<event>
 9    1  0.1484717E-005  0.1593755E+03  0.7546771E-02  0.1190870E+00
         -3   -1    0    0    0  501 -0.00000000000E+00  0.00000000000E+00  0.34319862693E+03  0.34319862693E+03  0.00000000000E+00 0.  1.
          3   -1    0    0  502    0  0.00000000000E+00 -0.00000000000E+00 -0.89261213816E+02  0.89261213816E+02  0.00000000000E+00 0. -1.
         23    2    1    2    0    0 -0.12839072078E+03  0.16740706698E+02  0.15463898442E+03  0.22159464247E+03  0.91796196141E+02 0.  0.
         23    2    1    2    0    0  0.12392899329E+03 -0.45833333689E+02  0.76413123597E+02  0.17358215727E+03  0.82660208128E+02 0.  0.
        -13    1    3    3    0    0 -0.40908498867E+02  0.12919074141E+02 -0.11136267642E+01  0.42914425556E+02  0.00000000000E+00 0. -1.
         13    1    3    3    0    0 -0.87482221913E+02  0.38216325576E+01  0.15575261118E+03  0.17868021691E+03  0.00000000000E+00 0.  1.
        -13    1    4    4    0    0  0.10007906677E+03 -0.20164756560E+00  0.69006086713E+02  0.12156356474E+03  0.00000000000E+00 0. -1.
         13    1    4    4    0    0  0.23849926521E+02 -0.45631686123E+02  0.74070368838E+01  0.52018592531E+02  0.00000000000E+00 0.  1.
         21    1    1    2  502  501  0.44617274853E+01  0.29092626991E+02  0.22885305098E+02  0.37283041008E+02  0.00000000000E+00 0. -1.
<scales pt_clust_5="13000.00000" pt_clust_6="13000.00000" pt_clust_7="13000.00000" pt_clust_8="13000.00000" pt_clust_9="29.43277"></scales>
<clustering>
<clus scale="   29.433">  1  9  2 -1</clus>
<clus scale="   82.660">  7  8 -1 -1</clus>
<clus scale="   91.796">  5  6 -1 -1</clus>
<clus scale="  154.294">  2  7  1 -1</clus>
<clus scale="  154.294">  2  5  1 -1</clus>
</clustering>
</event>
<event>
 9    1  0.1484717E-005  0.1156359E+03  0.7546771E-02  0.1251282E+00
         -2   -1    0    0    0  501 -0.00000000000E+00  0.00000000000E+00  0.21135787373E+03  0.21135787373E+03  0.00000000000E+00 0.  1.
          2   -1    0    0  502    0  0.00000000000E+00 -0.00000000000E+00 -0.12968678965E+03  0.12968678965E+03  0.00000000000E+00 0. -1.
         23    2    1    2    0    0  0.54506602310E+02 -0.50993256165E+02  0.13321864951E+03  0.17721918200E+03  0.89934131584E+02 0.  0.
         23    2    1    2    0    0 -0.15498318967E+02  0.53617882038E+02 -0.60607630707E+02  0.12369295575E+03  0.92258263790E+02 0.  0.
        -13    1    3    3    0    0  0.16143927952E+02 -0.54328369972E+02  0.12583599564E+03  0.13801049233E+03  0.00000000000E+00 0.  1.
         13    1    3    3    0    0  0.38362674358E+02  0.33351138066E+01  0.73826538665E+01  0.39208689676E+02  0.00000000000E+00 0. -1.
        -13    1    4    4    0    0 -0.38240684734E+02  0.69901303426E+02 -0.41690264357E+02  0.89925637789E+02  0.00000000000E+00 0. -1.
         13    1    4    4    0    0  0.22742365767E+02 -0.16283421388E+02 -0.18917366350E+02  0.33767317963E+02  0.00000000000E+00 0.  1.
         21    1    1    2  502  501 -0.39008283343E+02 -0.26246258727E+01  0.90600652838E+01  0.40132525628E+02  0.00000000000E+00 0.  1.
<scales pt_clust_5="13000.00000" pt_clust_6="13000.00000" pt_clust_7="13000.00000" pt_clust_8="13000.00000" pt_clust_9="39.09648"></scales>
<clustering>
<clus scale="   39.096">  2  9  1 -1</clus>
<clus scale="   89.934">  5  6 -1 -1</clus>
<clus scale="   92.258">  7  8 -1 -1</clus>
<clus scale="  113.790">  1  5  2 -1</clus>
<clus scale="   39.096">  2  5  1 -1</clus>
</clustering>
</event>
<event>
 9    1  0.1484717E-005  0.9973094E+02  0.7546771E-02  0.1282573E+00
         -1   -1    0    0    0  501 -0.00000000000E+00  0.00000000000E+00  0.90158659046E+02  0.90158659046E+02  0.00000000000E+00 0.  1.
          1   -1    0    0  502    0  0.00000000000E+00 -0.00000000000E+00 -0.31206397326E+03  0.31206397326E+03  0.00000000000E+00 0. -1.
         23    2    1    2    0    0 -0.84310577870E+01  0.11887413027E+02  0.68919741074E+01  0.93935985560E+02  0.92542297098E+02 0.  0.
         23    2    1    2    0    0  0.38125962538E+02 -0.16861808268E+02 -0.25184117474E+03  0.27037157483E+03  0.89100513946E+02 0.  0.
        -11    1    3    3    0    0 -0.25289212573E+02  0.44620055249E+02 -0.11823507124E+02  0.52633534212E+02  0.00000000000E+00 0. -1.
         11    1    3    3    0    0  0.16858154786E+02 -0.32732642222E+02  0.18715481231E+02  0.41302451348E+02  0.00000000000E+00 0.  1.
        -13    1    4    4    0    0 -0.23837252811E+02  0.90797860813E+01 -0.34629919373E+02  0.43010329604E+02  0.00000000000E+00 0.  1.
         13    1    4    4    0    0  0.61963215349E+02 -0.25941594350E+02 -0.21721125537E+03  0.22736124523E+03  0.00000000000E+00 0. -1.
         21    1    1    2  502  501 -0.29694904751E+02  0.49743952414E+01  0.23043886424E+02  0.37915071908E+02  0.00000000000E+00 0.  1.
<scales pt_clust_5="13000.00000" pt_clust_6="13000.00000" pt_clust_7="13000.00000" pt_clust_8="13000.00000" pt_clust_9="30.10867"></scales>
<clustering>
<clus scale="   30.109">  1  9  2 -1</clus>
<clus scale="   89.101">  7  8 -1 -1</clus>
<clus scale="   92.542">  5  6 -1 -1</clus>
<clus scale="   96.546">  2  7  1 -1</clus>
<clus scale="   96.546">  2  5  1 -1</clus>
</clustering>
</event>
<event>
 9    1  0.1484717E-005  0.9396074E+02  0.7546771E-02  0.1295871E+00
          3   -1    0    0  502    0  0.00000000000E+00  0.00000000000E+00  0.57109300812E+02  0.57109300812E+02  0.00000000000E+00 0. -1.
         -3   -1    0    0    0  501 -0.00000000000E+00 -0.00000000000E+00 -0.35781018637E+03  0.35781018637E+03  0.00000000000E+00 0.  1.
         23    2    1    2    0    0  0.23410582479E+02  0.75612512195E+02 -0.19570529313E+03  0.22706752253E+03  0.83628886500E+02 0.  0.
         23    2    1    2    0    0 -0.10289345041E+02 -0.32409430950E+02 -0.15338562432E+02  0.87467423367E+02  0.79114074709E+02 0.  0.
        -11    1    3    3    0    0 -0.28444897347E+02  0.40888027891E+02 -0.11271823090E+03  0.12323287949E+03  0.00000000000E+00 0.  1.
         11    1    3    3    0    0  0.51855479826E+02  0.34724484304E+02 -0.82987062225E+02  0.10383464304E+03  0.00000000000E+00 0. -1.
        -13    1    4    4    0    0  0.24621760097E+02  0.68269852028E+01  0.12034159692E+02  0.28242871609E+02  0.00000000000E+00 0.  1.
         13    1    4    4    0    0 -0.34911105138E+02 -0.39236416153E+02 -0.27372722123E+02  0.59224551758E+02  0.00000000000E+00 0. -1.
         21    1    1    2  502  501 -0.13121237438E+02 -0.43203081245E+02 -0.89657030002E+02  0.10038454129E+03  0.00000000000E+00 0. -1.
<scales pt_clust_5="13000.00000" pt_clust_6="13000.00000" pt_clust_7="13000.00000" pt_clust_8="13000.00000" pt_clust_9="45.15167"></scales>
<clustering>
<clus scale="   45.152">  2  9  1 -1</clus>
<clus scale="   79.114">  7  8 -1 -1</clus>
<clus scale="   83.629">  5  6 -1 -1</clus>
<clus scale="   89.966">  1  7  2 -1</clus>
<clus scale="   89.966">  1  5  2 -1</clus>
</clustering>
</event>
<event>
 9    1  0.1484717E-005  0.1111923E+03  0.7546771E-02  0.1258723E+00
         -2   -1    0    0    0  501 -0.00000000000E+00  0.00000000000E+00  0.86869025118E+02  0.86869025118E+02  0.00000000000E+00 0.  1.
          2   -1    0    0  502    0  0.00000000000E+00 -0.00000000000E+00 -0.26823853597E+03  0.26823853597E+03  0.00000000000E+00 0. -1.
         23    2    1    2    0    0  0.92500970445E+02  0.48330541189E+02 -0.96660207746E+02  0.16832039864E+03  0.89979387043E+02 0.  0.
         23    2    1    2    0    0 -0.28010862579E+02 -0.23919570787E+02 -0.60117474399E+02  0.11357768541E+03  0.89045076261E+02 0.  0.
        -11    1    4    4    0    0 -0.46450714605E+02  0.16612280291E+02 -0.18678373231E+02  0.52749581708E+02  0.00000000000E+00 0.  1.
         11    1    4    4    0    0  0.18439852026E+02 -0.40531851078E+02 -0.41439101168E+02  0.60828103704E+02  0.00000000000E+00 0. -1.
        -13    1    3    3    0    0  0.27258073156E+02  0.15060086197E+02 -0.89466603307E+02  0.94731630703E+02  0.00000000000E+00 0. -1.
         13    1    3    3    0    0  0.65242897289E+02  0.33270454992E+02 -0.71936044399E+01  0.73588767939E+02  0.00000000000E+00 0.  1.
         21    1    1    2  502  501 -0.64490107866E+02 -0.24410970402E+02 -0.24591828707E+02  0.73209477035E+02  0.00000000000E+00 0. -1.
<scales pt_clust_5="13000.00000" pt_clust_6="13000.00000" pt_clust_7="13000.00000" pt_clust_8="13000.00000" pt_clust_9="68.95556"></scales>
<clustering>
<clus scale="   68.956">  1  9  2 -1</clus>
<clus scale="   89.045">  5  6 -1 -1</clus>
<clus scale="   89.979">  7  8 -1 -1</clus>
<clus scale="  110.438">  2  5  1 -1</clus>
<clus scale="  110.438">  2  5  1 -1</clus>
</clustering>
</event>
<event>
 9    1  0.1484717E-005  0.1457993E+03  0.7546771E-02  0.1206833E+00
         -2   -1    0    0    0  501 -0.00000000000E+00  0.00000000000E+00  0.91344239983E+02  0.91344239983E+02  0.00000000000E+00 0.  1.
          2   -1    0    0  502    0  0.00000000000E+00 -0.00000000000E+00 -0.75365685487E+03  0.75365685487E+03  0.00000000000E+00 0. -1.
         23    2    1    2    0    0  0.11585543443E+03  0.31204221512E+02 -0.27916052253E+03  0.31644475227E+03  0.88377026290E+02 0.  0.
         23    2    1    2    0    0 -0.94340866231E+02 -0.52309343432E+02 -0.44086065901E+03  0.46345195348E+03  0.93771669898E+02 0.  0.
        -11    1    3    3    0    0  0.56331322059E+02  0.41575897922E+02 -0.71084052734E+02  0.99773321514E+02  0.00000000000E+00 0.  1.
         11    1    3    3    0    0  0.59524112372E+02 -0.10371676410E+02 -0.20807646979E+03  0.21667143076E+03  0.00000000000E+00 0. -1.
        -11    1    4    4    0    0 -0.11171448661E+03 -0.37582298127E+02 -0.39557389812E+03  0.41276054138E+03  0.00000000000E+00 0. -1.
         11    1    4    4    0    0  0.17373620384E+02 -0.14727045305E+02 -0.45286760889E+02  0.50691412098E+02  0.00000000000E+00 0.  1.
         21    1    1    2  502  501 -0.21514568200E+02  0.21105121920E+02  0.57708566644E+02  0.65104389100E+02  0.00000000000E+00 0.  1.
<scales pt_clust_5="13000.00000" pt_clust_6="13000.00000" pt_clust_7="13000.00000" pt_clust_8="13000.00000" pt_clust_9="30.13806"></scales>
<clustering>
<clus scale="   30.138">  1  9  2 -1</clus>
<clus scale="   88.377">  5  6 -1 -1</clus>
<clus scale="   93.772">  7  8 -1 -1</clus>
<clus scale="  142.390">  1  5  2 -1</clus>
<clus scale="  145.799">  2  5  1 -1</clus>
</clustering>
</event>
<event>
 9    1  0.1484717E-005  0.9502028E+02  0.7546771E-02  0.1291295E+00
          1   -1    0    0  502    0  0.00000000000E+00  0.00000000000E+00  0.14557888948E+03  0.14557888948E+03  0.00000000000E+00 0. -1.
         -1   -1    0    0    0  501 -0.00000000000E+00 -0.00000000000E+00 -0.86226484462E+02  0.86226484462E+02  0.00000000000E+00 0.  1.
         23    2    1    2    0    0 -0.39350633626E+01  0.26332181350E+02  0.26474131325E+02  0.98546891548E+02  0.91113894144E+02 0.  0.
         23    2    1    2    0    0 -0.19418896770E+02 -0.24812091905E+02  0.45856010816E+02  0.10649769417E+03  0.90808874452E+02 0.  0.
        -11    1    4    4    0    0  0.30134195751E+02 -0.87988540324E+01 -0.71435488413E+01  0.32195028745E+02  0.00000000000E+00 0.  1.
         11    1    4    4    0    0 -0.49553092521E+02 -0.16013237872E+02  0.52999559657E+02  0.74302665426E+02  0.00000000000E+00 0. -1.
        -13    1    3    3    0    0  0.26954941096E+02  0.37036663625E+02  0.42187801159E+02  0.62274343582E+02  0.00000000000E+00 0.  1.
         13    1    3    3    0    0 -0.30890004459E+02 -0.10704482275E+02 -0.15713669834E+02  0.36272547965E+02  0.00000000000E+00 0. -1.
         21    1    1    2  502  501  0.23353960133E+02 -0.15200894458E+01 -0.12977737119E+02  0.26760788227E+02  0.00000000000E+00 0. -1.
<scales pt_clust_5="13000.00000" pt_clust_6="13000.00000" pt_clust_7="13000.00000" pt_clust_8="13000.00000" pt_clust_9="23.40338"></scales>
<clustering>
<clus scale="   23.403">  2  9  1 -1</clus>
<clus scale="   90.809">  5  6 -1 -1</clus>
<clus scale="   91.114">  7  8 -1 -1</clus>
<clus scale="   94.728">  1  5  2 -1</clus>
<clus scale="   94.728">  1  5  2 -1</clus>
</clustering>
</event>
<event>
 9    1  0.1484717E-005  0.1419683E+03  0.7546771E-02  0.1219431E+00
         -1   -1    0    0    0  501 -0.00000000000E+00  0.00000000000E+00  0.34982633084E+03  0.34982633084E+03  0.00000000000E+00 0.  1.
          1   -1    0    0  502    0  0.00000000000E+00 -0.00000000000E+00 -0.87696052017E+02  0.87696052017E+02  0.00000000000E+00 0. -1.
         23    2    1    2    0    0  0.96938327641E+02  0.34103407402E+02  0.15893556234E+03  0.22445173121E+03  0.12065647478E+03 0.  0.
         23    2    1    2    0    0 -0.45947437719E+02 -0.49577375793E+02  0.21601090526E+02  0.11561792285E+03  0.91278769426E+02 0.  0.
        -11    1    4    4    0    0 -0.19999017696E+02  0.24571066942E+02 -0.62072593864E+01  0.32283557867E+02  0.00000000000E+00 0.  1.
         11    1    4    4    0    0 -0.25948420023E+02 -0.74148442735E+02  0.27808349912E+02  0.83334364980E+02  0.00000000000E+00 0. -1.
        -13    1    3    3    0    0 -0.18941796807E+02  0.19077590114E+02  0.77482018092E+02  0.82013469860E+02  0.00000000000E+00 0.  1.
         13    1    3    3    0    0  0.11588012445E+03  0.15025817289E+02  0.81453544244E+02  0.14243826135E+03  0.00000000000E+00 0. -1.
         21    1    1    2  502  501 -0.50990889921E+02  0.15473968391E+02  0.81593625966E+02  0.97452728802E+02  0.00000000000E+00 0.  1.
<scales pt_clust_5="13000.00000" pt_clust_6="13000.00000" pt_clust_7="13000.00000" pt_clust_8="13000.00000" pt_clust_9="53.28710"></scales>
<clustering>
<clus scale="   53.287">  1  9  2 -1</clus>
<clus scale="   91.279">  5  6 -1 -1</clus>
<clus scale="  118.020">  2  5  1 -1</clus>
<clus scale="  120.656">  7  8 -1 -1</clus>
<clus scale="  118.020">  2  5  1 -1</clus>
</clustering>
</event>
<event>
 9    1  0.1484717E-005  0.1289092E+03  0.7546771E-02  0.1229680E+00
          2   -1    0    0  502    0  0.00000000000E+00  0.00000000000E+00  0.49124363176E+03  0.49124363176E+03  0.00000000000E+00 0. -1.
         -2   -1    0    0    0  501 -0.00000000000E+00 -0.00000000000E+00 -0.56391945968E+02  0.56391945968E+02  0.00000000000E+00 0.  1.
         23    2    1    2    0    0  0.52899484592E+02  0.10827209126E+03  0.23096841893E+03  0.27608415574E+03  0.91404864696E+02 0.  0.
         23    2    1    2    0    0 -0.43490389751E+01 -0.69972413408E+02  0.15824180531E+03  0.19469340936E+03  0.89162783277E+02 0.  0.
        -11    1    3    3    0    0  0.37443725233E+02  0.59277193527E+02  0.20856941300E+03  0.22003867449E+03  0.00000000000E+00 0. -1.
         11    1    3    3    0    0  0.15455759359E+02  0.48994897734E+02  0.22399005924E+02  0.56045481243E+02  0.00000000000E+00 0.  1.
        -13    1    4    4    0    0 -0.26563255472E+02 -0.35786613691E+01  0.65014587098E+01  0.27580469971E+02  0.00000000000E+00 0.  1.
         13    1    4    4    0    0  0.22214216497E+02 -0.66393752039E+02  0.15174034660E+03  0.16711293939E+03  0.00000000000E+00 0. -1.
         21    1    1    2  502  501 -0.48550445617E+02 -0.38299677853E+02  0.45641461550E+02  0.76858012632E+02  0.00000000000E+00 0. -1.
<scales pt_clust_5="13000.00000" pt_clust_6="13000.00000" pt_clust_7="13000.00000" pt_clust_8="13000.00000" pt_clust_9="61.83859"></scales>
<clustering>
<clus scale="   61.839">  2  9  1 -1</clus>
<clus scale="   89.163">  7  8 -1 -1</clus>
<clus scale="   91.405">  5  6 -1 -1</clus>
<clus scale="  127.329">  1  7  2 -1</clus>
<clus scale="  127.329">  1  5  2 -1</clus>
</clustering>
</event>
<event>
 9    1  0.1484717E-005  0.9214212E+02  0.7546771E-02  0.1298991E+00
         -1   -1    0    0    0  501 -0.00000000000E+00  0.00000000000E+00  0.14525974562E+03  0.14525974562E+03  0.00000000000E+00 0.  1.
          1   -1    0    0  502    0  0.00000000000E+00 -0.00000000000E+00 -0.73364050145E+02  0.73364050145E+02  0.00000000000E+00 0. -1.
         23    2    1    2    0    0 -0.16833669771E+02  0.10907597451E+02  0.32789239959E+02  0.96618307234E+02  0.88643188772E+02 0.  0.
         23    2    1    2    0    0 -0.47325149057E+01 -0.18361367198E+02  0.30491358003E+02  0.97615348926E+02  0.90771674714E+02 0.  0.
        -11    1    3    3    0    0 -0.53514278340E+02  0.58767371925E+01  0.18327695845E+02  0.56870189566E+02  0.00000000000E+00 0.  1.
         11    1    3    3    0    0  0.36680608570E+02  0.50308602589E+01  0.14461544113E+02  0.39748117668E+02  0.00000000000E+00 0. -1.
        -11    1    4    4    0    0 -0.34141477994E+02  0.19118904753E+02  0.31079053449E+02  0.49970797491E+02  0.00000000000E+00 0.  1.
         11    1    4    4    0    0  0.29408963089E+02 -0.37480271951E+02 -0.58769544630E+00  0.47644551435E+02  0.00000000000E+00 0. -1.
         21    1    1    2  502  501  0.21566184676E+02  0.74537697470E+01  0.86150975180E+01  0.24390139610E+02  0.00000000000E+00 0.  1.
<scales pt_clust_5="13000.00000" pt_clust_6="13000.00000" pt_clust_7="13000.00000" pt_clust_8="13000.00000" pt_clust_9="22.81795"></scales>
<clustering>
<clus scale="   22.818">  1  9  2 -1</clus>
<clus scale="   88.643">  5  6 -1 -1</clus>
<clus scale="   90.046">  1  5  2 -1</clus>
<clus scale="   90.772">  7  8 -1 -1</clus>
<clus scale="   92.142">  2  5  1 -1</clus>
</clustering>
</event>
<event>
 9    1  0.1484717E-005  0.1134948E+03  0.7546771E-02  0.1261577E+00
         -2   -1    0    0    0  501 -0.00000000000E+00  0.00000000000E+00  0.46040052213E+02  0.46040052213E+02  0.00000000000E+00 0.  1.
          2   -1    0    0  502    0  0.00000000000E+00 -0.00000000000E+00 -0.35618532492E+03  0.35618532492E+03  0.00000000000E+00 0. -1.
         23    2    1    2    0    0  0.47005207866E+02  0.24509635108E+02 -0.10832141068E+03  0.16207467983E+03  0.10827955510E+03 0.  0.
         23    2    1    2    0    0 -0.25020208573E+02 -0.68592495233E+01 -0.18219360529E+03  0.20579631934E+03  0.92111644791E+02 0.  0.
        -13    1    3    3    0    0  0.75819035885E+02  0.40819936104E+02 -0.88530687676E+02  0.12350091516E+03  0.00000000000E+00 0.  1.
         13    1    3    3    0    0 -0.28813828018E+02 -0.16310300996E+02 -0.19790722999E+02  0.38573764665E+02  0.00000000000E+00 0. -1.
        -13    1    4    4    0    0 -0.35248862854E+02 -0.44374819502E+02 -0.11345848190E+03  0.12682442215E+03  0.00000000000E+00 0. -1.
         13    1    4    4    0    0  0.10228654281E+02  0.37515569979E+02 -0.68735123388E+02  0.78971897194E+02  0.00000000000E+00 0.  1.
         21    1    1    2  502  501 -0.21984999293E+02 -0.17650385585E+02 -0.19630256745E+02  0.34354377961E+02  0.00000000000E+00 0. -1.
<scales pt_clust_5="13000.00000" pt_clust_6="13000.00000" pt_clust_7="13000.00000" pt_clust_8="13000.00000" pt_clust_9="28.19355"></scales>
<clustering>
<clus scale="   28.194">  1  9  2 -1</clus>
<clus scale="   92.112">  7  8 -1 -1</clus>
<clus scale="   98.189">  2  7  1 -1</clus>
<clus scale="  108.280">  5  6 -1 -1</clus>
<clus scale="   98.189">  2  5  1 -1</clus>
</clustering>
</event>
<event>
 9    1  0.1484717E-005  0.1051442E+03  0.7546771E-02  0.1271849E+00
         -1   -1    0    0    0  501 -0.00000000000E+00  0.00000000000E+00  0.19042769991E+03  0.19042769991E+03  0.00000000000E+00 0.  1.
          1   -1    0    0  502    0  0.00000000000E+00 -0.00000000000E+00 -0.27640608768E+03  0.27640608768E+03  0.00000000000E+00 0. -1.
         23    2    1    2    0    0 -0.37595336059E+02  0.84811240306E+02  0.17545985695E+02  0.13024673034E+03  0.89721755296E+02 0.  0.
         23    2    1    2    0    0  0.33194591545E+02 -0.23264030154E+02 -0.19843845370E+03  0.22337880553E+03  0.94218760589E+02 0.  0.
        -11    1    4    4    0    0  0.41973340379E+02  0.16222665372E+02 -0.16460141923E+03  0.17064162267E+03  0.00000000000E+00 0. -1.
         11    1    4    4    0    0 -0.87787488343E+01 -0.39486695526E+02 -0.33837034472E+02  0.52737182865E+02  0.00000000000E+00 0.  1.
        -11    1    3    3    0    0  0.25361592038E+02  0.41557450113E+02 -0.87466782763E+01  0.49464496273E+02  0.00000000000E+00 0. -1.
         11    1    3    3    0    0 -0.62956928097E+02  0.43253790193E+02  0.26292663971E+02  0.80782234063E+02  0.00000000000E+00 0.  1.
         21    1    1    2  502  501  0.44007445143E+01 -0.61547210152E+02  0.94914080244E+02  0.11320825172E+03  0.00000000000E+00 0.  1.
<scales pt_clust_5="13000.00000" pt_clust_6="13000.00000" pt_clust_7="13000.00000" pt_clust_8="13000.00000" pt_clust_9="61.70434"></scales>
<clustering>
<clus scale="   61.704">  1  9  2 -1</clus>
<clus scale="   89.722">  7  8 -1 -1</clus>
<clus scale="   94.219">  5  6 -1 -1</clus>
<clus scale="  101.134">  1  7  2 -1</clus>
<clus scale="  105.144">  2  5  1 -1</clus>
</clustering>
</event>
<event>
 9    1  0.1484717E-005  0.1495205E+03  0.7546771E-02  0.1222002E+00
          2   -1    0    0  502    0  0.00000000000E+00  0.00000000000E+00  0.79650197690E+03  0.79650197690E+03  0.00000000000E+00 0. -1.
         -2   -1    0    0    0  501 -0.00000000000E+00 -0.00000000000E+00 -0.72632770968E+02  0.72632770968E+02  0.00000000000E+00 0.  1.
         23    2    1    2    0    0  0.11916299468E+02 -0.14376307364E+02  0.20194919556E+02  0.97829335828E+02  0.93883266700E+02 0.  0.
         23    2    1    2    0    0  0.29829049094E+02 -0.10910658138E+03  0.55383905433E+03  0.57270708702E+03  0.91987451020E+02 0.  0.
        -11    1    4    4    0    0  0.61410807545E+02 -0.55311328420E+02  0.28619781444E+03  0.29789229484E+03  0.00000000000E+00 0.  1.
         11    1    4    4    0    0 -0.31581758451E+02 -0.53795252965E+02  0.26764123989E+03  0.27481479218E+03  0.00000000000E+00 0. -1.
        -13    1    3    3    0    0  0.39755771942E+02 -0.14507004961E+02  0.44109832026E+02  0.61128159444E+02  0.00000000000E+00 0.  1.
         13    1    3    3    0    0 -0.27839472474E+02  0.13069759656E+00 -0.23914912470E+02  0.36701176384E+02  0.00000000000E+00 0. -1.
         21    1    1    2  502  501 -0.41745348562E+02  0.12348288875E+03  0.14983523205E+03  0.19859832503E+03  0.00000000000E+00 0. -1.
<scales pt_clust_5="13000.00000" pt_clust_6="13000.00000" pt_clust_7="13000.00000" pt_clust_8="13000.00000" pt_clust_9="117.87574"></scales>
<clustering>
<clus scale="   91.987">  5  6 -1 -1</clus>
<clus scale="   93.883">  7  8 -1 -1</clus>
<clus scale="   95.722">  2  7  1 -1</clus>
<clus scale="  117.876">  2  9  1 -1</clus>
<clus scale="  149.521">  1  5  2 -1</clus>
</clustering>
</event>
<event>
 9    1  0.1484717E-005  0.1111033E+03  0.7546771E-02  0.1259187E+00
         -2   -1    0    0    0  501 -0.00000000000E+00  0.00000000000E+00  0.92755429290E+02  0.92755429290E+02  0.00000000000E+00 0.  1.
          2   -1    0    0  502    0  0.00000000000E+00 -0.00000000000E+00 -0.22036345058E+03  0.22036345058E+03  0.00000000000E+00 0. -1.
         23    2    1    2    0    0  0.55386041161E+00 -0.43837970590E+02 -0.10172725371E+02  0.10258894399E+03  0.92189655928E+02 0.  0.
         23    2    1    2    0    0 -0.24638272121E+02  0.67108668882E+02 -0.13088316877E+03  0.17444074677E+03  0.90490620379E+02 0.  0.
        -11    1    3    3    0    0 -0.33467539110E+02  0.81761545776E+01 -0.19737116446E+02  0.39704904525E+02  0.00000000000E+00 0.  1.
         11    1    3    3    0    0  0.34021399522E+02 -0.52014125168E+02  0.95643910755E+01  0.62884039462E+02  0.00000000000E+00 0. -1.
        -13    1    4    4    0    0  0.33373091948E+02  0.22538685219E+02 -0.31994159401E+02  0.51433275545E+02  0.00000000000E+00 0. -1.
         13    1    4    4    0    0 -0.58011364069E+02  0.44569983663E+02 -0.98889009366E+02  0.12300747123E+03  0.00000000000E+00 0.  1.
         21    1    1    2  502  501  0.24084411709E+02 -0.23270698292E+02  0.13447872848E+02  0.36089189109E+02  0.00000000000E+00 0. -1.
<scales pt_clust_5="13000.00000" pt_clust_6="13000.00000" pt_clust_7="13000.00000" pt_clust_8="13000.00000" pt_clust_9="33.49006"></scales>
<clustering>
<clus scale="   33.490">  1  9  2 -1</clus>
<clus scale="   90.491">  7  8 -1 -1</clus>
<clus scale="   92.190">  5  6 -1 -1</clus>
<clus scale="  109.698">  2  7  1 -1</clus>
<clus scale="  109.698">  2  5  1 -1</clus>
</clustering>
</event>
<event>
 9    1  0.1484717E-005  0.1076078E+03  0.7546771E-02  0.1265644E+00
         -4   -1    0    0    0  501 -0.00000000000E+00  0.00000000000E+00  0.39077454990E+02  0.39077454990E+02  0.00000000000E+00 0.  1.
          4   -1    0    0  502    0  0.00000000000E+00 -0.00000000000E+00 -0.56408454517E+03  0.56408454517E+03  0.00000000000E+00 0. -1.
         23    2    1    2    0    0  0.44039358545E+01 -0.68861694911E+02 -0.16988590171E+03  0.20543225871E+03  0.92627564143E+02 0.  0.
         23    2    1    2    0    0 -0.17968047189E+02  0.46321977144E+02 -0.35656118418E+03  0.37138400971E+03  0.91222959391E+02 0.  0.
        -11    1    3    3    0    0 -0.21088074617E+02 -0.60018883313E+02 -0.45649953247E+02  0.78300009430E+02  0.00000000000E+00 0.  1.
         11    1    3    3    0    0  0.25492010471E+02 -0.88428115982E+01 -0.12423594847E+03  0.12713224928E+03  0.00000000000E+00 0. -1.
        -13    1    4    4    0    0  0.30341009858E+02  0.46211189572E+02 -0.20393324990E+03  0.21129321176E+03  0.00000000000E+00 0. -1.
         13    1    4    4    0    0 -0.48309057047E+02  0.11078757203E+00 -0.15262793428E+03  0.16009079795E+03  0.00000000000E+00 0.  1.
         21    1    1    2  502  501  0.13564111335E+02  0.22539717768E+02  0.14399957126E+01  0.26345731742E+02  0.00000000000E+00 0.  1.
<scales pt_clust_5="13000.00000" pt_clust_6="13000.00000" pt_clust_7="13000.00000" pt_clust_8="13000.00000" pt_clust_9="26.30635"></scales>
<clustering>
<clus scale="   26.306">  1  9  2 -1</clus>
<clus scale="   91.223">  7  8 -1 -1</clus>
<clus scale="   92.628">  5  6 -1 -1</clus>
<clus scale="  106.401">  2  7  1 -1</clus>
<clus scale="  106.401">  2  5  1 -1</clus>
</clustering>
</event>
<event>
 9    1  0.1484717E-005  0.1110634E+03  0.7546771E-02  0.1260558E+00
          1   -1    0    0  502    0  0.00000000000E+00  0.00000000000E+00  0.17562391767E+03  0.17562391767E+03  0.00000000000E+00 0. -1.
         -1   -1    0    0    0  501 -0.00000000000E+00 -0.00000000000E+00 -0.38874185037E+03  0.38874185037E+03  0.00000000000E+00 0.  1.
         23    2    1    2    0    0 -0.48738450468E+02 -0.96359084498E+00 -0.22745308522E+03  0.25042568512E+03  0.92745634579E+02 0.  0.
         23    2    1    2    0    0  0.49159472117E+02 -0.21966572219E+02  0.14411461037E+03  0.18214980514E+03  0.97521005916E+02 0.  0.
        -11    1    3    3    0    0  0.42936627017E+01  0.26296456492E+02 -0.15168938373E+03  0.15401171481E+03  0.00000000000E+00 0.  1.
         11    1    3    3    0    0 -0.53032113170E+02 -0.27260047337E+02 -0.75763701491E+02  0.96413970314E+02  0.00000000000E+00 0. -1.
        -13    1    4    4    0    0 -0.23693451666E+02 -0.18657646040E+02  0.78330864927E+02  0.83935760007E+02  0.00000000000E+00 0.  1.
         13    1    4    4    0    0  0.72852923783E+02 -0.33089261792E+01  0.65783745446E+02  0.98214045132E+02  0.00000000000E+00 0. -1.
         21    1    1    2  502  501 -0.42102164928E+00  0.22930163064E+02 -0.12977945785E+03  0.13179027778E+03  0.00000000000E+00 0.  1.
<scales pt_clust_5="13000.00000" pt_clust_6="13000.00000" pt_clust_7="13000.00000" pt_clust_8="13000.00000" pt_clust_9="22.93403"></scales>
<clustering>
<clus scale="   22.934">  2  9  1 -1</clus>
<clus scale="   92.746">  5  6 -1 -1</clus>
<clus scale="   97.521">  7  8 -1 -1</clus>
<clus scale="  106.895">  2  5  1 -1</clus>
<clus scale="  111.063">  1  5  2 -1</clus>
</clustering>
</event>
<event>
 9    1  0.1484717E-005  0.9591286E+02  0.7546771E-02  0.1289296E+00
         -1   -1    0    0    0  501 -0.00000000000E+00  0.00000000000E+00  0.22869769195E+03  0.22869769195E+03  0.00000000000E+00 0.  1.
          1   -1    0    0  502    0  0.00000000000E+00 -0.00000000000E+00 -0.30299150658E+03  0.30299150658E+03  0.00000000000E+00 0. -1.
         23    2    1    2    0    0  0.63121194383E+01  0.47606304905E+02  0.86475739081E+02  0.13470270950E+03  0.91436116380E+02 0.  0.
         23    2    1    2    0    0 -0.27054456841E+02  0.16117425227E+02 -0.25985452200E+03  0.27736713739E+03  0.91741164539E+02 0.  0.
        -11    1    4    4    0    0 -0.48754438100E+02  0.34589271036E+02 -0.11366169778E+03  0.12842271780E+03  0.00000000000E+00 0. -1.
         11    1    4    4    0    0  0.21699981258E+02 -0.18471845809E+02 -0.14619282422E+03  0.14894441959E+03  0.00000000000E+00 0.  1.
        -11    1    3    3    0    0 -0.25018051382E+02  0.24413969145E+02 -0.49583644644E+01  0.35306234046E+02  0.00000000000E+00 0. -1.
         11    1    3    3    0    0  0.31330170820E+02  0.23192335760E+02  0.91434103545E+02  0.99396475454E+02  0.00000000000E+00 0.  1.
         21    1    1    2  502  501  0.20742337403E+02 -0.63723730132E+02  0.99084968290E+02  0.11961935163E+03  0.00000000000E+00 0.  1.
<scales pt_clust_5="13000.00000" pt_clust_6="13000.00000" pt_clust_7="13000.00000" pt_clust_8="13000.00000" pt_clust_9="67.01461"></scales>
<clustering>
<clus scale="   67.015">  1  9  2 -1</clus>
<clus scale="   91.436">  7  8 -1 -1</clus>
<clus scale="   91.741">  5  6 -1 -1</clus>
<clus scale="   95.621">  1  7  2 -1</clus>
<clus scale="   95.913">  2  5  1 -1</clus>
</clustering>
</event>
<event>
 9    1  0.1484717E-005  0.2356963E+03  0.7546771E-02  0.1122789E+00
          1   -1    0    0  502    0  0.00000000000E+00  0.00000000000E+00  0.12163632763E+03  0.12163632763E+03  0.00000000000E+00 0. -1.
         -1   -1    0    0    0  501 -0.00000000000E+00 -0.00000000000E+00 -0.76854448226E+03  0.76854448226E+03  0.00000000000E+00 0.  1.
         23    2    1    2    0    0 -0.19360982419E+03 -0.78469763821E+02 -0.40446258142E+03  0.46402617387E+03  0.89933544406E+02 0.  0.
         23    2    1    2    0    0  0.19255683653E+03  0.10791521112E+03 -0.66815328588E+02  0.24807003260E+03  0.91381753401E+02 0.  0.
        -13    1    3    3    0    0 -0.41331363601E+02 -0.52875242001E+02 -0.17517231723E+03  0.18758841531E+03  0.00000000000E+00 0.  1.
         13    1    3    3    0    0 -0.15227846058E+03 -0.25594521820E+02 -0.22929026419E+03  0.27643775856E+03  0.00000000000E+00 0. -1.
        -13    1    4    4    0    0  0.34182740804E+02 -0.79956380650E+00  0.17352009450E+02  0.38343073730E+02  0.00000000000E+00 0.  1.
         13    1    4    4    0    0  0.15837409573E+03  0.10871477493E+03 -0.84167338038E+02  0.20972695887E+03  0.00000000000E+00 0. -1.
         21    1    1    2  502  501  0.10529876542E+01 -0.29445447301E+02 -0.17563024462E+03  0.17808460342E+03  0.00000000000E+00 0.  1.
<scales pt_clust_5="13000.00000" pt_clust_6="13000.00000" pt_clust_7="13000.00000" pt_clust_8="13000.00000" pt_clust_9="29.46427"></scales>
<clustering>
<clus scale="   29.464">  2  9  1 -1</clus>
<clus scale="   89.934">  5  6 -1 -1</clus>
<clus scale="   91.382">  7  8 -1 -1</clus>
<clus scale="  235.139">  2  5  1 -1</clus>
<clus scale="  235.696">  1  5  2 -1</clus>
</clustering>
</event>
<event>
 9    1  0.1484717E-005  0.9896592E+02  0.7546771E-02  0.1284121E+00
         -2   -1    0    0    0  501 -0.00000000000E+00  0.00000000000E+00  0.34254796343E+03  0.34254796343E+03  0.00000000000E+00 0.  1.
          2   -1    0    0  502    0  0.00000000000E+00 -0.00000000000E+00 -0.16104079941E+03  0.16104079941E+03  0.00000000000E+00 0. -1.
         23    2    1    2    0    0  0.25435639245E+02 -0.35060629953E+02  0.25935376737E+02  0.10512515520E+03  0.92208649119E+02 0.  0.
         23    2    1    2    0    0 -0.26550789791E+02 -0.45713649851E+02 -0.91739134758E+02  0.13829362475E+03  0.88962776369E+02 0.  0.
        -11    1    4    4    0    0 -0.17879427769E+02  0.22326041072E+02 -0.73243988351E+01  0.29525799999E+02  0.00000000000E+00 0.  1.
         11    1    4    4    0    0 -0.86713620217E+01 -0.68039690923E+02 -0.84414735923E+02  0.10876782475E+03  0.00000000000E+00 0. -1.
        -13    1    3    3    0    0  0.58292120751E+02 -0.36705034676E+02  0.15450102779E+02  0.70597001268E+02  0.00000000000E+00 0. -1.
         13    1    3    3    0    0 -0.32856481505E+02  0.16444047233E+01  0.10485273958E+02  0.34528153930E+02  0.00000000000E+00 0.  1.
         21    1    1    2  502  501  0.11151505455E+01  0.80774279804E+02  0.24731092204E+03  0.26016998289E+03  0.00000000000E+00 0.  1.
<scales pt_clust_5="13000.00000" pt_clust_6="13000.00000" pt_clust_7="13000.00000" pt_clust_8="13000.00000" pt_clust_9="80.78198"></scales>
<clustering>
<clus scale="   80.782">  1  9  2 -1</clus>
<clus scale="   88.963">  5  6 -1 -1</clus>
<clus scale="   92.209">  7  8 -1 -1</clus>
<clus scale="   95.949">  2  5  1 -1</clus>
<clus scale="   95.949">  2  5  1 -1</clus>
</clustering>
</event>
<event>
 9    1  0.1484717E-005  0.1240865E+03  0.7546771E-02  0.1237610E+00
         -2   -1    0    0    0  501 -0.00000000000E+00  0.00000000000E+00  0.63245386292E+02  0.63245386292E+02  0.00000000000E+00 0.  1.
          2   -1    0    0  502    0  0.00000000000E+00 -0.00000000000E+00 -0.49745342640E+03  0.49745342640E+03  0.00000000000E+00 0. -1.
         23    2    1    2    0    0 -0.94517991701E+02  0.35130578215E+02 -0.50609698808E+02  0.14552893940E+03  0.91921283225E+02 0.  0.
         23    2    1    2    0    0  0.70105548405E+02 -0.38646351396E+02 -0.36597047406E+03  0.38485371007E+03  0.88145685527E+02 0.  0.
        -11    1    4    4    0    0 -0.20656918354E+02 -0.12715536370E+02 -0.88638571361E+02  0.91897712017E+02  0.00000000000E+00 0.  1.
         11    1    4    4    0    0  0.90762466759E+02 -0.25930815026E+02 -0.27733190270E+03  0.29295599805E+03  0.00000000000E+00 0. -1.
        -11    1    3    3    0    0 -0.83247355375E+02 -0.41970482411E+01 -0.39111890586E+01  0.83444800861E+02  0.00000000000E+00 0.  1.
         11    1    3    3    0    0 -0.11270636326E+02  0.39327626456E+02 -0.46698509750E+02  0.62084138544E+02  0.00000000000E+00 0. -1.
         21    1    1    2  502  501  0.24412443296E+02  0.35157731811E+01 -0.17627867233E+02  0.30316163213E+02  0.00000000000E+00 0.  1.
<scales pt_clust_5="13000.00000" pt_clust_6="13000.00000" pt_clust_7="13000.00000" pt_clust_8="13000.00000" pt_clust_9="24.66431"></scales>
<clustering>
<clus scale="   24.664">  1  9  2 -1</clus>
<clus scale="   88.146">  5  6 -1 -1</clus>
<clus scale="   91.921">  7  8 -1 -1</clus>
<clus scale="  121.316">  2  5  1 -1</clus>
<clus scale="  121.316">  2  5  1 -1</clus>
</clustering>
</event>
<event>
 9    1  0.1484717E-005  0.2209301E+03  0.7546771E-02  0.1133231E+00
         -1   -1    0    0    0  501 -0.00000000000E+00  0.00000000000E+00  0.12082797662E+03  0.12082797662E+03  0.00000000000E+00 0.  1.
          1   -1    0    0  502    0  0.00000000000E+00 -0.00000000000E+00 -0.62890835408E+03  0.62890835408E+03  0.00000000000E+00 0. -1.
         23    2    1    2    0    0  0.17568480475E+03 -0.96974583142E+02 -0.14920775993E+03  0.26629437504E+03  0.91545170037E+02 0.  0.
         23    2    1    2    0    0 -0.14618259513E+03  0.14196664065E+03 -0.36649442864E+03  0.42910267322E+03  0.91033289362E+02 0.  0.
        -11    1    4    4    0    0 -0.11564230507E+03  0.15134117040E+03 -0.32549414361E+03  0.37712561581E+03  0.00000000000E+00 0. -1.
         11    1    4    4    0    0 -0.30540290054E+02 -0.93745297504E+01 -0.41000285029E+02  0.51977057411E+02  0.00000000000E+00 0.  1.
        -13    1    3    3    0    0  0.95150150108E+02 -0.89982513641E+00 -0.67145903256E+02  0.11646000633E+03  0.00000000000E+00 0.  1.
         13    1    3    3    0    0  0.80534654641E+02 -0.96074758005E+02 -0.82061856675E+02  0.14983436870E+03  0.00000000000E+00 0. -1.
         21    1    1    2  502  501 -0.29502209624E+02 -0.44992057505E+02  0.76218111020E+01  0.54339282436E+02  0.00000000000E+00 0. -1.
<scales pt_clust_5="13000.00000" pt_clust_6="13000.00000" pt_clust_7="13000.00000" pt_clust_8="13000.00000" pt_clust_9="53.80210"></scales>
<clustering>
<clus scale="   53.802">  1  9  2 -1</clus>
<clus scale="   91.033">  5  6 -1 -1</clus>
<clus scale="   91.545">  7  8 -1 -1</clus>
<clus scale="  220.718">  2  5  1 -1</clus>
<clus scale="  220.718">  2  5  1 -1</clus>
</clustering>
</event>
<event>
 9    1  0.1484717E-005  0.1466578E+03  0.7546771E-02  0.1208675E+00
         -2   -1    0    0    0  501 -0.00000000000E+00  0.00000000000E+00  0.93531214907E+02  0.93531214907E+02  0.00000000000E+00 0.  1.
          2   -1    0    0  502    0  0.00000000000E+00 -0.00000000000E+00 -0.27974084509E+03  0.27974084509E+03  0.00000000000E+00 0. -1.
         23    2    1    2    0    0  0.63361940815E+02 -0.82917697670E+02 -0.31541611540E+02  0.15378585505E+03  0.10846721082E+03 0.  0.
         23    2    1    2    0    0 -0.69351391896E+02  0.57722197751E+02 -0.13896352326E+03  0.18919894830E+03  0.91345024874E+02 0.  0.
        -11    1    3    3    0    0  0.41459872723E+02 -0.97968152872E+02 -0.53718156276E+02  0.11917348840E+03  0.00000000000E+00 0. -1.
         11    1    3    3    0    0  0.21902068092E+02  0.15050455202E+02  0.22176544736E+02  0.34612366648E+02  0.00000000000E+00 0.  1.
        -13    1    4    4    0    0 -0.50471810375E+02  0.25636730672E+02 -0.13319155655E+02  0.58155356671E+02  0.00000000000E+00 0.  1.
         13    1    4    4    0    0 -0.18879581521E+02  0.32085467078E+02 -0.12564436760E+03  0.13104359163E+03  0.00000000000E+00 0. -1.
         21    1    1    2  502  501  0.59894510807E+01  0.25195499919E+02 -0.15704495391E+02  0.30287256658E+02  0.00000000000E+00 0. -1.
<scales pt_clust_5="13000.00000" pt_clust_6="13000.00000" pt_clust_7="13000.00000" pt_clust_8="13000.00000" pt_clust_9="25.89762"></scales>
<clustering>
<clus scale="   25.898">  2  9  1 -1</clus>
<clus scale="   91.345">  7  8 -1 -1</clus>
<clus scale="  108.467">  5  6 -1 -1</clus>
<clus scale="  134.489">  2  7  1 -1</clus>
<clus scale="   25.898">  2  5  1 -1</clus>
</clustering>
</event>
<event>
 9    1  0.1484717E-005  0.1263780E+03  0.7546771E-02  0.1233985E+00
         -1   -1    0    0    0  501 -0.00000000000E+00  0.00000000000E+00  0.12353322413E+03  0.12353322413E+03  0.00000000000E+00 0.  1.
          1   -1    0    0  502    0  0.00000000000E+00 -0.00000000000E+00 -0.46580922100E+03  0.46580922100E+03  0.00000000000E+00 0. -1.
         23    2    1    2    0    0 -0.69330881955E+02  0.36716831261E+02  0.51070227843E+02  0.12767713117E+03  0.86823872066E+02 0.  0.
         23    2    1    2    0    0  0.89906593689E+02 -0.28237455504E+01 -0.40138607799E+03  0.42120866540E+03  0.90635462578E+02 0.  0.
        -11    1    3    3    0    0  0.10163930166E+01  0.28943688518E+02  0.48942793395E+02  0.56869738746E+02  0.00000000000E+00 0. -1.
         11    1    3    3    0    0 -0.70347274972E+02  0.77731427426E+01  0.21274344481E+01  0.70807392420E+02  0.00000000000E+00 0.  1.
        -13    1    4    4    0    0  0.77483641380E+02 -0.40823215135E+02 -0.26640273142E+03  0.28042942942E+03  0.00000000000E+00 0. -1.
         13    1    4    4    0    0  0.12422952309E+02  0.37999469584E+02 -0.13498334657E+03  0.14077923598E+03  0.00000000000E+00 0.  1.
         21    1    1    2  502  501 -0.20575711734E+02 -0.33893085710E+02  0.80398532812E+01  0.40456648565E+02  0.00000000000E+00 0. -1.
<scales pt_clust_5="13000.00000" pt_clust_6="13000.00000" pt_clust_7="13000.00000" pt_clust_8="13000.00000" pt_clust_9="39.64973"></scales>
<clustering>
<clus scale="   39.650">  1  9  2 -1</clus>
<clus scale="   86.824">  5  6 -1 -1</clus>
<clus scale="   90.635">  7  8 -1 -1</clus>
<clus scale="  123.673">  1  5  2 -1</clus>
<clus scale="  126.378">  2  5  1 -1</clus>
</clustering>
</event>
<event>
 9    1  0.1484717E-005  0.9771710E+02  0.7546771E-02  0.1287537E+00
          2   -1    0    0  502    0  0.00000000000E+00  0.00000000000E+00  0.26633678966E+03  0.26633678966E+03  0.00000000000E+00 0. -1.
         -2   -1    0    0    0  501 -0.00000000000E+00 -0.00000000000E+00 -0.15829413764E+03  0.15829413764E+03  0.00000000000E+00 0.  1.
         23    2    1    2    0    0  0.10497234385E+02  0.61387787203E+01 -0.46284240159E+02  0.10678249762E+03  0.95458862223E+02 0.  0.
         23    2    1    2    0    0 -0.92957802122E+01  0.21707926462E+02  0.22391489270E+03  0.24288595708E+03  0.91093706529E+02 0.  0.
        -13    1    3    3    0    0 -0.15147515687E+02 -0.30126596015E+02 -0.52024203756E+02  0.61996586966E+02  0.00000000000E+00 0.  1.
         13    1    3    3    0    0  0.25644750072E+02  0.36265374736E+02  0.57399635974E+01  0.44785910654E+02  0.00000000000E+00 0. -1.
        -13    1    4    4    0    0 -0.17301682226E+02 -0.25262108568E+02  0.28792123372E+02  0.42029854929E+02  0.00000000000E+00 0.  1.
         13    1    4    4    0    0  0.80059020133E+01  0.46970035030E+02  0.19512276933E+03  0.20085610215E+03  0.00000000000E+00 0. -1.
         21    1    1    2  502  501 -0.12014541733E+01 -0.27846705182E+02 -0.69588000525E+02  0.74962472602E+02  0.00000000000E+00 0. -1.
<scales pt_clust_5="13000.00000" pt_clust_6="13000.00000" pt_clust_7="13000.00000" pt_clust_8="13000.00000" pt_clust_9="27.87261"></scales>
<clustering>
<clus scale="   27.873">  2  9  1 -1</clus>
<clus scale="   91.094">  7  8 -1 -1</clus>
<clus scale="   93.457">  1  7  2 -1</clus>
<clus scale="   95.459">  5  6 -1 -1</clus>
<clus scale="   93.457">  1  5  2 -1</clus>
</clustering>
</event>
<event>
 9    1  0.1484717E-005  0.1084238E+03  0.7546771E-02  0.1264758E+00
         -1   -1    0    0    0  501 -0.00000000000E+00  0.00000000000E+00  0.28327260901E+03  0.28327260901E+03  0.00000000000E+00 0.  1.
          1   -1    0    0  502    0  0.00000000000E+00 -0.00000000000E+00 -0.79773756236E+02  0.79773756236E+02  0.00000000000E+00 0. -1.
         23    2    1    2    0    0  0.68572600260E+02  0.85129834351E+01  0.11390223268E+03  0.16127526782E+03  0.90891809347E+02 0.  0.
         23    2    1    2    0    0 -0.47475325062E+02 -0.11229742306E+02 -0.38955729417E+01  0.10588957701E+03  0.93901083214E+02 0.  0.
        -11    1    4    4    0    0 -0.75457189300E+02 -0.15185637860E+02  0.21074822322E+01  0.76998912301E+02  0.00000000000E+00 0.  1.
         11    1    4    4    0    0  0.27981864238E+02  0.39558955539E+01 -0.60030551739E+01  0.28890664708E+02  0.00000000000E+00 0. -1.
        -11    1    3    3    0    0  0.31444317047E+02 -0.25240214467E+02  0.40729998601E+01  0.40526569418E+02  0.00000000000E+00 0. -1.
         11    1    3    3    0    0  0.37128283213E+02  0.33753197902E+02  0.10982923282E+03  0.12074869840E+03  0.00000000000E+00 0.  1.
         21    1    1    2  502  501 -0.21097275198E+02  0.27167588706E+01  0.93492193035E+02  0.95881520420E+02  0.00000000000E+00 0.  1.
<scales pt_clust_5="13000.00000" pt_clust_6="13000.00000" pt_clust_7="13000.00000" pt_clust_8="13000.00000" pt_clust_9="21.27148"></scales>
<clustering>
<clus scale="   21.271">  1  9  2 -1</clus>
<clus scale="   90.892">  7  8 -1 -1</clus>
<clus scale="   93.901">  5  6 -1 -1</clus>
<clus scale="  105.828">  1  7  2 -1</clus>
<clus scale="  108.424">  2  5  1 -1</clus>
</clustering>
</event>
<event>
 9    1  0.1484717E-005  0.9626501E+02  0.7546771E-02  0.1290219E+00
         -1   -1    0    0    0  501 -0.00000000000E+00  0.00000000000E+00  0.25064707155E+03  0.25064707155E+03  0.00000000000E+00 0.  1.
          1   -1    0    0  502    0  0.00000000000E+00 -0.00000000000E+00 -0.62866583154E+02  0.62866583154E+02  0.00000000000E+00 0. -1.
         23    2    1    2    0    0  0.15302279995E+02 -0.28262136396E+02  0.44173341456E+02  0.10612101001E+03  0.90980638289E+02 0.  0.
         23    2    1    2    0    0 -0.13085421901E+02 -0.33826687042E+01  0.48136347362E+02  0.10678955467E+03  0.94362229393E+02 0.  0.
        -11    1    4    4    0    0 -0.15730525546E+02 -0.31166923504E+02  0.65284153193E+02  0.74032744193E+02  0.00000000000E+00 0. -1.
         11    1    4    4    0    0  0.26451036451E+01  0.27784254799E+02 -0.17147805831E+02  0.32756810481E+02  0.00000000000E+00 0.  1.
        -11    1    3    3    0    0  0.29582984717E+02  0.24652036794E+02  0.31783575919E+02  0.49930667942E+02  0.00000000000E+00 0.  1.
         11    1    3    3    0    0 -0.14280704722E+02 -0.52914173190E+02  0.12389765537E+02  0.56190342069E+02  0.00000000000E+00 0. -1.
         21    1    1    2  502  501 -0.22168580946E+01  0.31644805100E+02  0.95470799581E+02  0.10060309002E+03  0.00000000000E+00 0.  1.
<scales pt_clust_5="13000.00000" pt_clust_6="13000.00000" pt_clust_7="13000.00000" pt_clust_8="13000.00000" pt_clust_9="31.72236"></scales>
<clustering>
<clus scale="   31.722">  1  9  2 -1</clus>
<clus scale="   90.981">  7  8 -1 -1</clus>
<clus scale="   92.953">  1  7  2 -1</clus>
<clus scale="   94.362">  5  6 -1 -1</clus>
<clus scale="   96.265">  2  5  1 -1</clus>
</clustering>
</event>
<event>
 9    1  0.1484717E-005  0.1043776E+03  0.7546771E-02  0.1271365E+00
          2   -1    0    0  502    0  0.00000000000E+00  0.00000000000E+00  0.17016015885E+03  0.17016015885E+03  0.00000000000E+00 0. -1.
         -2   -1    0    0    0  501 -0.00000000000E+00 -0.00000000000E+00 -0.89112836877E+02  0.89112836877E+02  0.00000000000E+00 0.  1.
         23    2    1    2    0    0  0.53055213903E+02  0.15896889907E+02  0.18566939145E+02  0.10700846252E+03  0.89657754775E+02 0.  0.
         23    2    1    2    0    0 -0.53478248878E+02  0.53960595540E+01  0.73953461449E+02  0.12807362193E+03  0.89692238300E+02 0.  0.
        -11    1    4    4    0    0  0.58558901219E+01  0.36835035637E+02  0.29349845666E+02  0.47460770538E+02  0.00000000000E+00 0.  1.
         11    1    4    4    0    0 -0.59334139000E+02 -0.31438976083E+02  0.44603615783E+02  0.80612851388E+02  0.00000000000E+00 0. -1.
        -13    1    3    3    0    0  0.51099167262E+02 -0.29613947589E+02  0.40523367401E+01  0.59199089686E+02  0.00000000000E+00 0.  1.
         13    1    3    3    0    0  0.19560466411E+01  0.45510837496E+02  0.14514602405E+02  0.47809372836E+02  0.00000000000E+00 0. -1.
         21    1    1    2  502  501  0.42303497566E+00 -0.21292949461E+02 -0.11473078621E+02  0.24190911277E+02  0.00000000000E+00 0.  1.
<scales pt_clust_5="13000.00000" pt_clust_6="13000.00000" pt_clust_7="13000.00000" pt_clust_8="13000.00000" pt_clust_9="21.29715"></scales>
<clustering>
<clus scale="   21.297">  2  9  1 -1</clus>
<clus scale="   89.658">  7  8 -1 -1</clus>
<clus scale="   89.692">  5  6 -1 -1</clus>
<clus scale="  104.348">  2  7  1 -1</clus>
<clus scale="  104.378">  1  5  2 -1</clus>
</clustering>
</event>
<event>
 9    1  0.1484717E-005  0.1008862E+03  0.7546771E-02  0.1280590E+00
         -2   -1    0    0    0  501 -0.00000000000E+00  0.00000000000E+00  0.24071137312E+02  0.24071137312E+02  0.00000000000E+00 0.  1.
          2   -1    0    0  502    0  0.00000000000E+00 -0.00000000000E+00 -0.59398342078E+03  0.59398342078E+03  0.00000000000E+00 0. -1.
         23    2    1    2    0    0 -0.42368526601E+02  0.17600019070E+02 -0.24524642562E+03  0.26685208202E+03  0.94653957548E+02 0.  0.
         23    2    1    2    0    0  0.20638071424E+02 -0.20079072868E+02 -0.31164532349E+03  0.32574873952E+03  0.90334569703E+02 0.  0.
        -11    1    3    3    0    0 -0.21604644873E+02  0.43610404394E+02 -0.21934394467E+03  0.22467842379E+03  0.00000000000E+00 0. -1.
         11    1    3    3    0    0 -0.20763881728E+02 -0.26010385324E+02 -0.25902480948E+02  0.42173658229E+02  0.00000000000E+00 0.  1.
        -13    1    4    4    0    0 -0.59894599231E+01 -0.48573783732E+02 -0.11043851948E+03  0.12079715510E+03  0.00000000000E+00 0.  1.
         13    1    4    4    0    0  0.26627531347E+02  0.28494710865E+02 -0.20120680401E+03  0.20495158442E+03  0.00000000000E+00 0. -1.
         21    1    1    2  502  501  0.21730455178E+02  0.24790537978E+01 -0.13020534359E+02  0.25453736562E+02  0.00000000000E+00 0. -1.
<scales pt_clust_5="13000.00000" pt_clust_6="13000.00000" pt_clust_7="13000.00000" pt_clust_8="13000.00000" pt_clust_9="21.87141"></scales>
<clustering>
<clus scale="   21.871">  1  9  2 -1</clus>
<clus scale="   90.335">  7  8 -1 -1</clus>
<clus scale="   94.654">  5  6 -1 -1</clus>
<clus scale="   96.845">  2  7  1 -1</clus>
<clus scale="   96.845">  2  5  1 -1</clus>
</clustering>
</event>
<event>
 9    1  0.1484717E-005  0.1009436E+03  0.7546771E-02  0.1278947E+00
         -1   -1    0    0    0  501 -0.00000000000E+00  0.00000000000E+00  0.79174017898E+02  0.79174017898E+02  0.00000000000E+00 0.  1.
          1   -1    0    0  502    0  0.00000000000E+00 -0.00000000000E+00 -0.34841941728E+03  0.34841941728E+03  0.00000000000E+00 0. -1.
         23    2    1    2    0    0 -0.33148046472E+02  0.68650382775E+02 -0.24830698195E+02  0.12137958024E+03  0.91130515673E+02 0.  0.
         23    2    1    2    0    0  0.22898681266E+02 -0.24994699783E+02 -0.24205226117E+03  0.26130896358E+03  0.92433720527E+02 0.  0.
        -11    1    3    3    0    0  0.15801901610E+02 -0.14042183957E+02  0.29632335460E+01  0.21346282529E+02  0.00000000000E+00 0. -1.
         11    1    3    3    0    0 -0.48949948082E+02  0.82692566732E+02 -0.27793931741E+02  0.10003329771E+03  0.00000000000E+00 0.  1.
        -11    1    4    4    0    0  0.35865734963E+01 -0.57866120723E+02 -0.11704478731E+03  0.13061712626E+03  0.00000000000E+00 0.  1.
         11    1    4    4    0    0  0.19312107770E+02  0.32871420940E+02 -0.12500747386E+03  0.13069183732E+03  0.00000000000E+00 0. -1.
         21    1    1    2  502  501  0.10249365205E+02 -0.43655682992E+02 -0.23624400193E+01  0.44904891354E+02  0.00000000000E+00 0. -1.
<scales pt_clust_5="13000.00000" pt_clust_6="13000.00000" pt_clust_7="13000.00000" pt_clust_8="13000.00000" pt_clust_9="44.84270"></scales>
<clustering>
<clus scale="   44.843">  1  9  2 -1</clus>
<clus scale="   91.131">  5  6 -1 -1</clus>
<clus scale="   92.434">  7  8 -1 -1</clus>
<clus scale="   99.752">  1  5  2 -1</clus>
<clus scale="  100.944">  2  5  1 -1</clus>
</clustering>
</event>
<event>
 9    1  0.1484717E-005  0.1240761E+03  0.7546771E-02  0.1236816E+00
          2   -1    0    0  502    0  0.00000000000E+00  0.00000000000E+00  0.42068352160E+03  0.42068352160E+03  0.00000000000E+00 0. -1.
         -2   -1    0    0    0  501 -0.00000000000E+00 -0.00000000000E+00 -0.16257465140E+03  0.16257465140E+03  0.00000000000E+00 0.  1.
         23    2    1    2    0    0  0.92976908366E+02  0.61988106860E+01  0.12706331454E+03  0.18138435074E+03  0.89844677349E+02 0.  0.
         23    2    1    2    0    0 -0.78314880630E+02  0.24323215588E+02  0.24991336452E+03  0.27827719962E+03  0.90866224298E+02 0.  0.
        -11    1    3    3    0    0  0.53709572942E+02 -0.40666494440E+02  0.55714084328E+02  0.87421628835E+02  0.00000000000E+00 0.  1.
         11    1    3    3    0    0  0.39267335424E+02  0.46865305126E+02  0.71349230215E+02  0.93962721906E+02  0.00000000000E+00 0. -1.
        -11    1    4    4    0    0 -0.64527216570E+02 -0.26479394985E+02  0.14069014100E+03  0.15703068430E+03  0.00000000000E+00 0.  1.
         11    1    4    4    0    0 -0.13787664060E+02  0.50802610573E+02  0.10922322352E+03  0.12124651532E+03  0.00000000000E+00 0. -1.
         21    1    1    2  502  501 -0.14662027735E+02 -0.30522026274E+02 -0.11886780886E+03  0.12359662264E+03  0.00000000000E+00 0.  1.
<scales pt_clust_5="13000.00000" pt_clust_6="13000.00000" pt_clust_7="13000.00000" pt_clust_8="13000.00000" pt_clust_9="33.86103"></scales>
<clustering>
<clus scale="   33.861">  2  9  1 -1</clus>
<clus scale="   89.845">  5  6 -1 -1</clus>
<clus scale="   90.866">  7  8 -1 -1</clus>
<clus scale="  123.330">  2  5  1 -1</clus>
<clus scale="  124.076">  1  5  2 -1</clus>
</clustering>
</event>
<event>
 9    1  0.1484717E-005  0.9243425E+02  0.7546771E-02  0.1297277E+00
         -1   -1    0    0    0  501 -0.00000000000E+00  0.00000000000E+00  0.30670706233E+02  0.30670706233E+02  0.00000000000E+00 0.  1.
          1   -1    0    0  502    0  0.00000000000E+00 -0.00000000000E+00 -0.46812287144E+03  0.46812287144E+03  0.00000000000E+00 0. -1.
         23    2    1    2    0    0  0.89427657194E+01  0.48254914804E+02 -0.16674403402E+03  0.19490382146E+03  0.88178324310E+02 0.  0.
         23    2    1    2    0    0 -0.88413332403E+01 -0.13978666269E+02 -0.24576338500E+03  0.26149740001E+03  0.87793374005E+02 0.  0.
        -11    1    4    4    0    0 -0.31996161577E+02  0.26937372662E+02 -0.12955953693E+03  0.13614349052E+03  0.00000000000E+00 0. -1.
         11    1    4    4    0    0  0.23154828337E+02 -0.40916038931E+02 -0.11620384808E+03  0.12535390949E+03  0.00000000000E+00 0.  1.
        -11    1    3    3    0    0 -0.16755415825E+02  0.63255090593E+02 -0.80916303689E+02  0.10406439664E+03  0.00000000000E+00 0. -1.
         11    1    3    3    0    0  0.25698181544E+02 -0.15000175789E+02 -0.85827730330E+02  0.90839424822E+02  0.00000000000E+00 0.  1.
         21    1    1    2  502  501 -0.10143247911E+00 -0.34276248535E+02 -0.24944746189E+02  0.42392356206E+02  0.00000000000E+00 0.  1.
<scales pt_clust_5="13000.00000" pt_clust_6="13000.00000" pt_clust_7="13000.00000" pt_clust_8="13000.00000" pt_clust_9="34.27640"></scales>
<clustering>
<clus scale="   34.276">  1  9  2 -1</clus>
<clus scale="   87.793">  5  6 -1 -1</clus>
<clus scale="   88.178">  7  8 -1 -1</clus>
<clus scale="   92.067">  2  5  1 -1</clus>
<clus scale="   92.067">  2  5  1 -1</clus>
</clustering>
</event>
<event>
 9    1  0.1484717E-005  0.1045207E+03  0.7546771E-02  0.1272525E+00
          1   -1    0    0  502    0  0.00000000000E+00  0.00000000000E+00  0.46536877064E+03  0.46536877064E+03  0.00000000000E+00 0. -1.
         -1   -1    0    0    0  501 -0.00000000000E+00 -0.00000000000E+00 -0.30429412228E+02  0.30429412228E+02  0.00000000000E+00 0.  1.
         23    2    1    2    0    0  0.50670941997E+02  0.24747577789E+02  0.17925727695E+03  0.20961144315E+03  0.92864410768E+02 0.  0.
         23    2    1    2    0    0 -0.43575898384E+02 -0.38266054545E+01  0.23749226696E+03  0.25757037939E+03  0.89590298828E+02 0.  0.
        -11    1    3    3    0    0 -0.55453218803E+01  0.27141691239E+02  0.72506534149E+01  0.28635536890E+02  0.00000000000E+00 0. -1.
         11    1    3    3    0    0  0.56216263877E+02 -0.23941134502E+01  0.17200662354E+03  0.18097590626E+03  0.00000000000E+00 0.  1.
        -13    1    4    4    0    0  0.16217495163E+02 -0.28696441730E+02  0.57432918048E+02  0.66219581642E+02  0.00000000000E+00 0.  1.
         13    1    4    4    0    0 -0.59793393547E+02  0.24869836276E+02  0.18005934891E+03  0.19135079775E+03  0.00000000000E+00 0. -1.
         21    1    1    2  502  501 -0.70950436129E+01 -0.20920972334E+02  0.18189814500E+02  0.28616360335E+02  0.00000000000E+00 0.  1.
<scales pt_clust_5="13000.00000" pt_clust_6="13000.00000" pt_clust_7="13000.00000" pt_clust_8="13000.00000" pt_clust_9="22.09133"></scales>
<clustering>
<clus scale="   22.091">  2  9  1 -1</clus>
<clus scale="   89.590">  7  8 -1 -1</clus>
<clus scale="   92.864">  5  6 -1 -1</clus>
<clus scale="  101.623">  1  7  2 -1</clus>
<clus scale="  101.623">  1  5  2 -1</clus>
</clustering>
</event>
<event>
 9    1  0.1484717E-005  0.1801966E+03  0.7546771E-02  0.1167627E+00
         -3   -1    0    0    0  501 -0.00000000000E+00  0.00000000000E+00  0.22831884685E+03  0.22831884685E+03  0.00000000000E+00 0.  1.
          3   -1    0    0  502    0  0.00000000000E+00 -0.00000000000E+00 -0.47608379197E+03  0.47608379197E+03  0.00000000000E+00 0. -1.
         23    2    1    2    0    0  0.10523047812E+03 -0.94598530886E+02  0.46300906033E+02  0.17475152189E+03  0.91498551541E+02 0.  0.
         23    2    1    2    0    0 -0.96557596027E+02  0.12514119884E+03 -0.38888369678E+03  0.42965863072E+03  0.91609608295E+02 0.  0.
        -11    1    3    3    0    0  0.47127324387E+02 -0.18655279387E+01 -0.14781339632E+02  0.49426236957E+02  0.00000000000E+00 0. -1.
         11    1    3    3    0    0  0.58103153729E+02 -0.92733002947E+02  0.61082245665E+02  0.12532528494E+03  0.00000000000E+00 0.  1.
        -11    1    4    4    0    0 -0.59548432259E+02  0.13047432613E+03 -0.28110648496E+03  0.31557950100E+03  0.00000000000E+00 0. -1.
         11    1    4    4    0    0 -0.37009163768E+02 -0.53331272963E+01 -0.10777721182E+03  0.11407912972E+03  0.00000000000E+00 0.  1.
         21    1    1    2  502  501 -0.86728820888E+01 -0.30542667951E+02  0.94817845630E+02  0.99992486214E+02  0.00000000000E+00 0.  1.
<scales pt_clust_5="13000.00000" pt_clust_6="13000.00000" pt_clust_7="13000.00000" pt_clust_8="13000.00000" pt_clust_9="31.75017"></scales>
<clustering>
<clus scale="   31.750">  1  9  2 -1</clus>
<clus scale="   91.499">  5  6 -1 -1</clus>
<clus scale="   91.610">  7  8 -1 -1</clus>
<clus scale="  180.140">  1  5  2 -1</clus>
<clus scale="  180.197">  2  5  1 -1</clus>
</clustering>
</event>
<event>
 9    1  0.1484717E-005  0.1080661E+03  0.7546771E-02  0.1264372E+00
          1   -1    0    0  502    0  0.00000000000E+00  0.00000000000E+00  0.60008322076E+03  0.60008322076E+03  0.00000000000E+00 0. -1.
         -1   -1    0    0    0  501 -0.00000000000E+00 -0.00000000000E+00 -0.43840392930E+02  0.43840392930E+02  0.00000000000E+00 0.  1.
         23    2    1    2    0    0 -0.39131598992E+02 -0.70323722985E+02  0.18374636635E+03  0.22016800990E+03  0.90744241603E+02 0.  0.
         23    2    1    2    0    0  0.59589344232E+01  0.50227655823E+02  0.37052678049E+03  0.38492060368E+03  0.91189088011E+02 0.  0.
        -11    1    3    3    0    0  0.42005647730E+01 -0.28519626407E+02  0.14663021816E+03  0.14943705937E+03  0.00000000000E+00 0. -1.
         11    1    3    3    0    0 -0.43332163765E+02 -0.41804096578E+02  0.37116148188E+02  0.70730950535E+02  0.00000000000E+00 0.  1.
        -11    1    4    4    0    0 -0.85949897780E+01 -0.19918749094E+02  0.30497106370E+02  0.37425979101E+02  0.00000000000E+00 0.  1.
         11    1    4    4    0    0  0.14553924201E+02  0.70146404917E+02  0.34002967412E+03  0.34749462458E+03  0.00000000000E+00 0. -1.
         21    1    1    2  502  501  0.33172664569E+02  0.20096067162E+02  0.19696809960E+01  0.38835000106E+02  0.00000000000E+00 0.  1.
<scales pt_clust_5="13000.00000" pt_clust_6="13000.00000" pt_clust_7="13000.00000" pt_clust_8="13000.00000" pt_clust_9="38.78502"></scales>
<clustering>
<clus scale="   38.785">  2  9  1 -1</clus>
<clus scale="   90.744">  5  6 -1 -1</clus>
<clus scale="   91.189">  7  8 -1 -1</clus>
<clus scale="  107.691">  2  5  1 -1</clus>
<clus scale="  108.066">  1  5  2 -1</clus>
</clustering>
</event>
<event>
 9    1  0.1484717E-005  0.1270341E+03  0.7546771E-02  0.1239786E+00
         -1   -1    0    0    0  501 -0.00000000000E+00  0.00000000000E+00  0.14349845640E+03  0.14349845640E+03  0.00000000000E+00 0.  1.
          1   -1    0    0  502    0  0.00000000000E+00 -0.00000000000E+00 -0.13974485347E+03  0.13974485347E+03  0.00000000000E+00 0. -1.
         23    2    1    2    0    0 -0.91968085478E+02 -0.12369049070E+02  0.43695933632E+02  0.13919839200E+03  0.94104918030E+02 0.  0.
         23    2    1    2    0    0  0.76593832085E+02  0.33115205757E+02 -0.48013660609E+02  0.11699095234E+03  0.66470590171E+02 0.  0.
        -11    1    3    3    0    0 -0.38097487946E+02 -0.12061566180E+02  0.68956300026E+02  0.79698627842E+02  0.00000000000E+00 0.  1.
         11    1    3    3    0    0 -0.53870597532E+02 -0.30748288974E+00 -0.25260366395E+02  0.59499764156E+02  0.00000000000E+00 0. -1.
        -13    1    4    4    0    0  0.64731830451E+02 -0.50087954808E+01 -0.40029916842E+02  0.76273797258E+02  0.00000000000E+00 0. -1.
         13    1    4    4    0    0  0.11862001634E+02  0.38124001238E+02 -0.79837437671E+01  0.40717155078E+02  0.00000000000E+00 0.  1.
         21    1    1    2  502  501  0.15374253394E+02 -0.20746156687E+02  0.80713299097E+01  0.27053965536E+02  0.00000000000E+00 0.  1.
<scales pt_clust_5="13000.00000" pt_clust_6="13000.00000" pt_clust_7="13000.00000" pt_clust_8="13000.00000" pt_clust_9="25.82190"></scales>
<clustering>
<clus scale="   25.822">  1  9  2 -1</clus>
<clus scale="   66.471">  7  8 -1 -1</clus>
<clus scale="   94.105">  5  6 -1 -1</clus>
<clus scale="  108.168">  2  7  1 -1</clus>
<clus scale="  108.168">  2  5  1 -1</clus>
</clustering>
</event>
<event>
 9    1  0.1484717E-005  0.1262519E+03  0.7546771E-02  0.1242062E+00
          1   -1    0    0  502    0  0.00000000000E+00  0.00000000000E+00  0.14684578586E+03  0.14684578586E+03  0.00000000000E+00 0. -1.
         -1   -1    0    0    0  501 -0.00000000000E+00 -0.00000000000E+00 -0.30541845651E+03  0.30541845651E+03  0.00000000000E+00 0.  1.
         23    2    1    2    0    0 -0.43228474661E+02  0.50689480338E+02 -0.40880869196E+02  0.11992704471E+03  0.90956726795E+02 0.  0.
         23    2    1    2    0    0  0.39379472082E+02 -0.26420670329E+02  0.70404715201E+02  0.14264247043E+03  0.11463531657E+03 0.  0.
        -11    1    4    4    0    0  0.71674982749E+02 -0.97015611740E+01  0.77043801032E+02  0.10567483484E+03  0.00000000000E+00 0.  1.
         11    1    4    4    0    0 -0.32295510667E+02 -0.16719109155E+02 -0.66390858314E+01  0.36967635587E+02  0.00000000000E+00 0. -1.
        -13    1    3    3    0    0  0.10462598031E+02  0.35980206458E+02  0.15631438354E+02  0.40600284227E+02  0.00000000000E+00 0. -1.
         13    1    3    3    0    0 -0.53691072692E+02  0.14709273881E+02 -0.56512307549E+02  0.79326760488E+02  0.00000000000E+00 0.  1.
         21    1    1    2  502  501  0.38490025796E+01 -0.24268810009E+02 -0.18809651666E+03  0.18969472723E+03  0.00000000000E+00 0.  1.
<scales pt_clust_5="13000.00000" pt_clust_6="13000.00000" pt_clust_7="13000.00000" pt_clust_8="13000.00000" pt_clust_9="24.57214"></scales>
<clustering>
<clus scale="   24.572">  2  9  1 -1</clus>
<clus scale="   90.957">  7  8 -1 -1</clus>
<clus scale="  105.221">  2  7  1 -1</clus>
<clus scale="  114.635">  5  6 -1 -1</clus>
<clus scale="  126.252">  1  5  2 -1</clus>
</clustering>
</event>
<event>
 9    1  0.1484717E-005  0.9207468E+02  0.7546771E-02  0.1297962E+00
         -1   -1    0    0    0  501 -0.00000000000E+00  0.00000000000E+00  0.11709907138E+03  0.11709907138E+03  0.00000000000E+00 0.  1.
          1   -1    0    0  502    0  0.00000000000E+00 -0.00000000000E+00 -0.14984214539E+03  0.14984214539E+03  0.00000000000E+00 0. -1.
         23    2    1    2    0    0 -0.12599836441E+02  0.47921293955E+01  0.11467477555E+02  0.92911887386E+02  0.91210719731E+02 0.  0.
         23    2    1    2    0    0 -0.11792286580E+02 -0.14260972927E+02 -0.84734607542E+02  0.12579206396E+03  0.91111230195E+02 0.  0.
        -11    1    3    3    0    0  0.57784392652E+00  0.43418453005E+02 -0.13000825364E+02  0.45326784853E+02  0.00000000000E+00 0. -1.
         11    1    3    3    0    0 -0.13177680367E+02 -0.38626323609E+02  0.24468302919E+02  0.47585102534E+02  0.00000000000E+00 0.  1.
        -13    1    4    4    0    0 -0.42222643386E+02 -0.35067406346E+02 -0.40501116297E+02  0.68211546117E+02  0.00000000000E+00 0.  1.
         13    1    4    4    0    0  0.30430356806E+02  0.20806433419E+02 -0.44233491244E+02  0.57580517839E+02  0.00000000000E+00 0. -1.
         21    1    1    2  502  501  0.24392123021E+02  0.94688435316E+01  0.40524055973E+02  0.48237265426E+02  0.00000000000E+00 0.  1.
<scales pt_clust_5="13000.00000" pt_clust_6="13000.00000" pt_clust_7="13000.00000" pt_clust_8="13000.00000" pt_clust_9="26.16552"></scales>
<clustering>
<clus scale="   26.166">  1  9  2 -1</clus>
<clus scale="   91.111">  7  8 -1 -1</clus>
<clus scale="   91.211">  5  6 -1 -1</clus>
<clus scale="   91.976">  2  7  1 -1</clus>
<clus scale="   91.976">  2  5  1 -1</clus>
</clustering>
</event>
<event>
 9    1  0.1484717E-005  0.1117949E+03  0.7546771E-02  0.1258095E+00
         -1   -1    0    0    0  501 -0.00000000000E+00  0.00000000000E+00  0.73279648626E+02  0.73279648626E+02  0.00000000000E+00 0.  1.
          1   -1    0    0  502    0  0.00000000000E+00 -0.00000000000E+00 -0.54024591820E+03  0.54024591820E+03  0.00000000000E+00 0. -1.
         23    2    1    2    0    0  0.44731996292E+01 -0.47496962592E+02  0.18011689149E+02  0.10515257876E+03  0.91960170203E+02 0.  0.
         23    2    1    2    0    0 -0.23473087353E+02  0.61083448094E+02 -0.46353744068E+03  0.47666677202E+03  0.89789081613E+02 0.  0.
        -13    1    4    4    0    0  0.30927399254E+02  0.44360589260E+02 -0.21504689244E+03  0.22174203898E+03  0.00000000000E+00 0. -1.
         13    1    4    4    0    0 -0.54400486607E+02  0.16722858834E+02 -0.24849054823E+03  0.25492473303E+03  0.00000000000E+00 0.  1.
        -13    1    3    3    0    0 -0.34130268536E+02 -0.54211386921E+02  0.15382068734E+02  0.65881391461E+02  0.00000000000E+00 0.  1.
         13    1    3    3    0    0  0.38603468165E+02  0.67144243298E+01  0.26296204152E+01  0.39271187300E+02  0.00000000000E+00 0. -1.
         21    1    1    2  502  501  0.18999887724E+02 -0.13586485502E+02 -0.21440518044E+02  0.31706216044E+02  0.00000000000E+00 0.  1.
<scales pt_clust_5="13000.00000" pt_clust_6="13000.00000" pt_clust_7="13000.00000" pt_clust_8="13000.00000" pt_clust_9="23.35783"></scales>
<clustering>
<clus scale="   23.358">  1  9  2 -1</clus>
<clus scale="   89.789">  5  6 -1 -1</clus>
<clus scale="   91.960">  7  8 -1 -1</clus>
<clus scale="  110.016">  2  5  1 -1</clus>
<clus scale="  110.016">  2  5  1 -1</clus>
</clustering>
</event>
<event>
 9    1  0.1484717E-005  0.1470924E+03  0.7546771E-02  0.1205267E+00
         -1   -1    0    0    0  501 -0.00000000000E+00  0.00000000000E+00  0.41985413541E+02  0.41985413541E+02  0.00000000000E+00 0.  1.
          1   -1    0    0  502    0  0.00000000000E+00 -0.00000000000E+00 -0.85206825710E+03  0.85206825710E+03  0.00000000000E+00 0. -1.
         23    2    1    2    0    0  0.10847618829E+03 -0.67668913882E+02 -0.45289995997E+03  0.47900635924E+03  0.89345134869E+02 0.  0.
         23    2    1    2    0    0 -0.74603684773E+02  0.62929051333E+02 -0.35558035861E+03  0.38080726353E+03  0.95136771250E+02 0.  0.
        -11    1    4    4    0    0 -0.93453790316E+02  0.38293768328E+02 -0.22556775109E+03  0.24714537007E+03  0.00000000000E+00 0. -1.
         11    1    4    4    0    0  0.18850105543E+02  0.24635283004E+02 -0.13001260753E+03  0.13366189346E+03  0.00000000000E+00 0.  1.
        -11    1    3    3    0    0  0.11163596386E+03 -0.28538504078E+02 -0.30681527199E+03  0.32773868519E+03  0.00000000000E+00 0.  1.
         11    1    3    3    0    0 -0.31597755669E+01 -0.39130409804E+02 -0.14608468798E+03  0.15126767406E+03  0.00000000000E+00 0. -1.
         21    1    1    2  502  501 -0.33872503517E+02  0.47398625492E+01 -0.16025249773E+01  0.34240047865E+02  0.00000000000E+00 0. -1.
<scales pt_clust_5="13000.00000" pt_clust_6="13000.00000" pt_clust_7="13000.00000" pt_clust_8="13000.00000" pt_clust_9="34.20253"></scales>
<clustering>
<clus scale="   34.203">  1  9  2 -1</clus>
<clus scale="   89.345">  7  8 -1 -1</clus>
<clus scale="   95.137">  5  6 -1 -1</clus>
<clus scale="  143.415">  1  7  2 -1</clus>
<clus scale="  147.092">  2  5  1 -1</clus>
</clustering>
</event>
<event>
 9    1  0.1484717E-005  0.9693713E+02  0.7546771E-02  0.1300350E+00
         -1   -1    0    0    0  501 -0.00000000000E+00  0.00000000000E+00  0.28796193068E+02  0.28796193068E+02  0.00000000000E+00 0.  1.
          1   -1    0    0  502    0  0.00000000000E+00 -0.00000000000E+00 -0.39164349199E+03  0.39164349199E+03  0.00000000000E+00 0. -1.
         23    2    1    2    0    0 -0.19797254580E+02  0.55935955093E+01 -0.73953313594E+02  0.10535078399E+03  0.72155911034E+02 0.  0.
         23    2    1    2    0    0  0.20818102849E+02  0.15385003273E+02 -0.26858274753E+03  0.28587092511E+03  0.94421405521E+02 0.  0.
        -11    1    4    4    0    0 -0.33807567067E+02 -0.86131822062E+01 -0.65588893362E+02  0.74290251253E+02  0.00000000000E+00 0.  1.
         11    1    4    4    0    0  0.54625669916E+02  0.23998185479E+02 -0.20299385417E+03  0.21158067386E+03  0.00000000000E+00 0. -1.
        -13    1    3    3    0    0 -0.42330996165E+02  0.57172259157E+01 -0.20577949322E+02  0.47413625750E+02  0.00000000000E+00 0.  1.
         13    1    3    3    0    0  0.22533741585E+02 -0.12363040648E+00 -0.53375364271E+02  0.57937158244E+02  0.00000000000E+00 0. -1.
         21    1    1    2  502  501 -0.10208482688E+01 -0.20978598782E+02 -0.20311237802E+02  0.29217975958E+02  0.00000000000E+00 0.  1.
<scales pt_clust_5="13000.00000" pt_clust_6="13000.00000" pt_clust_7="13000.00000" pt_clust_8="13000.00000" pt_clust_9="21.00342"></scales>
<clustering>
<clus scale="   21.003">  1  9  2 -1</clus>
<clus scale="   72.156">  7  8 -1 -1</clus>
<clus scale="   75.418">  1  7  2 -1</clus>
<clus scale="   94.421">  5  6 -1 -1</clus>
<clus scale="   96.937">  2  5  1 -1</clus>
</clustering>
</event>
<event>
 9    1  0.1484717E-005  0.1372408E+03  0.7546771E-02  0.1219253E+00
         -1   -1    0    0    0  501 -0.00000000000E+00  0.00000000000E+00  0.53532657177E+03  0.53532657177E+03  0.00000000000E+00 0.  1.
          1   -1    0    0  502    0  0.00000000000E+00 -0.00000000000E+00 -0.55945858466E+02  0.55945858466E+02  0.00000000000E+00 0. -1.
         23    2    1    2    0    0  0.15008973276E+02  0.10061479963E+03  0.26272816893E+03  0.29591680485E+03  0.90509985435E+02 0.  0.
         23    2    1    2    0    0 -0.70491874691E+02 -0.83569124793E+02  0.11424252314E+03  0.17764105606E+03  0.80944967043E+02 0.  0.
        -11    1    3    3    0    0 -0.20487108514E+02  0.98106317542E+02  0.18413763110E+03  0.20964550638E+03  0.00000000000E+00 0. -1.
         11    1    3    3    0    0  0.35496081791E+02  0.25084820883E+01  0.78590537825E+02  0.86271298475E+02  0.00000000000E+00 0.  1.
        -13    1    4    4    0    0 -0.13415464178E+02 -0.18136665716E+02 -0.11115752590E+02  0.25149021414E+02  0.00000000000E+00 0. -1.
         13    1    4    4    0    0 -0.57076410513E+02 -0.65432459077E+02  0.12535827573E+03  0.15249203465E+03  0.00000000000E+00 0.  1.
         21    1    1    2  502  501  0.55482901415E+02 -0.17045674837E+02  0.10241002124E+03  0.11771456932E+03  0.00000000000E+00 0.  1.
<scales pt_clust_5="13000.00000" pt_clust_6="13000.00000" pt_clust_7="13000.00000" pt_clust_8="13000.00000" pt_clust_9="58.04229"></scales>
<clustering>
<clus scale="   58.042">  1  9  2 -1</clus>
<clus scale="   80.945">  7  8 -1 -1</clus>
<clus scale="   90.510">  5  6 -1 -1</clus>
<clus scale="  131.130">  2  7  1 -1</clus>
<clus scale="  131.130">  2  5  1 -1</clus>
</clustering>
</event>
<event>
 9    1  0.1484717E-005  0.2723587E+03  0.7546771E-02  0.1100012E+00
         -2   -1    0    0    0  501 -0.00000000000E+00  0.00000000000E+00  0.60666472250E+03  0.60666472250E+03  0.00000000000E+00 0.  1.
          2   -1    0    0  502    0  0.00000000000E+00 -0.00000000000E+00 -0.67767374333E+03  0.67767374333E+03  0.00000000000E+00 0. -1.
         23    2    1    2    0    0 -0.24315480121E+02  0.23077707711E+03  0.38841169606E+03  0.46186464391E+03  0.92768538684E+02 0.  0.
         23    2    1    2    0    0  0.41088692739E+02 -0.25384515051E+03 -0.61028842234E+03  0.66893379059E+03  0.94312335565E+02 0.  0.
        -11    1    3    3    0    0  0.26569404384E+02  0.15799553571E+03  0.23082811597E+03  0.28098067847E+03  0.00000000000E+00 0.  1.
         11    1    3    3    0    0 -0.50884884505E+02  0.72781541401E+02  0.15758358009E+03  0.18088396544E+03  0.00000000000E+00 0. -1.
        -13    1    4    4    0    0  0.59908177201E+02 -0.23368803168E+03 -0.49867064693E+03  0.55395983604E+03  0.00000000000E+00 0. -1.
         13    1    4    4    0    0 -0.18819484462E+02 -0.20157118835E+02 -0.11161777542E+03  0.11497395455E+03  0.00000000000E+00 0.  1.
         21    1    1    2  502  501 -0.16773212618E+02  0.23068073405E+02  0.15086770545E+03  0.15354003133E+03  0.00000000000E+00 0.  1.
<scales pt_clust_5="13000.00000" pt_clust_6="13000.00000" pt_clust_7="13000.00000" pt_clust_8="13000.00000" pt_clust_9="28.52151"></scales>
<clustering>
<clus scale="   28.522">  1  9  2 -1</clus>
<clus scale="   92.769">  5  6 -1 -1</clus>
<clus scale="   94.312">  7  8 -1 -1</clus>
<clus scale="  271.828">  1  5  2 -1</clus>
<clus scale="  272.359">  2  5  1 -1</clus>
</clustering>
</event>
<event>
 9    1  0.1484717E-005  0.1367588E+03  0.7546771E-02  0.1229562E+00
         -2   -1    0    0    0  501 -0.00000000000E+00  0.00000000000E+00  0.47731082177E+02  0.47731082177E+02  0.00000000000E+00 0.  1.
          2   -1    0    0  502    0  0.00000000000E+00 -0.00000000000E+00 -0.49071753469E+03  0.49071753469E+03  0.00000000000E+00 0. -1.
         23    2    1    2    0    0  0.15848151020E+02 -0.42155068289E+02 -0.12980633079E+03  0.16524533972E+03  0.91804820749E+02 0.  0.
         23    2    1    2    0    0 -0.39190110796E+02  0.50579549349E+02 -0.31816714854E+03  0.34789143399E+03  0.12531544134E+03 0.  0.
        -11    1    3    3    0    0  0.68993874257E+01 -0.66946556909E+02 -0.11909327215E+03  0.13679419030E+03  0.00000000000E+00 0.  1.
         11    1    3    3    0    0  0.89487635947E+01  0.24791488620E+02 -0.10713058644E+02  0.28451149421E+02  0.00000000000E+00 0. -1.
        -11    1    4    4    0    0 -0.76869938857E+02  0.64690204845E+02 -0.22624271366E+03  0.24754711791E+03  0.00000000000E+00 0. -1.
         11    1    4    4    0    0  0.37679828061E+02 -0.14110655496E+02 -0.91924434889E+02  0.10034431609E+03  0.00000000000E+00 0.  1.
         21    1    1    2  502  501  0.23341959775E+02 -0.84244810605E+01  0.49870268215E+01  0.25311843153E+02  0.00000000000E+00 0.  1.
<scales pt_clust_5="13000.00000" pt_clust_6="13000.00000" pt_clust_7="13000.00000" pt_clust_8="13000.00000" pt_clust_9="24.81570"></scales>
<clustering>
<clus scale="   24.816">  1  9  2 -1</clus>
<clus scale="   91.805">  5  6 -1 -1</clus>
<clus scale="  106.898">  1  5  2 -1</clus>
<clus scale="  125.315">  7  8 -1 -1</clus>
<clus scale="  136.759">  2  5  1 -1</clus>
</clustering>
</event>
<event>
 9    1  0.1484717E-005  0.1500184E+03  0.7546771E-02  0.1200905E+00
         -1   -1    0    0    0  501 -0.00000000000E+00  0.00000000000E+00  0.41535462878E+03  0.41535462878E+03  0.00000000000E+00 0.  1.
          1   -1    0    0  502    0  0.00000000000E+00 -0.00000000000E+00 -0.84148067706E+02  0.84148067706E+02  0.00000000000E+00 0. -1.
         23    2    1    2    0    0 -0.10619158759E+03 -0.18105391522E+02  0.18533235959E+03  0.23314255706E+03  0.91667387461E+02 0.  0.
         23    2    1    2    0    0  0.11882902843E+03  0.69454148901E+02  0.12923634074E+03  0.21092352512E+03  0.94034487744E+02 0.  0.
        -11    1    3    3    0    0 -0.76572278473E+02  0.21043692409E+02  0.15829709164E+03  0.17709918138E+03  0.00000000000E+00 0. -1.
         11    1    3    3    0    0 -0.29619309121E+02 -0.39149083931E+02  0.27035267948E+02  0.56043375687E+02  0.00000000000E+00 0.  1.
        -13    1    4    4    0    0  0.62737789203E+02  0.30354665800E+02  0.59529340467E+01  0.69949076861E+02  0.00000000000E+00 0. -1.
         13    1    4    4    0    0  0.56091239223E+02  0.39099483101E+02  0.12328340669E+03  0.14097444826E+03  0.00000000000E+00 0.  1.
         21    1    1    2  502  501 -0.12637440833E+02 -0.51348757379E+02  0.16637860742E+02  0.55436614302E+02  0.00000000000E+00 0.  1.
<scales pt_clust_5="13000.00000" pt_clust_6="13000.00000" pt_clust_7="13000.00000" pt_clust_8="13000.00000" pt_clust_9="52.88100"></scales>
<clustering>
<clus scale="   52.881">  2  9  1 -1</clus>
<clus scale="   91.667">  5  6 -1 -1</clus>
<clus scale="   94.034">  7  8 -1 -1</clus>
<clus scale="  148.546">  1  5  2 -1</clus>
<clus scale="   52.881">  2  5  1 -1</clus>
</clustering>
</event>
<event>
 9    1  0.1484717E-005  0.1299988E+03  0.7546771E-02  0.1228136E+00
         -1   -1    0    0    0  501 -0.00000000000E+00  0.00000000000E+00  0.73911199122E+02  0.73911199122E+02  0.00000000000E+00 0.  1.
          1   -1    0    0  502    0  0.00000000000E+00 -0.00000000000E+00 -0.40976888606E+03  0.40976888606E+03  0.00000000000E+00 0. -1.
         23    2    1    2    0    0  0.68183185559E+01  0.11169965394E+03 -0.44216831694E+02  0.15081909532E+03  0.90928373727E+02 0.  0.
         23    2    1    2    0    0  0.47108163600E+01 -0.84577434649E+02 -0.26338224936E+03  0.29203104328E+03  0.93468640303E+02 0.  0.
        -11    1    3    3    0    0  0.36779503811E+02  0.90202554688E+02 -0.58256018939E+01  0.97586732757E+02  0.00000000000E+00 0.  1.
         11    1    3    3    0    0 -0.29961185255E+02  0.21497099255E+02 -0.38391229800E+02  0.53232362561E+02  0.00000000000E+00 0. -1.
        -11    1    4    4    0    0  0.44795958847E+02 -0.29207660894E+02 -0.79113143801E+02  0.95491648358E+02  0.00000000000E+00 0.  1.
         11    1    4    4    0    0 -0.40085142487E+02 -0.55369773756E+02 -0.18426910556E+03  0.19653939492E+03  0.00000000000E+00 0. -1.
         21    1    1    2  502  501 -0.11529134916E+02 -0.27122219294E+02 -0.28258605886E+02  0.40829946583E+02  0.00000000000E+00 0. -1.
<scales pt_clust_5="13000.00000" pt_clust_6="13000.00000" pt_clust_7="13000.00000" pt_clust_8="13000.00000" pt_clust_9="29.47093"></scales>
<clustering>
<clus scale="   29.471">  1  9  2 -1</clus>
<clus scale="   90.928">  5  6 -1 -1</clus>
<clus scale="   93.469">  7  8 -1 -1</clus>
<clus scale="  128.184">  1  5  2 -1</clus>
<clus scale="  129.999">  2  5  1 -1</clus>
</clustering>
</event>
<event>
 9    1  0.1484717E-005  0.9384542E+02  0.7546771E-02  0.1296263E+00
          1   -1    0    0  502    0  0.00000000000E+00  0.00000000000E+00  0.92319358842E+03  0.92319358842E+03  0.00000000000E+00 0. -1.
         -1   -1    0    0    0  501 -0.00000000000E+00 -0.00000000000E+00 -0.14103789738E+02  0.14103789738E+02  0.00000000000E+00 0.  1.
         23    2    1    2    0    0  0.84508794134E+01  0.16975311915E+02  0.24754169468E+03  0.26370781652E+03  0.88911997572E+02 0.  0.
         23    2    1    2    0    0 -0.11256855514E+02  0.14540939744E+02  0.51244933090E+03  0.52117042976E+03  0.93145823286E+02 0.  0.
        -11    1    3    3    0    0  0.23208156920E+02  0.46198767450E+02  0.99960950483E+02  0.11253948766E+03  0.00000000000E+00 0.  1.
         11    1    3    3    0    0 -0.14757277507E+02 -0.29223455536E+02  0.14758074420E+03  0.15116832886E+03  0.00000000000E+00 0. -1.
        -11    1    4    4    0    0  0.38125061751E+02  0.23379099513E+02  0.23272186833E+03  0.23698010597E+03  0.00000000000E+00 0.  1.
         11    1    4    4    0    0 -0.49381917265E+02 -0.88381597697E+01  0.27972746257E+03  0.28419032380E+03  0.00000000000E+00 0. -1.
         21    1    1    2  502  501  0.28059761010E+01 -0.31516251658E+02  0.14909877310E+03  0.15241913188E+03  0.00000000000E+00 0. -1.
<scales pt_clust_5="13000.00000" pt_clust_6="13000.00000" pt_clust_7="13000.00000" pt_clust_8="13000.00000" pt_clust_9="31.64092"></scales>
<clustering>
<clus scale="   31.641">  1  9  2 -1</clus>
<clus scale="   88.912">  5  6 -1 -1</clus>
<clus scale="   89.645">  2  5  1 -1</clus>
<clus scale="   93.146">  7  8 -1 -1</clus>
<clus scale="   31.641">  1  5  2 -1</clus>
</clustering>
</event>
<event>
 9    1  0.1484717E-005  0.1183851E+03  0.7546771E-02  0.1245791E+00
         -1   -1    0    0    0  501 -0.00000000000E+00  0.00000000000E+00  0.25734741444E+02  0.25734741444E+02  0.00000000000E+00 0.  1.
          1   -1    0    0  502    0  0.00000000000E+00 -0.00000000000E+00 -0.83637565808E+03  0.83637565808E+03  0.00000000000E+00 0. -1.
         23    2    1    2    0    0  0.37748570245E+02 -0.94285799496E+02 -0.31763132582E+03  0.34562021337E+03  0.90823489296E+02 0.  0.
         23    2    1    2    0    0 -0.15627155781E+02  0.60658928230E+02 -0.40423213012E+03  0.41901423539E+03  0.90805290958E+02 0.  0.
        -11    1    4    4    0    0  0.84521298167E+01 -0.22329429707E+02 -0.83683397623E+02  0.87022715237E+02  0.00000000000E+00 0.  1.
         11    1    4    4    0    0 -0.24079285597E+02  0.82988357937E+02 -0.32054873250E+03  0.33199152015E+03  0.00000000000E+00 0. -1.
        -11    1    3    3    0    0  0.15052330270E+02 -0.10829878576E+03 -0.24694156490E+03  0.27006542933E+03  0.00000000000E+00 0.  1.
         11    1    3    3    0    0  0.22696239975E+02  0.14012986264E+02 -0.70689760914E+02  0.75554784039E+02  0.00000000000E+00 0. -1.
         21    1    1    2  502  501 -0.22121414464E+02  0.33626871266E+02 -0.88777460703E+02  0.97475950767E+02  0.00000000000E+00 0. -1.
<scales pt_clust_5="13000.00000" pt_clust_6="13000.00000" pt_clust_7="13000.00000" pt_clust_8="13000.00000" pt_clust_9="40.25076"></scales>
<clustering>
<clus scale="   40.251">  1  9  2 -1</clus>
<clus scale="   90.805">  5  6 -1 -1</clus>
<clus scale="   90.823">  7  8 -1 -1</clus>
<clus scale="  118.371">  2  5  1 -1</clus>
<clus scale="  118.371">  2  5  1 -1</clus>
</clustering>
</event>
<event>
 9    1  0.1484717E-005  0.2586557E+03  0.7546771E-02  0.1108124E+00
          1   -1    0    0  502    0  0.00000000000E+00  0.00000000000E+00  0.58665218124E+03  0.58665218124E+03  0.00000000000E+00 0. -1.
         -1   -1    0    0    0  501 -0.00000000000E+00 -0.00000000000E+00 -0.20145239754E+03  0.20145239754E+03  0.00000000000E+00 0.  1.
         23    2    1    2    0    0 -0.21961506985E+03 -0.11244632417E+02  0.67904680177E+02  0.24666252286E+03  0.88736316864E+02 0.  0.
         23    2    1    2    0    0  0.24902667787E+03  0.43398205756E+02  0.37970467100E+03  0.46532471836E+03  0.91944362462E+02 0.  0.
        -11    1    3    3    0    0 -0.60349651006E+02 -0.32027148102E+02  0.50801599524E+02  0.85138834302E+02  0.00000000000E+00 0. -1.
         11    1    3    3    0    0 -0.15926541885E+03  0.20782515685E+02  0.17103080653E+02  0.16152368856E+03  0.00000000000E+00 0.  1.
        -13    1    4    4    0    0  0.32232512597E+02  0.13425005482E+02  0.12364012514E+03  0.12847585837E+03  0.00000000000E+00 0.  1.
         13    1    4    4    0    0  0.21679416527E+03  0.29973200274E+02  0.25606454586E+03  0.33684885999E+03  0.00000000000E+00 0. -1.
         21    1    1    2  502  501 -0.29411608015E+02 -0.32153573340E+02 -0.62409567472E+02  0.76117337555E+02  0.00000000000E+00 0.  1.
<scales pt_clust_5="13000.00000" pt_clust_6="13000.00000" pt_clust_7="13000.00000" pt_clust_8="13000.00000" pt_clust_9="43.57631"></scales>
<clustering>
<clus scale="   43.576">  2  9  1 -1</clus>
<clus scale="   88.736">  5  6 -1 -1</clus>
<clus scale="   91.944">  7  8 -1 -1</clus>
<clus scale="  257.533">  2  5  1 -1</clus>
<clus scale="  258.656">  1  5  2 -1</clus>
</clustering>
</event>
<event>
 9    1  0.1484717E-005  0.1444420E+03  0.7546771E-02  0.1207809E+00
          1   -1    0    0  502    0  0.00000000000E+00  0.00000000000E+00  0.17201722208E+03  0.17201722208E+03  0.00000000000E+00 0. -1.
         -1   -1    0    0    0  501 -0.00000000000E+00 -0.00000000000E+00 -0.18005013651E+03  0.18005013651E+03  0.00000000000E+00 0.  1.
         23    2    1    2    0    0  0.10800311142E+03  0.19561636106E+02 -0.67387787087E+02  0.15695407246E+03  0.89700263825E+02 0.  0.
         23    2    1    2    0    0 -0.10086756135E+03 -0.54019696747E+02  0.63676865096E+02  0.15965974418E+03  0.91346035457E+02 0.  0.
        -11    1    4    4    0    0 -0.45361536558E+02 -0.28204061288E+02  0.80102611751E+02  0.96278587866E+02  0.00000000000E+00 0. -1.
         11    1    4    4    0    0 -0.55506024796E+02 -0.25815635459E+02 -0.16425746655E+02  0.63381156316E+02  0.00000000000E+00 0.  1.
        -13    1    3    3    0    0  0.66500926214E+01  0.38038442298E+02 -0.15610223759E+02  0.41651241400E+02  0.00000000000E+00 0. -1.
         13    1    3    3    0    0  0.10135301880E+03 -0.18476806192E+02 -0.51777563328E+02  0.11530283106E+03  0.00000000000E+00 0.  1.
         21    1    1    2  502  501 -0.71355500698E+01  0.34458060641E+02 -0.43219924363E+01  0.35453541947E+02  0.00000000000E+00 0.  1.
<scales pt_clust_5="13000.00000" pt_clust_6="13000.00000" pt_clust_7="13000.00000" pt_clust_8="13000.00000" pt_clust_9="35.18912"></scales>
<clustering>
<clus scale="   35.189">  2  9  1 -1</clus>
<clus scale="   89.700">  7  8 -1 -1</clus>
<clus scale="   91.346">  5  6 -1 -1</clus>
<clus scale="  143.407">  2  7  1 -1</clus>
<clus scale="  144.442">  1  5  2 -1</clus>
</clustering>
</event>
<event>
 9    1  0.1484717E-005  0.9547319E+02  0.7546771E-02  0.1291314E+00
          1   -1    0    0  502    0  0.00000000000E+00  0.00000000000E+00  0.60909999131E+03  0.60909999131E+03  0.00000000000E+00 0. -1.
         -1   -1    0    0    0  501 -0.00000000000E+00 -0.00000000000E+00 -0.60440401093E+02  0.60440401093E+02  0.00000000000E+00 0.  1.
         23    2    1    2    0    0 -0.38189834506E+02 -0.59272442796E+01  0.13611662241E+03  0.16959474543E+03  0.93493567149E+02 0.  0.
         23    2    1    2    0    0  0.13641398342E+01  0.19895383883E+02  0.44135511214E+03  0.45114625790E+03  0.91328658321E+02 0.  0.
        -11    1    3    3    0    0 -0.16405297569E+02 -0.44956265458E+02  0.10422450117E+03  0.11468629489E+03  0.00000000000E+00 0. -1.
         11    1    3    3    0    0 -0.21784536937E+02  0.39029021178E+02  0.31892121240E+02  0.54908450542E+02  0.00000000000E+00 0.  1.
        -13    1    4    4    0    0  0.36093284037E+02 -0.17836685929E+02  0.24058122377E+03  0.24392662370E+03  0.00000000000E+00 0. -1.
         13    1    4    4    0    0 -0.34729144203E+02  0.37732069812E+02  0.20077388837E+03  0.20721963421E+03  0.00000000000E+00 0.  1.
         21    1    1    2  502  501  0.36825694672E+02 -0.13968139603E+02 -0.28812144333E+02  0.48799389065E+02  0.00000000000E+00 0. -1.
<scales pt_clust_5="13000.00000" pt_clust_6="13000.00000" pt_clust_7="13000.00000" pt_clust_8="13000.00000" pt_clust_9="39.38579"></scales>
<clustering>
<clus scale="   39.386">  2  9  1 -1</clus>
<clus scale="   91.329">  7  8 -1 -1</clus>
<clus scale="   93.354">  1  7  2 -1</clus>
<clus scale="   93.494">  5  6 -1 -1</clus>
<clus scale="   93.354">  1  5  2 -1</clus>
</clustering>
</event>
<event>
 9    1  0.1484717E-005  0.9195981E+02  0.7546771E-02  0.1299651E+00
         -2   -1    0    0    0  501 -0.00000000000E+00  0.00000000000E+00  0.22526347433E+02  0.22526347433E+02  0.00000000000E+00 0.  1.
          2   -1    0    0  502    0  0.00000000000E+00 -0.00000000000E+00 -0.67265610096E+03  0.67265610096E+03  0.00000000000E+00 0. -1.
         23    2    1    2    0    0 -0.79035319273E+01 -0.17179643866E+02 -0.15548342516E+03  0.18158235530E+03  0.91866480687E+02 0.  0.
         23    2    1    2    0    0 -0.40357702849E+01 -0.21423885102E+00 -0.47912365414E+03  0.48740758447E+03  0.89388724679E+02 0.  0.
        -11    1    3    3    0    0  0.11181922260E+02 -0.43749532648E+02 -0.13646443519E+03  0.14374143127E+03  0.00000000000E+00 0. -1.
         11    1    3    3    0    0 -0.19085454187E+02  0.26569888781E+02 -0.19018989975E+02  0.37840924025E+02  0.00000000000E+00 0.  1.
        -13    1    4    4    0    0 -0.42636690463E+02 -0.18203941600E+02 -0.27613286629E+03  0.27999755483E+03  0.00000000000E+00 0.  1.
         13    1    4    4    0    0  0.38600920178E+02  0.17989702749E+02 -0.20299078785E+03  0.20741002964E+03  0.00000000000E+00 0. -1.
         21    1    1    2  502  501  0.11939302212E+02  0.17393882717E+02 -0.15522674221E+02  0.26192508629E+02  0.00000000000E+00 0.  1.
<scales pt_clust_5="13000.00000" pt_clust_6="13000.00000" pt_clust_7="13000.00000" pt_clust_8="13000.00000" pt_clust_9="21.09725"></scales>
<clustering>
<clus scale="   21.097">  1  9  2 -1</clus>
<clus scale="   89.389">  7  8 -1 -1</clus>
<clus scale="   89.485">  2  7  1 -1</clus>
<clus scale="   91.866">  5  6 -1 -1</clus>
<clus scale="   89.485">  2  5  1 -1</clus>
</clustering>
</event>
<event>
 9    1  0.1484717E-005  0.1295929E+03  0.7546771E-02  0.1228281E+00
          1   -1    0    0  502    0  0.00000000000E+00  0.00000000000E+00  0.97784616218E+02  0.97784616218E+02  0.00000000000E+00 0. -1.
         -1   -1    0    0    0  501 -0.00000000000E+00 -0.00000000000E+00 -0.25001724364E+03  0.25001724364E+03  0.00000000000E+00 0.  1.
         23    2    1    2    0    0 -0.42346937433E+02  0.55169434560E+02 -0.73769892515E+02  0.13740021123E+03  0.92735599336E+02 0.  0.
         23    2    1    2    0    0  0.77125087311E+02 -0.75184882287E+02 -0.25364518748E+02  0.14384672082E+03  0.91910144499E+02 0.  0.
        -11    1    3    3    0    0 -0.50085318260E+02 -0.92635737790E+01 -0.29811888705E+02  0.59017807588E+02  0.00000000000E+00 0. -1.
         11    1    3    3    0    0  0.77383808267E+01  0.64433008339E+02 -0.43958003810E+02  0.78382403640E+02  0.00000000000E+00 0.  1.
        -13    1    4    4    0    0  0.23086165553E+02 -0.67333059361E+02  0.18793520052E+02  0.73620026615E+02  0.00000000000E+00 0. -1.
         13    1    4    4    0    0  0.54038921758E+02 -0.78518229261E+01 -0.44158038801E+02  0.70226694204E+02  0.00000000000E+00 0.  1.
         21    1    1    2  502  501 -0.34778149878E+02  0.20015447727E+02 -0.53098216158E+02  0.66554927811E+02  0.00000000000E+00 0.  1.
<scales pt_clust_5="13000.00000" pt_clust_6="13000.00000" pt_clust_7="13000.00000" pt_clust_8="13000.00000" pt_clust_9="40.12652"></scales>
<clustering>
<clus scale="   40.127">  2  9  1 -1</clus>
<clus scale="   91.910">  7  8 -1 -1</clus>
<clus scale="   92.736">  5  6 -1 -1</clus>
<clus scale="  129.003">  1  7  2 -1</clus>
<clus scale="  129.003">  1  5  2 -1</clus>
</clustering>
</event>
<event>
 9    1  0.1484717E-005  0.1065269E+03  0.7546771E-02  0.1267637E+00
          2   -1    0    0  502    0  0.00000000000E+00  0.00000000000E+00  0.12182643426E+03  0.12182643426E+03  0.00000000000E+00 0. -1.
         -2   -1    0    0    0  501 -0.00000000000E+00 -0.00000000000E+00 -0.19889707403E+03  0.19889707403E+03  0.00000000000E+00 0.  1.
         23    2    1    2    0    0  0.57997915120E+02  0.29621050972E+01 -0.89986373445E+02  0.14002577100E+03  0.90206080247E+02 0.  0.
         23    2    1    2    0    0 -0.51557740046E+02  0.18454390403E+02  0.64446540353E+02  0.12452331099E+03  0.91399854113E+02 0.  0.
        -11    1    3    3    0    0  0.57800025614E+02 -0.36131743828E+02 -0.55736777457E+02  0.88050748062E+02  0.00000000000E+00 0.  1.
         11    1    3    3    0    0  0.19788950540E+00  0.39093848925E+02 -0.34249595988E+02  0.51975022938E+02  0.00000000000E+00 0. -1.
        -13    1    4    4    0    0  0.24515850135E+02 -0.82841249723E+01  0.14289231604E+02  0.29560713358E+02  0.00000000000E+00 0.  1.
         13    1    4    4    0    0 -0.76073590181E+02  0.26738515375E+02  0.50157308749E+02  0.94962597629E+02  0.00000000000E+00 0. -1.
         21    1    1    2  502  501 -0.64401750735E+01 -0.21416495500E+02 -0.51530806671E+02  0.56174426305E+02  0.00000000000E+00 0.  1.
<scales pt_clust_5="13000.00000" pt_clust_6="13000.00000" pt_clust_7="13000.00000" pt_clust_8="13000.00000" pt_clust_9="22.36386"></scales>
<clustering>
<clus scale="   22.364">  2  9  1 -1</clus>
<clus scale="   90.206">  5  6 -1 -1</clus>
<clus scale="   91.400">  7  8 -1 -1</clus>
<clus scale="  105.504">  2  5  1 -1</clus>
<clus scale="  106.527">  1  5  2 -1</clus>
</clustering>
</event>
<event>
 9    1  0.1484717E-005  0.1064910E+03  0.7546771E-02  0.1267249E+00
         -1   -1    0    0    0  501 -0.00000000000E+00  0.00000000000E+00  0.22714923503E+02  0.22714923503E+02  0.00000000000E+00 0.  1.
          1   -1    0    0  502    0  0.00000000000E+00 -0.00000000000E+00 -0.72938793318E+03  0.72938793318E+03  0.00000000000E+00 0. -1.
         23    2    1    2    0    0 -0.16289246620E+02 -0.37432337376E+02 -0.28381900471E+03  0.30086157929E+03  0.91093045956E+02 0.  0.
         23    2    1    2    0    0  0.55153116401E+02  0.48727001616E+02 -0.31133137931E+03  0.33260205180E+03  0.90998407606E+02 0.  0.
        -11    1    3    3    0    0 -0.89367129565E+01 -0.59568655063E+02 -0.26229530585E+03  0.26912286595E+03  0.00000000000E+00 0.  1.
         11    1    3    3    0    0 -0.73525336630E+01  0.22136317687E+02 -0.21523698856E+02  0.31738713339E+02  0.00000000000E+00 0. -1.
        -11    1    4    4    0    0  0.76993993691E+02  0.19141992349E+02 -0.19242361425E+03  0.20813778671E+03  0.00000000000E+00 0. -1.
         11    1    4    4    0    0 -0.21840877290E+02  0.29585009267E+02 -0.11890776506E+03  0.12446426509E+03  0.00000000000E+00 0.  1.
         21    1    1    2  502  501 -0.38863869781E+02 -0.11294664240E+02 -0.11152262566E+03  0.11863922559E+03  0.00000000000E+00 0.  1.
<scales pt_clust_5="13000.00000" pt_clust_6="13000.00000" pt_clust_7="13000.00000" pt_clust_8="13000.00000" pt_clust_9="40.47184"></scales>
<clustering>
<clus scale="   40.472">  2  9  1 -1</clus>
<clus scale="   90.998">  7  8 -1 -1</clus>
<clus scale="   91.093">  5  6 -1 -1</clus>
<clus scale="  106.410">  2  7  1 -1</clus>
<clus scale="   40.472">  2  5  1 -1</clus>
</clustering>
</event>
<event>
 9    1  0.1484717E-005  0.2009118E+03  0.7546771E-02  0.1168247E+00
          1   -1    0    0  502    0  0.00000000000E+00  0.00000000000E+00  0.23971304791E+04  0.23971304791E+04  0.00000000000E+00 0. -1.
         -1   -1    0    0    0  501 -0.00000000000E+00 -0.00000000000E+00 -0.42694908284E+02  0.42694908284E+02  0.00000000000E+00 0.  1.
         23    2    1    2    0    0 -0.64451545393E+02 -0.59841808049E+02  0.15254332886E+03  0.19921406638E+03  0.93175819650E+02 0.  0.
         23    2    1    2    0    0  0.62860359883E+02  0.21968596121E+03  0.11042184439E+04  0.11313591169E+04  0.91987680494E+02 0.  0.
        -11    1    4    4    0    0  0.18629332611E+02  0.15471867865E+02  0.39506875362E+02  0.46338147672E+02  0.00000000000E+00 0.  1.
         11    1    4    4    0    0  0.44231027271E+02  0.20421409334E+03  0.10647115685E+04  0.10850209693E+04  0.00000000000E+00 0. -1.
        -13    1    3    3    0    0 -0.21424185997E+02 -0.75081580775E+02  0.69869414463E+02  0.10477583020E+03  0.00000000000E+00 0.  1.
         13    1    3    3    0    0 -0.43027359396E+02  0.15239772726E+02  0.82673914398E+02  0.94438236172E+02  0.00000000000E+00 0. -1.
         21    1    1    2  502  501  0.15911855109E+01 -0.15984415316E+03  0.10976737981E+04  0.11092522040E+04  0.00000000000E+00 0.  1.
<scales pt_clust_5="13000.00000" pt_clust_6="13000.00000" pt_clust_7="13000.00000" pt_clust_8="13000.00000" pt_clust_9="178.61640"></scales>
<clustering>
<clus scale="   91.988">  5  6 -1 -1</clus>
<clus scale="   93.176">  7  8 -1 -1</clus>
<clus scale="  128.128">  2  7  1 -1</clus>
<clus scale="  178.616">  1  9  2 -1</clus>
<clus scale="  178.616">  1  5  2 -1</clus>
</clustering>
</event>
<event>
 9    1  0.1484717E-005  0.1095580E+03  0.7546771E-02  0.1262790E+00
         -2   -1    0    0    0  501 -0.00000000000E+00  0.00000000000E+00  0.64599158321E+02  0.64599158321E+02  0.00000000000E+00 0.  1.
          2   -1    0    0  502    0  0.00000000000E+00 -0.00000000000E+00 -0.32996774049E+03  0.32996774049E+03  0.00000000000E+00 0. -1.
         23    2    1    2    0    0  0.76372425483E+02  0.27186918791E+02 -0.95937436681E+02  0.15551594797E+03  0.91702466637E+02 0.  0.
         23    2    1    2    0    0 -0.26334642135E+02 -0.48010575417E+02 -0.14803841849E+03  0.18078386574E+03  0.88141386619E+02 0.  0.
        -11    1    4    4    0    0 -0.54765661104E+02 -0.21977481390E+02 -0.11792914312E+03  0.13186951930E+03  0.00000000000E+00 0. -1.
         11    1    4    4    0    0  0.28431018969E+02 -0.26033094027E+02 -0.30109275376E+02  0.48914346443E+02  0.00000000000E+00 0.  1.
        -11    1    3    3    0    0  0.84332433436E+02 -0.85138986146E+01 -0.76072296408E+02  0.11389223011E+03  0.00000000000E+00 0.  1.
         11    1    3    3    0    0 -0.79600079523E+01  0.35700817406E+02 -0.19865140274E+02  0.41623717856E+02  0.00000000000E+00 0. -1.
         21    1    1    2  502  501 -0.50037783349E+02  0.20823656626E+02 -0.21392726993E+02  0.58267085099E+02  0.00000000000E+00 0. -1.
<scales pt_clust_5="13000.00000" pt_clust_6="13000.00000" pt_clust_7="13000.00000" pt_clust_8="13000.00000" pt_clust_9="54.19783"></scales>
<clustering>
<clus scale="   54.198">  1  9  2 -1</clus>
<clus scale="   88.141">  5  6 -1 -1</clus>
<clus scale="   91.702">  7  8 -1 -1</clus>
<clus scale="  106.595">  2  5  1 -1</clus>
<clus scale="  106.595">  2  5  1 -1</clus>
</clustering>
</event>
<event>
 9    1  0.1484717E-005  0.2251023E+03  0.7546771E-02  0.1130214E+00
          2   -1    0    0  502    0  0.00000000000E+00  0.00000000000E+00  0.83854713088E+03  0.83854713088E+03  0.00000000000E+00 0. -1.
         -2   -1    0    0    0  501 -0.00000000000E+00 -0.00000000000E+00 -0.16896060729E+03  0.16896060729E+03  0.00000000000E+00 0.  1.
         23    2    1    2    0    0  0.20681999448E+03 -0.12498934866E+03 -0.18613469159E+02  0.25886167963E+03  0.90917878073E+02 0.  0.
         23    2    1    2    0    0 -0.17785101244E+03  0.93266874675E+02  0.66302849382E+03  0.69885527993E+03  0.91990358915E+02 0.  0.
        -13    1    3    3    0    0  0.94101788539E+02 -0.10586576186E+03 -0.27123463518E+02  0.14421646374E+03  0.00000000000E+00 0. -1.
         13    1    3    3    0    0  0.11271820594E+03 -0.19123586795E+02  0.85099943588E+01  0.11464521589E+03  0.00000000000E+00 0.  1.
        -13    1    4    4    0    0 -0.68346772737E+02  0.30684251779E+01  0.12568788285E+03  0.14310185348E+03  0.00000000000E+00 0.  1.
         13    1    4    4    0    0 -0.10950423970E+03  0.90198449497E+02  0.53734061097E+03  0.55575342644E+03  0.00000000000E+00 0. -1.
         21    1    1    2  502  501 -0.28968982042E+02  0.31722473984E+02  0.25171498931E+02  0.49790778610E+02  0.00000000000E+00 0. -1.
<scales pt_clust_5="13000.00000" pt_clust_6="13000.00000" pt_clust_7="13000.00000" pt_clust_8="13000.00000" pt_clust_9="42.95948"></scales>
<clustering>
<clus scale="   42.959">  2  9  1 -1</clus>
<clus scale="   90.918">  5  6 -1 -1</clus>
<clus scale="   91.990">  7  8 -1 -1</clus>
<clus scale="  224.666">  2  5  1 -1</clus>
<clus scale="  225.102">  1  5  2 -1</clus>
</clustering>
</event>
<event>
 9    1  0.1571072E-005  0.9124885E+02  0.7546771E-02  0.1302023E+00
         -1   -1    0    0    0  501 -0.00000000000E+00  0.00000000000E+00  0.35518927796E+03  0.35518927796E+03  0.00000000000E+00 0.  1.
          1   -1    0    0  502    0  0.00000000000E+00 -0.00000000000E+00 -0.20133463028E+03  0.20133463028E+03  0.00000000000E+00 0. -1.
         23    2    1    2    0    0 -0.84831404244E+01 -0.42202727307E+02  0.19986720209E+03  0.22232932375E+03  0.87352137160E+02 0.  0.
         23    2    1    2    0    0  0.28757072035E+01  0.50207846132E+01 -0.17637279352E+03  0.19851948688E+03  0.90934847058E+02 0.  0.
        -11    1    3    3    0    0 -0.25337557500E+02  0.99084875166E+01  0.18568955373E+02  0.32938974613E+02  0.00000000000E+00 0.  1.
         11    1    3    3    0    0  0.16854417076E+02 -0.52111214823E+02  0.18129824671E+03  0.18939034914E+03  0.00000000000E+00 0. -1.
        -13    1    4    4    0    0 -0.43497973661E+01  0.44712587221E+02 -0.57382751777E+02  0.72876034432E+02  0.00000000000E+00 0.  1.
         13    1    4    4    0    0  0.72255045696E+01 -0.39691802607E+02 -0.11899004174E+03  0.12564345245E+03  0.00000000000E+00 0. -1.
         21    1    1    2  502  501  0.56074332209E+01  0.37181942693E+02  0.13036023911E+03  0.13567509761E+03  0.00000000000E+00 0.  1.
<scales pt_clust_5="13000.00000" pt_clust_6="13000.00000" pt_clust_7="13000.00000" pt_clust_8="13000.00000" pt_clust_9="37.60240"></scales>
<clustering>
<clus scale="   37.602">  1  9  2 -1</clus>
<clus scale="   87.352">  5  6 -1 -1</clus>
<clus scale="   87.679">  1  5  2 -1</clus>
<clus scale="   90.935">  7  8 -1 -1</clus>
<clus scale="   91.249">  2  5  1 -1</clus>
</clustering>
</event>
<event>
 9    1  0.1484717E-005  0.1127587E+03  0.7546771E-02  0.1256240E+00
          1   -1    0    0  502    0  0.00000000000E+00  0.00000000000E+00  0.55837259116E+03  0.55837259116E+03  0.00000000000E+00 0. -1.
         -1   -1    0    0    0  501 -0.00000000000E+00 -0.00000000000E+00 -0.55476347953E+02  0.55476347953E+02  0.00000000000E+00 0.  1.
         23    2    1    2    0    0 -0.50444038221E+02  0.69821141399E+02  0.10271683343E+03  0.16126127251E+03  0.89637365884E+02 0.  0.
         23    2    1    2    0    0  0.37073140649E+02 -0.48231689206E+02  0.41066075857E+03  0.42511506169E+03  0.91541484834E+02 0.  0.
        -11    1    3    3    0    0 -0.43512708952E+02  0.91324626357E+02  0.77735669659E+02  0.12757890718E+03  0.00000000000E+00 0.  1.
         11    1    3    3    0    0 -0.69313292685E+01 -0.21503484958E+02  0.24981163773E+02  0.33682365330E+02  0.00000000000E+00 0. -1.
        -13    1    4    4    0    0  0.28028167330E-02 -0.65968335282E+02  0.20376448542E+03  0.21417699873E+03  0.00000000000E+00 0.  1.
         13    1    4    4    0    0  0.37070337832E+02  0.17736646076E+02  0.20689627315E+03  0.21093806296E+03  0.00000000000E+00 0. -1.
         21    1    1    2  502  501  0.13370897572E+02 -0.21589452193E+02 -0.10481348799E+02  0.27472604910E+02  0.00000000000E+00 0.  1.
<scales pt_clust_5="13000.00000" pt_clust_6="13000.00000" pt_clust_7="13000.00000" pt_clust_8="13000.00000" pt_clust_9="25.39459"></scales>
<clustering>
<clus scale="   25.395">  2  9  1 -1</clus>
<clus scale="   89.637">  5  6 -1 -1</clus>
<clus scale="   91.541">  7  8 -1 -1</clus>
<clus scale="  111.218">  2  5  1 -1</clus>
<clus scale="  112.759">  1  5  2 -1</clus>
</clustering>
</event>
<event>
 9    1  0.1484717E-005  0.1050011E+03  0.7546771E-02  0.1270311E+00
          2   -1    0    0  502    0  0.00000000000E+00  0.00000000000E+00  0.20600930953E+03  0.20600930953E+03  0.00000000000E+00 0. -1.
         -2   -1    0    0    0  501 -0.00000000000E+00 -0.00000000000E+00 -0.19719419556E+03  0.19719419556E+03  0.00000000000E+00 0.  1.
         23    2    1    2    0    0 -0.32659447126E+02  0.40061137775E+01 -0.12468901717E+03  0.15791501680E+03  0.91143365595E+02 0.  0.
         23    2    1    2    0    0  0.53300563934E+02  0.23007724190E+01  0.17148681682E+03  0.20160191224E+03  0.91593444137E+02 0.  0.
        -13    1    4    4    0    0 -0.19394847716E+02  0.22286754581E+02  0.36199092851E+02  0.46725088239E+02  0.00000000000E+00 0.  1.
         13    1    4    4    0    0  0.72695411650E+02 -0.19985982162E+02  0.13528772397E+03  0.15487682401E+03  0.00000000000E+00 0. -1.
        -13    1    3    3    0    0  0.25879399481E+02 -0.20913912360E+02 -0.42058466319E+02  0.53628813494E+02  0.00000000000E+00 0. -1.
         13    1    3    3    0    0 -0.58538846607E+02  0.24920026137E+02 -0.82630550853E+02  0.10428620330E+03  0.00000000000E+00 0.  1.
         21    1    1    2  502  501 -0.20641116808E+02 -0.63068861965E+01 -0.37982685672E+02  0.43686576055E+02  0.00000000000E+00 0.  1.
<scales pt_clust_5="13000.00000" pt_clust_6="13000.00000" pt_clust_7="13000.00000" pt_clust_8="13000.00000" pt_clust_9="21.58315"></scales>
<clustering>
<clus scale="   21.583">  2  9  1 -1</clus>
<clus scale="   91.143">  7  8 -1 -1</clus>
<clus scale="   91.593">  5  6 -1 -1</clus>
<clus scale="  104.609">  2  7  1 -1</clus>
<clus scale="  105.001">  1  5  2 -1</clus>
</clustering>
</event>
<event>
 9    1  0.1484717E-005  0.1045093E+03  0.7546771E-02  0.1272890E+00
         -2   -1    0    0    0  501 -0.00000000000E+00  0.00000000000E+00  0.42852896803E+03  0.42852896803E+03  0.00000000000E+00 0.  1.
          2   -1    0    0  502    0  0.00000000000E+00 -0.00000000000E+00 -0.41418234069E+02  0.41418234069E+02  0.00000000000E+00 0. -1.
         23    2    1    2    0    0  0.32014307685E+02 -0.51566099467E+02  0.18591671633E+03  0.21497378480E+03  0.89245303677E+02 0.  0.
         23    2    1    2    0    0 -0.30288882111E+02  0.27679437035E+02  0.74966721800E+02  0.12649431414E+03  0.93258964819E+02 0.  0.
        -11    1    4    4    0    0  0.18921453392E+02 -0.20412486724E+02  0.41525760025E+02  0.49990796737E+02  0.00000000000E+00 0.  1.
         11    1    4    4    0    0 -0.49210335503E+02  0.48091923759E+02  0.33440961775E+02  0.76503517407E+02  0.00000000000E+00 0. -1.
        -13    1    3    3    0    0  0.56396218931E+00  0.22903126057E+02  0.19999795863E+02  0.30411561471E+02  0.00000000000E+00 0. -1.
         13    1    3    3    0    0  0.31450345496E+02 -0.74469225524E+02  0.16591692047E+03  0.18456222333E+03  0.00000000000E+00 0.  1.
         21    1    1    2  502  501 -0.17254255742E+01  0.23886662432E+02  0.12622729583E+03  0.12847910315E+03  0.00000000000E+00 0.  1.
<scales pt_clust_5="13000.00000" pt_clust_6="13000.00000" pt_clust_7="13000.00000" pt_clust_8="13000.00000" pt_clust_9="23.94890"></scales>
<clustering>
<clus scale="   23.949">  1  9  2 -1</clus>
<clus scale="   89.245">  7  8 -1 -1</clus>
<clus scale="   93.259">  5  6 -1 -1</clus>
<clus scale="  100.944">  1  7  2 -1</clus>
<clus scale="  104.509">  2  5  1 -1</clus>
</clustering>
</event>
<event>
 9    1  0.1484717E-005  0.9333197E+02  0.7546771E-02  0.1295029E+00
         -2   -1    0    0    0  501 -0.00000000000E+00  0.00000000000E+00  0.10328302730E+03  0.10328302730E+03  0.00000000000E+00 0.  1.
          2   -1    0    0  502    0  0.00000000000E+00 -0.00000000000E+00 -0.25729679488E+03  0.25729679488E+03  0.00000000000E+00 0. -1.
         23    2    1    2    0    0 -0.24195658428E+02 -0.21804602708E+02 -0.11397622452E+03  0.15036157423E+03  0.92504879126E+02 0.  0.
         23    2    1    2    0    0 -0.29575411012E+01 -0.89203367997E+01 -0.10069794900E+03  0.13699937742E+03  0.92414463277E+02 0.  0.
        -11    1    3    3    0    0 -0.41848336324E+02  0.93496133470E+01 -0.15530534618E+02  0.45605877125E+02  0.00000000000E+00 0.  1.
         11    1    3    3    0    0  0.17652677897E+02 -0.31154216055E+02 -0.98445689904E+02  0.10475569710E+03  0.00000000000E+00 0. -1.
        -11    1    4    4    0    0  0.40402812846E+01  0.41541117517E+02 -0.40793497307E+02  0.58361783214E+02  0.00000000000E+00 0.  1.
         11    1    4    4    0    0 -0.69978223858E+01 -0.50461454317E+02 -0.59904451693E+02  0.78637594206E+02  0.00000000000E+00 0. -1.
         21    1    1    2  502  501  0.27153199529E+02  0.30724939508E+02  0.60660405942E+02  0.73218870528E+02  0.00000000000E+00 0.  1.
<scales pt_clust_5="13000.00000" pt_clust_6="13000.00000" pt_clust_7="13000.00000" pt_clust_8="13000.00000" pt_clust_9="41.00388"></scales>
<clustering>
<clus scale="   41.004">  1  9  2 -1</clus>
<clus scale="   92.414">  7  8 -1 -1</clus>
<clus scale="   92.505">  5  6 -1 -1</clus>
<clus scale="   93.242">  2  7  1 -1</clus>
<clus scale="   93.242">  2  5  1 -1</clus>
</clustering>
</event>
<event>
 9    1  0.1484717E-005  0.9783469E+02  0.7546771E-02  0.1284954E+00
          2   -1    0    0  502    0  0.00000000000E+00  0.00000000000E+00  0.88856502859E+02  0.88856502859E+02  0.00000000000E+00 0. -1.
         -2   -1    0    0    0  501 -0.00000000000E+00 -0.00000000000E+00 -0.14154936797E+03  0.14154936797E+03  0.00000000000E+00 0.  1.
         23    2    1    2    0    0 -0.27755381310E+02  0.79001593789E+01 -0.23730877372E+02  0.99224249687E+02  0.91921289564E+02 0.  0.
         23    2    1    2    0    0  0.23897236407E+02 -0.33729171636E+02 -0.16323311597E+02  0.10216853287E+03  0.91995780776E+02 0.  0.
        -11    1    4    4    0    0  0.53721927713E+02 -0.25146050115E+02  0.11578021276E+02  0.60435254034E+02  0.00000000000E+00 0.  1.
         11    1    4    4    0    0 -0.29824691305E+02 -0.85831215213E+01 -0.27901332873E+02  0.41733278838E+02  0.00000000000E+00 0. -1.
        -13    1    3    3    0    0 -0.46677624451E+02 -0.97452260954E+01  0.17293055639E+02  0.50722971417E+02  0.00000000000E+00 0. -1.
         13    1    3    3    0    0  0.18922243141E+02  0.17645385474E+02 -0.41023933012E+02  0.48501278269E+02  0.00000000000E+00 0.  1.
         21    1    1    2  502  501  0.38581449030E+01  0.25829012257E+02 -0.12638676138E+02  0.29013088267E+02  0.00000000000E+00 0. -1.
<scales pt_clust_5="13000.00000" pt_clust_6="13000.00000" pt_clust_7="13000.00000" pt_clust_8="13000.00000" pt_clust_9="26.11557"></scales>
<clustering>
<clus scale="   26.116">  2  9  1 -1</clus>
<clus scale="   91.921">  7  8 -1 -1</clus>
<clus scale="   91.996">  5  6 -1 -1</clus>
<clus scale="   97.765">  2  7  1 -1</clus>
<clus scale="   97.835">  1  5  2 -1</clus>
</clustering>
</event>
<event>
 9    1  0.1484717E-005  0.9810765E+02  0.7546771E-02  0.1284908E+00
          1   -1    0    0  502    0  0.00000000000E+00  0.00000000000E+00  0.15797386776E+03  0.15797386776E+03  0.00000000000E+00 0. -1.
         -1   -1    0    0    0  501 -0.00000000000E+00 -0.00000000000E+00 -0.14798029940E+03  0.14798029940E+03  0.00000000000E+00 0.  1.
         23    2    1    2    0    0 -0.26128104037E+02 -0.28508262664E+02 -0.15560995164E+02  0.99383902632E+02  0.90219824158E+02 0.  0.
         23    2    1    2    0    0 -0.10042776298E+02  0.38538244140E+02  0.88493102873E+02  0.13328866487E+03  0.91371687687E+02 0.  0.
        -11    1    4    4    0    0  0.16095600438E+02  0.58458122877E+02  0.33629077154E+02  0.69334950162E+02  0.00000000000E+00 0.  1.
         11    1    4    4    0    0 -0.26138376737E+02 -0.19919878737E+02  0.54864025719E+02  0.63953714712E+02  0.00000000000E+00 0. -1.
        -13    1    3    3    0    0 -0.54989207825E+02 -0.10766369513E+02  0.10033266031E+02  0.56924459742E+02  0.00000000000E+00 0.  1.
         13    1    3    3    0    0  0.28861103787E+02 -0.17741893151E+02 -0.25594261195E+02  0.42459442890E+02  0.00000000000E+00 0. -1.
         21    1    1    2  502  501  0.36170880336E+02 -0.10029981476E+02 -0.62938539347E+02  0.73281599653E+02  0.00000000000E+00 0.  1.
<scales pt_clust_5="13000.00000" pt_clust_6="13000.00000" pt_clust_7="13000.00000" pt_clust_8="13000.00000" pt_clust_9="37.53576"></scales>
<clustering>
<clus scale="   37.536">  2  9  1 -1</clus>
<clus scale="   90.220">  7  8 -1 -1</clus>
<clus scale="   91.372">  5  6 -1 -1</clus>
<clus scale="   97.036">  2  7  1 -1</clus>
<clus scale="   98.108">  1  5  2 -1</clus>
</clustering>
</event>
<event>
 9    1  0.1484717E-005  0.9852273E+02  0.7546771E-02  0.1294533E+00
          2   -1    0    0  502    0  0.00000000000E+00  0.00000000000E+00  0.24807013657E+02  0.24807013657E+02  0.00000000000E+00 0. -1.
         -2   -1    0    0    0  501 -0.00000000000E+00 -0.00000000000E+00 -0.45371346298E+03  0.45371346298E+03  0.00000000000E+00 0.  1.
         23    2    1    2    0    0 -0.50952790849E+02  0.11050822161E+02 -0.19203718687E+03  0.21057046980E+03  0.68871866877E+02 0.  0.
         23    2    1    2    0    0  0.32189051732E+02  0.50427839955E+01 -0.15140525725E+03  0.17898271931E+03  0.89720104573E+02 0.  0.
        -11    1    3    3    0    0  0.41360995244E+01  0.23672884936E+02 -0.97588474182E+02  0.10050384616E+03  0.00000000000E+00 0. -1.
         11    1    3    3    0    0 -0.55088890374E+02 -0.12622062776E+02 -0.94448712684E+02  0.11006662364E+03  0.00000000000E+00 0.  1.
        -13    1    4    4    0    0  0.23333607589E+02 -0.40046221240E+02 -0.98823421897E+02  0.10915230549E+03  0.00000000000E+00 0.  1.
         13    1    4    4    0    0  0.88554441430E+01  0.45089005236E+02 -0.52581835357E+02  0.69830413815E+02  0.00000000000E+00 0. -1.
         21    1    1    2  502  501  0.18763739117E+02 -0.16093606156E+02 -0.85464005202E+02  0.88967287527E+02  0.00000000000E+00 0.  1.
<scales pt_clust_5="13000.00000" pt_clust_6="13000.00000" pt_clust_7="13000.00000" pt_clust_8="13000.00000" pt_clust_9="24.72007"></scales>
<clustering>
<clus scale="   24.720">  2  9  1 -1</clus>
<clus scale="   68.872">  5  6 -1 -1</clus>
<clus scale="   80.002">  2  5  1 -1</clus>
<clus scale="   89.720">  7  8 -1 -1</clus>
<clus scale="   98.523">  1  5  2 -1</clus>
</clustering>
</event>
<event>
 9    1  0.1484717E-005  0.9456150E+02  0.7546771E-02  0.1292726E+00
         -1   -1    0    0    0  501 -0.00000000000E+00  0.00000000000E+00  0.37844769596E+02  0.37844769596E+02  0.00000000000E+00 0.  1.
          1   -1    0    0  502    0  0.00000000000E+00 -0.00000000000E+00 -0.37934201333E+03  0.37934201333E+03  0.00000000000E+00 0. -1.
         23    2    1    2    0    0 -0.23546343924E+01 -0.42386014645E+02 -0.86998142687E+02  0.13296473234E+03  0.91152754618E+02 0.  0.
         23    2    1    2    0    0  0.42601502947E+01  0.11818994791E+02 -0.21486879810E+03  0.23413677725E+03  0.92160688723E+02 0.  0.
        -13    1    4    4    0    0  0.36423243292E+02  0.37166696116E+02 -0.12285806071E+03  0.13342458182E+03  0.00000000000E+00 0. -1.
         13    1    4    4    0    0 -0.32163092997E+02 -0.25347701325E+02 -0.92010737395E+02  0.10071219544E+03  0.00000000000E+00 0.  1.
        -13    1    3    3    0    0 -0.36131000660E+02 -0.78091963506E+01 -0.74301296331E+02  0.82988646168E+02  0.00000000000E+00 0. -1.
         13    1    3    3    0    0  0.33776366268E+02 -0.34576818294E+02 -0.12696846356E+02  0.49976086171E+02  0.00000000000E+00 0.  1.
         21    1    1    2  502  501 -0.19055159023E+01  0.30567019853E+02 -0.39630302950E+02  0.50085273339E+02  0.00000000000E+00 0. -1.
<scales pt_clust_5="13000.00000" pt_clust_6="13000.00000" pt_clust_7="13000.00000" pt_clust_8="13000.00000" pt_clust_9="30.62636"></scales>
<clustering>
<clus scale="   30.626">  1  9  2 -1</clus>
<clus scale="   91.153">  7  8 -1 -1</clus>
<clus scale="   92.161">  5  6 -1 -1</clus>
<clus scale="   93.579">  1  7  2 -1</clus>
<clus scale="   94.561">  2  5  1 -1</clus>
</clustering>
</event>
<event>
 9    1  0.1484717E-005  0.1081196E+03  0.7546771E-02  0.1265983E+00
         -2   -1    0    0    0  501 -0.00000000000E+00  0.00000000000E+00  0.94475490059E+02  0.94475490059E+02  0.00000000000E+00 0.  1.
          2   -1    0    0  502    0  0.00000000000E+00 -0.00000000000E+00 -0.40311730251E+03  0.40311730251E+03  0.00000000000E+00 0. -1.
         23    2    1    2    0    0 -0.58966036555E+01 -0.21973572266E+02  0.30580392794E+02  0.10073287297E+03  0.93243463361E+02 0.  0.
         23    2    1    2    0    0  0.21681775410E+02  0.44608758768E+02 -0.35038660218E+03  0.36709136112E+03  0.97597416327E+02 0.  0.
        -11    1    4    4    0    0 -0.16260835614E+02 -0.24556464151E+02 -0.12043469442E+03  0.12398366960E+03  0.00000000000E+00 0.  1.
         11    1    4    4    0    0  0.37942611024E+02  0.69165222919E+02 -0.22995190776E+03  0.24310769152E+03  0.00000000000E+00 0. -1.
        -13    1    3    3    0    0 -0.26170477106E+02  0.29268869521E+02  0.21865680732E+02  0.44940723057E+02  0.00000000000E+00 0. -1.
         13    1    3    3    0    0  0.20273873451E+02 -0.51242441787E+02  0.87147120617E+01  0.55792149908E+02  0.00000000000E+00 0.  1.
         21    1    1    2  502  501 -0.15785171755E+02 -0.22635186501E+02  0.11164396940E+02  0.29768558486E+02  0.00000000000E+00 0.  1.
<scales pt_clust_5="13000.00000" pt_clust_6="13000.00000" pt_clust_7="13000.00000" pt_clust_8="13000.00000" pt_clust_9="27.59571"></scales>
<clustering>
<clus scale="   27.596">  1  9  2 -1</clus>
<clus scale="   93.243">  7  8 -1 -1</clus>
<clus scale="   97.597">  5  6 -1 -1</clus>
<clus scale="  104.206">  1  7  2 -1</clus>
<clus scale="  108.120">  2  5  1 -1</clus>
</clustering>
</event>
<event>
 9    1  0.1484717E-005  0.9830894E+02  0.7546771E-02  0.1285720E+00
          1   -1    0    0  502    0  0.00000000000E+00  0.00000000000E+00  0.16347327627E+03  0.16347327627E+03  0.00000000000E+00 0. -1.
         -1   -1    0    0    0  501 -0.00000000000E+00 -0.00000000000E+00 -0.21252200196E+03  0.21252200196E+03  0.00000000000E+00 0.  1.
         23    2    1    2    0    0  0.31879171151E+02  0.59064016421E+01 -0.10037084309E+03  0.13831660904E+03  0.89476315639E+02 0.  0.
         23    2    1    2    0    0  0.27380193139E+02  0.31099986448E+02  0.10747191803E+03  0.14804639193E+03  0.93008799936E+02 0.  0.
        -11    1    4    4    0    0 -0.34728611418E+02  0.13542794121E+02  0.39851649014E+02  0.54567734540E+02  0.00000000000E+00 0.  1.
         11    1    4    4    0    0  0.62108804558E+02  0.17557192327E+02  0.67620269012E+02  0.93478657389E+02  0.00000000000E+00 0. -1.
        -11    1    3    3    0    0  0.37490469032E+02 -0.13471704485E+02 -0.10924124406E+03  0.11627842230E+03  0.00000000000E+00 0.  1.
         11    1    3    3    0    0 -0.56112978808E+01  0.19378106127E+02  0.88704009748E+01  0.22038186732E+02  0.00000000000E+00 0. -1.
         21    1    1    2  502  501 -0.59259364290E+02 -0.37006388090E+02 -0.56149800632E+02  0.89632277259E+02  0.00000000000E+00 0.  1.
<scales pt_clust_5="13000.00000" pt_clust_6="13000.00000" pt_clust_7="13000.00000" pt_clust_8="13000.00000" pt_clust_9="69.86519"></scales>
<clustering>
<clus scale="   69.865">  2  9  1 -1</clus>
<clus scale="   89.476">  7  8 -1 -1</clus>
<clus scale="   93.009">  5  6 -1 -1</clus>
<clus scale="   94.974">  2  7  1 -1</clus>
<clus scale="   98.309">  1  5  2 -1</clus>
</clustering>
</event>
<event>
 9    1  0.1484717E-005  0.1550509E+03  0.7546771E-02  0.1212736E+00
          2   -1    0    0  502    0  0.00000000000E+00  0.00000000000E+00  0.40947284792E+03  0.40947284792E+03  0.00000000000E+00 0. -1.
         -2   -1    0    0    0  501 -0.00000000000E+00 -0.00000000000E+00 -0.59006350714E+03  0.59006350714E+03  0.00000000000E+00 0.  1.
         23    2    1    2    0    0 -0.14781532461E+03  0.15805655729E+02  0.30488686903E+03  0.35131643624E+03  0.91477027273E+02 0.  0.
         23    2    1    2    0    0  0.26597904103E+02 -0.45746286603E+02  0.37228794937E+02  0.11080759601E+03  0.89956483483E+02 0.  0.
        -11    1    4    4    0    0  0.40772935723E+02 -0.66820012907E+02  0.22493958599E+02  0.81445224451E+02  0.00000000000E+00 0.  1.
         11    1    4    4    0    0 -0.14175031620E+02  0.21073726304E+02  0.14734836338E+02  0.29362371560E+02  0.00000000000E+00 0. -1.
        -13    1    3    3    0    0 -0.36946869921E+02  0.40867228750E+01  0.13869793391E+02  0.39675479450E+02  0.00000000000E+00 0.  1.
         13    1    3    3    0    0 -0.11086845469E+03  0.11718932854E+02  0.29101707564E+03  0.31164095679E+03  0.00000000000E+00 0. -1.
         21    1    1    2  502  501  0.12121742051E+03  0.29940630874E+02 -0.52270632319E+03  0.53741232281E+03  0.00000000000E+00 0.  1.
<scales pt_clust_5="13000.00000" pt_clust_6="13000.00000" pt_clust_7="13000.00000" pt_clust_8="13000.00000" pt_clust_9="125.19084"></scales>
<clustering>
<clus scale="   89.956">  5  6 -1 -1</clus>
<clus scale="   91.477">  7  8 -1 -1</clus>
<clus scale="  104.366">  1  5  2 -1</clus>
<clus scale="  125.191">  2  9  1 -1</clus>
<clus scale="  104.366">  1  5  2 -1</clus>
</clustering>
</event>
<event>
 9    1  0.1484717E-005  0.1037589E+03  0.7546771E-02  0.1274866E+00
          2   -1    0    0  502    0  0.00000000000E+00  0.00000000000E+00  0.17456030627E+03  0.17456030627E+03  0.00000000000E+00 0. -1.
         -2   -1    0    0    0  501 -0.00000000000E+00 -0.00000000000E+00 -0.11612417490E+03  0.11612417490E+03  0.00000000000E+00 0.  1.
         23    2    1    2    0    0 -0.14391006584E+02  0.24429598542E+02 -0.54783958024E+02  0.10956872682E+03  0.90554500084E+02 0.  0.
         23    2    1    2    0    0  0.72575139587E+01 -0.43541808277E+02  0.12007394756E+03  0.15959509799E+03  0.95416360454E+02 0.  0.
        -11    1    3    3    0    0  0.33239230368E+02  0.56587758784E-01 -0.43740153566E+02  0.54936787963E+02  0.00000000000E+00 0.  1.
         11    1    3    3    0    0 -0.47630236953E+02  0.24373010783E+02 -0.11043804458E+02  0.54631938861E+02  0.00000000000E+00 0. -1.
        -13    1    4    4    0    0  0.35186258745E+02 -0.58745770128E+02  0.57548783884E+02  0.89448313785E+02  0.00000000000E+00 0. -1.
         13    1    4    4    0    0 -0.27928744786E+02  0.15203961852E+02  0.62525163678E+02  0.70146784205E+02  0.00000000000E+00 0.  1.
         21    1    1    2  502  501  0.71334926253E+01  0.19112209735E+02 -0.68538581696E+01  0.21520656351E+02  0.00000000000E+00 0.  1.
<scales pt_clust_5="13000.00000" pt_clust_6="13000.00000" pt_clust_7="13000.00000" pt_clust_8="13000.00000" pt_clust_9="20.40008"></scales>
<clustering>
<clus scale="   20.400">  2  9  1 -1</clus>
<clus scale="   90.555">  5  6 -1 -1</clus>
<clus scale="   95.416">  7  8 -1 -1</clus>
<clus scale="   99.306">  2  5  1 -1</clus>
<clus scale="  103.759">  1  5  2 -1</clus>
</clustering>
</event>
<event>
 9    1  0.1484717E-005  0.1953888E+03  0.7546771E-02  0.1155513E+00
         -2   -1    0    0    0  501 -0.00000000000E+00  0.00000000000E+00  0.23657194248E+03  0.23657194248E+03  0.00000000000E+00 0.  1.
          2   -1    0    0  502    0  0.00000000000E+00 -0.00000000000E+00 -0.30738213336E+03  0.30738213336E+03  0.00000000000E+00 0. -1.
         23    2    1    2    0    0  0.41517440442E+01  0.17952839355E+03  0.11131390944E+03  0.23758201143E+03  0.10865884524E+03 0.  0.
         23    2    1    2    0    0 -0.39865461265E+01 -0.15886099576E+03 -0.20497149812E+03  0.27556342589E+03  0.93108421335E+02 0.  0.
        -11    1    4    4    0    0  0.10278226904E+02 -0.32079475126E+02 -0.11399250761E+03  0.11886558150E+03  0.00000000000E+00 0. -1.
         11    1    4    4    0    0 -0.14264773031E+02 -0.12678152064E+03 -0.90978990504E+02  0.15669784439E+03  0.00000000000E+00 0.  1.
        -13    1    3    3    0    0 -0.24277590555E+02  0.11286785422E+03  0.14068610305E+02  0.11630339512E+03  0.00000000000E+00 0.  1.
         13    1    3    3    0    0  0.28429334599E+02  0.66660539329E+02  0.97245299137E+02  0.12127861631E+03  0.00000000000E+00 0. -1.
         21    1    1    2  502  501 -0.16519791769E+00 -0.20667397791E+02  0.22847397794E+02  0.30808638525E+02  0.00000000000E+00 0. -1.
<scales pt_clust_5="13000.00000" pt_clust_6="13000.00000" pt_clust_7="13000.00000" pt_clust_8="13000.00000" pt_clust_9="20.66806"></scales>
<clustering>
<clus scale="   20.668">  1  9  2 -1</clus>
<clus scale="   93.108">  5  6 -1 -1</clus>
<clus scale="  108.659">  7  8 -1 -1</clus>
<clus scale="  187.188">  2  5  1 -1</clus>
<clus scale="  187.188">  2  5  1 -1</clus>
</clustering>
</event>
<event>
 9    1  0.1484717E-005  0.1454604E+03  0.7546771E-02  0.1226161E+00
          1   -1    0    0  502    0  0.00000000000E+00  0.00000000000E+00  0.18716647754E+03  0.18716647754E+03  0.00000000000E+00 0. -1.
         -1   -1    0    0    0  501 -0.00000000000E+00 -0.00000000000E+00 -0.24531186377E+03  0.24531186377E+03  0.00000000000E+00 0.  1.
         23    2    1    2    0    0  0.11980221821E+01 -0.27962196750E+02 -0.34631785727E+02  0.10142275271E+03  0.91125707022E+02 0.  0.
         23    2    1    2    0    0  0.34054014210E+02 -0.10261997487E+03  0.79064872258E+02  0.16130061021E+03  0.89867111342E+02 0.  0.
        -11    1    3    3    0    0 -0.92662208135E+01  0.29958698438E+02 -0.28271377301E+02  0.42221525727E+02  0.00000000000E+00 0.  1.
         11    1    3    3    0    0  0.10464242996E+02 -0.57920895188E+02 -0.63604084258E+01  0.59201226982E+02  0.00000000000E+00 0. -1.
        -13    1    4    4    0    0  0.11113096031E+02 -0.10327401888E+03  0.31587204329E+02  0.10856691650E+03  0.00000000000E+00 0. -1.
         13    1    4    4    0    0  0.22940918179E+02  0.65404401052E+00  0.47477667930E+02  0.52733693712E+02  0.00000000000E+00 0.  1.
         21    1    1    2  502  501 -0.35252036392E+02  0.13058217162E+03 -0.10257847276E+03  0.16975497839E+03  0.00000000000E+00 0.  1.
<scales pt_clust_5="13000.00000" pt_clust_6="13000.00000" pt_clust_7="13000.00000" pt_clust_8="13000.00000" pt_clust_9="114.37937"></scales>
<clustering>
<clus scale="   89.867">  7  8 -1 -1</clus>
<clus scale="   91.126">  5  6 -1 -1</clus>
<clus scale="   95.327">  2  5  1 -1</clus>
<clus scale="  114.379">  2  9  1 -1</clus>
<clus scale="  145.460">  1  5  2 -1</clus>
</clustering>
</event>
<event>
 9    1  0.1484717E-005  0.9838668E+02  0.7546771E-02  0.1285318E+00
          1   -1    0    0  502    0  0.00000000000E+00  0.00000000000E+00  0.65251832400E+03  0.65251832400E+03  0.00000000000E+00 0. -1.
         -1   -1    0    0    0  501 -0.00000000000E+00 -0.00000000000E+00 -0.21816887203E+02  0.21816887203E+02  0.00000000000E+00 0.  1.
         23    2    1    2    0    0 -0.38651686634E+01  0.42312474783E+02  0.24090809368E+03  0.26219571616E+03  0.94364182410E+02 0.  0.
         23    2    1    2    0    0  0.20900509111E+02 -0.61600166092E+01  0.27038953921E+03  0.28622495480E+03  0.91320560402E+02 0.  0.
        -13    1    3    3    0    0 -0.22690232275E+02  0.53625457418E+02  0.23077563136E+03  0.23800825270E+03  0.00000000000E+00 0.  1.
         13    1    3    3    0    0  0.18825063612E+02 -0.11312982635E+02  0.10132462323E+02  0.24187463464E+02  0.00000000000E+00 0. -1.
        -13    1    4    4    0    0 -0.26641104396E+02  0.14592404594E+02  0.40901703596E+02  0.50947385334E+02  0.00000000000E+00 0.  1.
         13    1    4    4    0    0  0.47541613507E+02 -0.20752421204E+02  0.22948783561E+03  0.23527756946E+03  0.00000000000E+00 0. -1.
         21    1    1    2  502  501 -0.17035340448E+02 -0.36152458174E+02  0.11940380391E+03  0.12591454024E+03  0.00000000000E+00 0. -1.
<scales pt_clust_5="13000.00000" pt_clust_6="13000.00000" pt_clust_7="13000.00000" pt_clust_8="13000.00000" pt_clust_9="39.96502"></scales>
<clustering>
<clus scale="   39.965">  1  9  2 -1</clus>
<clus scale="   91.321">  7  8 -1 -1</clus>
<clus scale="   94.364">  5  6 -1 -1</clus>
<clus scale="   95.471">  1  7  2 -1</clus>
<clus scale="   39.965">  1  5  2 -1</clus>
</clustering>
</event>
<event>
 9    1  0.1484717E-005  0.1156402E+03  0.7546771E-02  0.1251270E+00
         -1   -1    0    0    0  501 -0.00000000000E+00  0.00000000000E+00  0.25811345485E+02  0.25811345485E+02  0.00000000000E+00 0.  1.
          1   -1    0    0  502    0  0.00000000000E+00 -0.00000000000E+00 -0.93807997881E+03  0.93807997881E+03  0.00000000000E+00 0. -1.
         23    2    1    2    0    0 -0.83763427555E+02  0.42988566022E+02 -0.40029237149E+03  0.42091940524E+03  0.89860082524E+02 0.  0.
         23    2    1    2    0    0  0.57702683795E+02  0.19682464752E+02 -0.35874435998E+03  0.37538064181E+03  0.92174352666E+02 0.  0.
        -13    1    3    3    0    0 -0.74953435258E+02 -0.10719431258E+02 -0.23048472509E+03  0.24260282802E+03  0.00000000000E+00 0.  1.
         13    1    3    3    0    0 -0.88099922970E+01  0.53707997279E+02 -0.16980764640E+03  0.17831657722E+03  0.00000000000E+00 0. -1.
        -13    1    4    4    0    0 -0.23279117064E+01  0.26367903652E+02 -0.25668063681E+02  0.36871872871E+02  0.00000000000E+00 0.  1.
         13    1    4    4    0    0  0.60030595502E+02 -0.66854388996E+01 -0.33307629630E+03  0.33850876893E+03  0.00000000000E+00 0. -1.
         21    1    1    2  502  501  0.26060743759E+02 -0.62671030774E+02 -0.15323190186E+03  0.16759127725E+03  0.00000000000E+00 0.  1.
<scales pt_clust_5="13000.00000" pt_clust_6="13000.00000" pt_clust_7="13000.00000" pt_clust_8="13000.00000" pt_clust_9="67.87356"></scales>
<clustering>
<clus scale="   67.874">  1  9  2 -1</clus>
<clus scale="   89.860">  5  6 -1 -1</clus>
<clus scale="   92.174">  7  8 -1 -1</clus>
<clus scale="  113.804">  1  5  2 -1</clus>
<clus scale="  115.640">  2  5  1 -1</clus>
</clustering>
</event>
<event>
 9    1  0.1484717E-005  0.1690384E+03  0.7546771E-02  0.1178865E+00
          1   -1    0    0  502    0  0.00000000000E+00  0.00000000000E+00  0.29142321641E+03  0.29142321641E+03  0.00000000000E+00 0. -1.
         -1   -1    0    0    0  501 -0.00000000000E+00 -0.00000000000E+00 -0.27427299970E+03  0.27427299970E+03  0.00000000000E+00 0.  1.
         23    2    1    2    0    0 -0.12480929097E+03  0.40530762155E+02 -0.11698044599E+03  0.19796151689E+03  0.91017776452E+02 0.  0.
         23    2    1    2    0    0  0.12357180768E+03 -0.76043134176E+02  0.21764060632E+03  0.27697914505E+03  0.91090413116E+02 0.  0.
        -13    1    3    3    0    0 -0.12207611961E+03  0.14332845694E+02 -0.11958958698E+03  0.17149250351E+03  0.00000000000E+00 0.  1.
         13    1    3    3    0    0 -0.27331713560E+01  0.26197916461E+02  0.26091409870E+01  0.26469013379E+02  0.00000000000E+00 0. -1.
        -13    1    4    4    0    0  0.39715236029E+02 -0.66438824363E+02  0.59160120451E+02  0.97423494125E+02  0.00000000000E+00 0.  1.
         13    1    4    4    0    0  0.83856571655E+02 -0.96043098126E+01  0.15848048587E+03  0.17955565092E+03  0.00000000000E+00 0. -1.
         21    1    1    2  502  501  0.12374832843E+01  0.35512372021E+02 -0.83509943623E+02  0.90755554184E+02  0.00000000000E+00 0. -1.
<scales pt_clust_5="13000.00000" pt_clust_6="13000.00000" pt_clust_7="13000.00000" pt_clust_8="13000.00000" pt_clust_9="35.53393"></scales>
<clustering>
<clus scale="   35.534">  2  9  1 -1</clus>
<clus scale="   91.018">  5  6 -1 -1</clus>
<clus scale="   91.090">  7  8 -1 -1</clus>
<clus scale="  168.999">  2  5  1 -1</clus>
<clus scale="  169.038">  1  5  2 -1</clus>
</clustering>
</event>
<event>
 9    1  0.1484717E-005  0.1334167E+03  0.7546771E-02  0.1222617E+00
          1   -1    0    0  502    0  0.00000000000E+00  0.00000000000E+00  0.13256378099E+03  0.13256378099E+03  0.00000000000E+00 0. -1.
         -1   -1    0    0    0  501 -0.00000000000E+00 -0.00000000000E+00 -0.21825603339E+03  0.21825603339E+03  0.00000000000E+00 0.  1.
         23    2    1    2    0    0  0.51693632600E+02 -0.79654043976E+02 -0.60016645480E+02  0.14327599707E+03  0.88932644328E+02 0.  0.
         23    2    1    2    0    0 -0.83234515511E+02  0.62295650719E+02  0.31469785643E+02  0.14000318508E+03  0.88327865100E+02 0.  0.
        -11    1    4    4    0    0 -0.87958620749E+02  0.40080159583E+02 -0.52771444690E+01  0.96803855347E+02  0.00000000000E+00 0.  1.
         11    1    4    4    0    0  0.47241052377E+01  0.22215491136E+02  0.36746930112E+02  0.43199329733E+02  0.00000000000E+00 0. -1.
        -13    1    3    3    0    0  0.72283208371E+02 -0.77062557610E+02 -0.61873394981E+02  0.12244107564E+03  0.00000000000E+00 0. -1.
         13    1    3    3    0    0 -0.20589575771E+02 -0.25914863661E+01  0.18567495019E+01  0.20834921423E+02  0.00000000000E+00 0.  1.
         21    1    1    2  502  501  0.31540882911E+02  0.17358393257E+02 -0.57145392562E+02  0.67540632233E+02  0.00000000000E+00 0. -1.
<scales pt_clust_5="13000.00000" pt_clust_6="13000.00000" pt_clust_7="13000.00000" pt_clust_8="13000.00000" pt_clust_9="36.00196"></scales>
<clustering>
<clus scale="   36.002">  2  9  1 -1</clus>
<clus scale="   88.328">  5  6 -1 -1</clus>
<clus scale="   88.933">  7  8 -1 -1</clus>
<clus scale="  133.014">  1  5  2 -1</clus>
<clus scale="  133.014">  1  5  2 -1</clus>
</clustering>
</event>
<event>
 9    1  0.1484717E-005  0.1009628E+03  0.7546771E-02  0.1282463E+00
         -1   -1    0    0    0  501 -0.00000000000E+00  0.00000000000E+00  0.24972171436E+03  0.24972171436E+03  0.00000000000E+00 0.  1.
          1   -1    0    0  502    0  0.00000000000E+00 -0.00000000000E+00 -0.12673300293E+03  0.12673300293E+03  0.00000000000E+00 0. -1.
         23    2    1    2    0    0 -0.46524608263E+02  0.65792522908E+01  0.16537535628E+03  0.19713667369E+03  0.96467786920E+02 0.  0.
         23    2    1    2    0    0  0.27492602243E+02  0.62268702499E+01 -0.88257907892E+02  0.12803074693E+03  0.88361738110E+02 0.  0.
        -11    1    3    3    0    0  0.25077512749E+02  0.10075679837E+01  0.12083855609E+02  0.27855276076E+02  0.00000000000E+00 0. -1.
         11    1    3    3    0    0 -0.71602121012E+02  0.55716843070E+01  0.15329150067E+03  0.16928139761E+03  0.00000000000E+00 0.  1.
        -11    1    4    4    0    0 -0.77283801277E+01 -0.26528255624E+02 -0.12949200234E+00  0.27631376622E+02  0.00000000000E+00 0.  1.
         11    1    4    4    0    0  0.35220982371E+02  0.32755125874E+02 -0.88128415890E+02  0.10039937030E+03  0.00000000000E+00 0. -1.
         21    1    1    2  502  501  0.19032006020E+02 -0.12806122541E+02  0.45871263047E+02  0.51287296685E+02  0.00000000000E+00 0. -1.
<scales pt_clust_5="13000.00000" pt_clust_6="13000.00000" pt_clust_7="13000.00000" pt_clust_8="13000.00000" pt_clust_9="22.93936"></scales>
<clustering>
<clus scale="   22.939">  1  9  2 -1</clus>
<clus scale="   88.362">  7  8 -1 -1</clus>
<clus scale="   93.248">  2  7  1 -1</clus>
<clus scale="   96.468">  5  6 -1 -1</clus>
<clus scale="   93.248">  2  5  1 -1</clus>
</clustering>
</event>
<event>
 9    1  0.1484717E-005  0.1404350E+03  0.7546771E-02  0.1230615E+00
          1   -1    0    0  502    0  0.00000000000E+00  0.00000000000E+00  0.11506003361E+03  0.11506003361E+03  0.00000000000E+00 0. -1.
         -1   -1    0    0    0  501 -0.00000000000E+00 -0.00000000000E+00 -0.51188669945E+03  0.51188669945E+03  0.00000000000E+00 0.  1.
         23    2    1    2    0    0  0.39709894938E+02  0.45866733509E+02 -0.35494739235E+03  0.36785696872E+03  0.75169575628E+02 0.  0.
         23    2    1    2    0    0  0.77620564653E+02 -0.60713811651E+02 -0.42933643614E+02  0.14081895572E+03  0.90970113514E+02 0.  0.
        -11    1    3    3    0    0  0.19623454113E+02 -0.13463787959E+02 -0.38436989392E+02  0.45207916243E+02  0.00000000000E+00 0. -1.
         11    1    3    3    0    0  0.20086440824E+02  0.59330521468E+02 -0.31651040296E+03  0.32264905248E+03  0.00000000000E+00 0.  1.
        -11    1    4    4    0    0  0.79745598221E+02 -0.73657875392E+01 -0.32447211451E+02  0.86408545831E+02  0.00000000000E+00 0.  1.
         11    1    4    4    0    0 -0.21250335680E+01 -0.53348024112E+02 -0.10486432163E+02  0.54410409885E+02  0.00000000000E+00 0. -1.
         21    1    1    2  502  501 -0.11733045959E+03  0.14847078142E+02  0.10543701293E+01  0.11827080863E+03  0.00000000000E+00 0. -1.
<scales pt_clust_5="13000.00000" pt_clust_6="13000.00000" pt_clust_7="13000.00000" pt_clust_8="13000.00000" pt_clust_9="106.98802"></scales>
<clustering>
<clus scale="   75.170">  5  6 -1 -1</clus>
<clus scale="   90.970">  7  8 -1 -1</clus>
<clus scale="   96.598">  2  5  1 -1</clus>
<clus scale="  106.988">  1  9  2 -1</clus>
<clus scale="  106.988">  1  5  2 -1</clus>
</clustering>
</event>
<event>
 9    1  0.1484717E-005  0.9782093E+02  0.7546771E-02  0.1285024E+00
         -1   -1    0    0    0  501 -0.00000000000E+00  0.00000000000E+00  0.19749811866E+03  0.19749811866E+03  0.00000000000E+00 0.  1.
          1   -1    0    0  502    0  0.00000000000E+00 -0.00000000000E+00 -0.11237766769E+03  0.11237766769E+03  0.00000000000E+00 0. -1.
         23    2    1    2    0    0  0.28010306953E+01  0.21965333262E+02  0.13350638661E+02  0.94812279265E+02  0.91218458156E+02 0.  0.
         23    2    1    2    0    0  0.11857191195E+02 -0.43605014532E+02 -0.33157493416E+02  0.10692989177E+03  0.91063670636E+02 0.  0.
        -13    1    4    4    0    0 -0.19600035462E+02  0.19505982439E+02 -0.22423255197E+02  0.35601223500E+02  0.00000000000E+00 0.  1.
         13    1    4    4    0    0  0.31457226658E+02 -0.63110996971E+02 -0.10734238219E+02  0.71328668274E+02  0.00000000000E+00 0. -1.
        -13    1    3    3    0    0  0.29073536878E+02  0.24390937351E+02 -0.27018855469E+02  0.46585479737E+02  0.00000000000E+00 0. -1.
         13    1    3    3    0    0 -0.26272506182E+02 -0.24256040892E+01  0.40369494131E+02  0.48226799528E+02  0.00000000000E+00 0.  1.
         21    1    1    2  502  501 -0.14658221891E+02  0.21639681270E+02  0.10492730572E+03  0.10813361531E+03  0.00000000000E+00 0.  1.
<scales pt_clust_5="13000.00000" pt_clust_6="13000.00000" pt_clust_7="13000.00000" pt_clust_8="13000.00000" pt_clust_9="26.13693"></scales>
<clustering>
<clus scale="   26.137">  1  9  2 -1</clus>
<clus scale="   91.064">  5  6 -1 -1</clus>
<clus scale="   91.218">  7  8 -1 -1</clus>
<clus scale="   97.677">  2  5  1 -1</clus>
<clus scale="   97.677">  2  5  1 -1</clus>
</clustering>
</event>
<event>
 9    1  0.1484717E-005  0.1049897E+03  0.7546771E-02  0.1271568E+00
         -1   -1    0    0    0  501 -0.00000000000E+00  0.00000000000E+00  0.37856389113E+03  0.37856389113E+03  0.00000000000E+00 0.  1.
          1   -1    0    0  502    0  0.00000000000E+00 -0.00000000000E+00 -0.39855036367E+02  0.39855036367E+02  0.00000000000E+00 0. -1.
         23    2    1    2    0    0 -0.57140367575E+02 -0.27615465735E+01  0.12948110653E+03  0.16738432525E+03  0.89328089902E+02 0.  0.
         23    2    1    2    0    0  0.42324438983E+02 -0.11152530996E+02  0.11222522576E+03  0.15192555795E+03  0.92580434105E+02 0.  0.
        -11    1    3    3    0    0 -0.15547265437E+02  0.41788606041E+02  0.46466796543E+02  0.64398511150E+02  0.00000000000E+00 0. -1.
         11    1    3    3    0    0 -0.41593102138E+02 -0.44550152615E+02  0.83014309983E+02  0.10298581410E+03  0.00000000000E+00 0.  1.
        -13    1    4    4    0    0  0.43435491441E+02  0.22603829281E+02  0.10710243782E+03  0.11776462627E+03  0.00000000000E+00 0.  1.
         13    1    4    4    0    0 -0.11110524580E+01 -0.33756360277E+02  0.51227879403E+01  0.34160931676E+02  0.00000000000E+00 0. -1.
         21    1    1    2  502  501  0.14815928592E+02  0.13914077569E+02  0.97002522483E+02  0.99109044303E+02  0.00000000000E+00 0.  1.
<scales pt_clust_5="13000.00000" pt_clust_6="13000.00000" pt_clust_7="13000.00000" pt_clust_8="13000.00000" pt_clust_9="20.32519"></scales>
<clustering>
<clus scale="   20.325">  1  9  2 -1</clus>
<clus scale="   89.328">  5  6 -1 -1</clus>
<clus scale="   92.580">  7  8 -1 -1</clus>
<clus scale="  102.133">  1  5  2 -1</clus>
<clus scale="  104.990">  2  5  1 -1</clus>
</clustering>
</event>
<event>
 9    1  0.1484717E-005  0.9534987E+02  0.7546771E-02  0.1290762E+00
          1   -1    0    0  502    0  0.00000000000E+00  0.00000000000E+00  0.27852079767E+03  0.27852079767E+03  0.00000000000E+00 0. -1.
         -1   -1    0    0    0  501 -0.00000000000E+00 -0.00000000000E+00 -0.14015686330E+03  0.14015686330E+03  0.00000000000E+00 0.  1.
         23    2    1    2    0    0 -0.58152333973E+02 -0.62425408647E+02 -0.11385654311E+02  0.12526787140E+03  0.91015278328E+02 0.  0.
         23    2    1    2    0    0 -0.23723687931E+02  0.16562752391E+02  0.17191582496E+03  0.19698153525E+03  0.91703523489E+02 0.  0.
        -11    1    3    3    0    0 -0.32636095648E+02  0.24215555619E+01 -0.38466872445E+02  0.50504246814E+02  0.00000000000E+00 0.  1.
         11    1    3    3    0    0 -0.25516238325E+02 -0.64846964209E+02  0.27081218134E+02  0.74763624585E+02  0.00000000000E+00 0. -1.
        -13    1    4    4    0    0 -0.25935428077E+01 -0.37441144106E+02  0.78859414147E+02  0.87334832317E+02  0.00000000000E+00 0.  1.
         13    1    4    4    0    0 -0.21130145123E+02  0.54003896497E+02  0.93056410816E+02  0.10964670293E+03  0.00000000000E+00 0. -1.
         21    1    1    2  502  501  0.81876021904E+02  0.45862656256E+02 -0.22166236276E+02  0.96428254326E+02  0.00000000000E+00 0. -1.
<scales pt_clust_5="13000.00000" pt_clust_6="13000.00000" pt_clust_7="13000.00000" pt_clust_8="13000.00000" pt_clust_9="93.84597"></scales>
<clustering>
<clus scale="   91.015">  5  6 -1 -1</clus>
<clus scale="   91.704">  7  8 -1 -1</clus>
<clus scale="   93.846">  2  9  1 -1</clus>
<clus scale="   94.688">  2  5  1 -1</clus>
<clus scale="   95.350">  1  5  2 -1</clus>
</clustering>
</event>
<event>
 9    1  0.1484717E-005  0.1027683E+03  0.7546771E-02  0.1276198E+00
          1   -1    0    0  502    0  0.00000000000E+00  0.00000000000E+00  0.42677958451E+03  0.42677958451E+03  0.00000000000E+00 0. -1.
         -1   -1    0    0    0  501 -0.00000000000E+00 -0.00000000000E+00 -0.44441839431E+02  0.44441839431E+02  0.00000000000E+00 0.  1.
         23    2    1    2    0    0 -0.35466284116E+02  0.17079078995E+02  0.18054071648E+03  0.20733358777E+03  0.94035706328E+02 0.  0.
         23    2    1    2    0    0  0.24293027426E+02 -0.39566791192E+02  0.21323994657E+03  0.23629292293E+03  0.90594638162E+02 0.  0.
        -11    1    3    3    0    0 -0.41331141664E+02  0.47184312922E+02  0.15571486233E+03  0.16787418208E+03  0.00000000000E+00 0. -1.
         11    1    3    3    0    0  0.58648575487E+01 -0.30105233926E+02  0.24825854144E+02  0.39459405695E+02  0.00000000000E+00 0.  1.
        -13    1    4    4    0    0  0.16141167965E+02 -0.61001799351E+02  0.20020650451E+03  0.20991522402E+03  0.00000000000E+00 0.  1.
         13    1    4    4    0    0  0.81518594607E+01  0.21435008159E+02  0.13033442058E+02  0.26377698901E+02  0.00000000000E+00 0. -1.
         21    1    1    2  502  501  0.11173256690E+02  0.22487712197E+02 -0.11442917974E+02  0.27594913239E+02  0.00000000000E+00 0. -1.
<scales pt_clust_5="13000.00000" pt_clust_6="13000.00000" pt_clust_7="13000.00000" pt_clust_8="13000.00000" pt_clust_9="25.11053"></scales>
<clustering>
<clus scale="   25.111">  2  9  1 -1</clus>
<clus scale="   90.595">  7  8 -1 -1</clus>
<clus scale="   94.036">  5  6 -1 -1</clus>
<clus scale="   99.629">  1  7  2 -1</clus>
<clus scale="   99.629">  1  5  2 -1</clus>
</clustering>
</event>
<event>
 9    1  0.1484717E-005  0.1554662E+03  0.7546771E-02  0.1200158E+00
         -1   -1    0    0    0  501 -0.00000000000E+00  0.00000000000E+00  0.56731020019E+02  0.56731020019E+02  0.00000000000E+00 0.  1.
          1   -1    0    0  502    0  0.00000000000E+00 -0.00000000000E+00 -0.10477229692E+04  0.10477229692E+04  0.00000000000E+00 0. -1.
         23    2    1    2    0    0 -0.65250339066E+02  0.67505939243E+02 -0.35515634593E+03  0.37879788431E+03  0.92396691079E+02 0.  0.
         23    2    1    2    0    0  0.93307416037E+02 -0.49877444341E+02 -0.66352791135E+03  0.68247245839E+03  0.11960490784E+03 0.  0.
        -13    1    3    3    0    0  0.22725479394E+02  0.23437860687E+02 -0.72697803452E+02  0.79691601527E+02  0.00000000000E+00 0. -1.
         13    1    3    3    0    0 -0.87975818460E+02  0.44068078556E+02 -0.28245854248E+03  0.29910628278E+03  0.00000000000E+00 0.  1.
        -13    1    4    4    0    0 -0.11567718939E+02 -0.45266356287E+02 -0.11755753295E+03  0.12650149677E+03  0.00000000000E+00 0.  1.
         13    1    4    4    0    0  0.10487513498E+03 -0.46110880543E+01 -0.54597037840E+03  0.55597096161E+03  0.00000000000E+00 0. -1.
         21    1    1    2  502  501 -0.28057076971E+02 -0.17628494902E+02  0.27692308085E+02  0.43183646531E+02  0.00000000000E+00 0. -1.
<scales pt_clust_5="13000.00000" pt_clust_6="13000.00000" pt_clust_7="13000.00000" pt_clust_8="13000.00000" pt_clust_9="33.13553"></scales>
<clustering>
<clus scale="   33.136">  1  9  2 -1</clus>
<clus scale="   92.397">  5  6 -1 -1</clus>
<clus scale="  119.605">  7  8 -1 -1</clus>
<clus scale="  135.652">  1  5  2 -1</clus>
<clus scale="  155.466">  2  5  1 -1</clus>
</clustering>
</event>
<event>
 9    1  0.1484717E-005  0.1012057E+03  0.7546771E-02  0.1279225E+00
         -1   -1    0    0    0  501 -0.00000000000E+00  0.00000000000E+00  0.36699058235E+02  0.36699058235E+02  0.00000000000E+00 0.  1.
          1   -1    0    0  502    0  0.00000000000E+00 -0.00000000000E+00 -0.52749506747E+03  0.52749506747E+03  0.00000000000E+00 0. -1.
         23    2    1    2    0    0 -0.32948548309E+01  0.13354180893E+02 -0.16284725963E+03  0.18958933325E+03  0.96102523896E+02 0.  0.
         23    2    1    2    0    0 -0.92165280222E+01 -0.41991625737E+02 -0.32765235349E+03  0.34335217978E+03  0.93200931276E+02 0.  0.
        -11    1    4    4    0    0  0.33656541762E+01 -0.70852301268E+02 -0.23707681296E+03  0.24746068671E+03  0.00000000000E+00 0. -1.
         11    1    4    4    0    0 -0.12582182198E+02  0.28860675531E+02 -0.90575540537E+02  0.95891493077E+02  0.00000000000E+00 0.  1.
        -13    1    3    3    0    0 -0.12943084483E+02 -0.39656833051E+02 -0.54992221507E+02  0.69024142659E+02  0.00000000000E+00 0. -1.
         13    1    3    3    0    0  0.96482296525E+01  0.53011013944E+02 -0.10785503812E+03  0.12056519059E+03  0.00000000000E+00 0.  1.
         21    1    1    2  502  501  0.12511382853E+02  0.28637444843E+02 -0.29639611377E+00  0.31252612670E+02  0.00000000000E+00 0.  1.
<scales pt_clust_5="13000.00000" pt_clust_6="13000.00000" pt_clust_7="13000.00000" pt_clust_8="13000.00000" pt_clust_9="31.25121"></scales>
<clustering>
<clus scale="   31.251">  1  9  2 -1</clus>
<clus scale="   93.201">  5  6 -1 -1</clus>
<clus scale="   96.103">  7  8 -1 -1</clus>
<clus scale="   98.455">  2  5  1 -1</clus>
<clus scale="   98.455">  2  5  1 -1</clus>
</clustering>
</event>
<event>
 9    1  0.1484717E-005  0.1611205E+03  0.7546771E-02  0.1188213E+00
         -1   -1    0    0    0  501 -0.00000000000E+00  0.00000000000E+00  0.16834825662E+03  0.16834825662E+03  0.00000000000E+00 0.  1.
          1   -1    0    0  502    0  0.00000000000E+00 -0.00000000000E+00 -0.63035114039E+03  0.63035114039E+03  0.00000000000E+00 0. -1.
         23    2    1    2    0    0 -0.10186842492E+03 -0.80111151849E+02  0.85884711317E+02  0.18283525203E+03  0.96216282933E+02 0.  0.
         23    2    1    2    0    0  0.86580934109E+02  0.96099747818E+02 -0.56569231739E+03  0.58746782986E+03  0.91538153163E+02 0.  0.
        -11    1    4    4    0    0 -0.11926270150E+02  0.45917209728E+02 -0.19125845426E+03  0.19705436406E+03  0.00000000000E+00 0.  1.
         11    1    4    4    0    0  0.98507204259E+02  0.50182538090E+02 -0.37443386312E+03  0.39041346579E+03  0.00000000000E+00 0. -1.
        -13    1    3    3    0    0 -0.68015319745E+02 -0.90985322988E+01  0.31855401621E+01  0.68695084804E+02  0.00000000000E+00 0. -1.
         13    1    3    3    0    0 -0.33853105177E+02 -0.71012619550E+02  0.82699171155E+02  0.11414016723E+03  0.00000000000E+00 0.  1.
         21    1    1    2  502  501  0.15287490812E+02 -0.15988595969E+02  0.17804722301E+02  0.28396315124E+02  0.00000000000E+00 0. -1.
<scales pt_clust_5="13000.00000" pt_clust_6="13000.00000" pt_clust_7="13000.00000" pt_clust_8="13000.00000" pt_clust_9="22.12109"></scales>
<clustering>
<clus scale="   22.121">  1  9  2 -1</clus>
<clus scale="   91.538">  5  6 -1 -1</clus>
<clus scale="   96.216">  7  8 -1 -1</clus>
<clus scale="  158.371">  2  5  1 -1</clus>
<clus scale="  158.371">  2  5  1 -1</clus>
</clustering>
</event>
<event>
 9    1  0.1484717E-005  0.1352067E+03  0.7546771E-02  0.1220802E+00
         -1   -1    0    0    0  501 -0.00000000000E+00  0.00000000000E+00  0.57436740557E+02  0.57436740557E+02  0.00000000000E+00 0.  1.
          1   -1    0    0  502    0  0.00000000000E+00 -0.00000000000E+00 -0.71707650686E+03  0.71707650686E+03  0.00000000000E+00 0. -1.
         23    2    1    2    0    0  0.57461972858E+02  0.40487999585E-02 -0.14997287315E+03  0.18197416449E+03  0.85561998087E+02 0.  0.
         23    2    1    2    0    0 -0.14055128883E+03  0.40711606518E+02 -0.45222370998E+03  0.48362940334E+03  0.89325339089E+02 0.  0.
        -13    1    3    3    0    0  0.24181385469E+02 -0.27460783491E+02 -0.13762918618E+02  0.39092863313E+02  0.00000000000E+00 0.  1.
         13    1    3    3    0    0  0.33280587390E+02  0.27464832291E+02 -0.13620995454E+03  0.14288130117E+03  0.00000000000E+00 0. -1.
        -13    1    4    4    0    0 -0.59319456243E+02 -0.25241054654E+02 -0.13516747953E+03  0.14975365188E+03  0.00000000000E+00 0.  1.
         13    1    4    4    0    0 -0.81231832591E+02  0.65952661172E+02 -0.31705623046E+03  0.33387575146E+03  0.00000000000E+00 0. -1.
         21    1    1    2  502  501  0.83089315976E+02 -0.40715655318E+02 -0.57443183167E+02  0.10890967960E+03  0.00000000000E+00 0.  1.
<scales pt_clust_5="13000.00000" pt_clust_6="13000.00000" pt_clust_7="13000.00000" pt_clust_8="13000.00000" pt_clust_9="92.52891"></scales>
<clustering>
<clus scale="   85.562">  5  6 -1 -1</clus>
<clus scale="   89.325">  7  8 -1 -1</clus>
<clus scale="   92.529">  1  9  2 -1</clus>
<clus scale="  132.750">  1  5  2 -1</clus>
<clus scale="  135.207">  2  5  1 -1</clus>
</clustering>
</event>
<event>
 9    1  0.1484717E-005  0.1351724E+03  0.7546771E-02  0.1223732E+00
          1   -1    0    0  502    0  0.00000000000E+00  0.00000000000E+00  0.87050155546E+02  0.87050155546E+02  0.00000000000E+00 0. -1.
         -1   -1    0    0    0  501 -0.00000000000E+00 -0.00000000000E+00 -0.27695657806E+03  0.27695657806E+03  0.00000000000E+00 0.  1.
         23    2    1    2    0    0  0.10553089633E+02 -0.93441909279E+02 -0.12447056331E+03  0.18753114310E+03  0.10407809755E+03 0.  0.
         23    2    1    2    0    0  0.65779759134E+01  0.82986687483E+02 -0.17027742800E+02  0.12407205243E+03  0.90409458042E+02 0.  0.
        -13    1    3    3    0    0  0.19116841674E+02 -0.64803140255E+02 -0.13880860056E+03  0.15437852250E+03  0.00000000000E+00 0.  1.
         13    1    3    3    0    0 -0.85637520407E+01 -0.28638769023E+02  0.14338037241E+02  0.33152620592E+02  0.00000000000E+00 0. -1.
        -13    1    4    4    0    0 -0.30415233767E+02  0.53005662332E+02  0.19401971230E+02  0.64118040925E+02  0.00000000000E+00 0.  1.
         13    1    4    4    0    0  0.36993209681E+02  0.29981025151E+02 -0.36429714030E+02  0.59954011508E+02  0.00000000000E+00 0. -1.
         21    1    1    2  502  501 -0.17131065547E+02  0.10455221795E+02 -0.48408116397E+02  0.52403538074E+02  0.00000000000E+00 0.  1.
<scales pt_clust_5="13000.00000" pt_clust_6="13000.00000" pt_clust_7="13000.00000" pt_clust_8="13000.00000" pt_clust_9="20.06951"></scales>
<clustering>
<clus scale="   20.070">  2  9  1 -1</clus>
<clus scale="   90.409">  7  8 -1 -1</clus>
<clus scale="  104.078">  5  6 -1 -1</clus>
<clus scale="  124.953">  1  7  2 -1</clus>
<clus scale="  124.953">  1  5  2 -1</clus>
</clustering>
</event>
<event>
 9    1  0.1484717E-005  0.9949937E+02  0.7546771E-02  0.1281849E+00
          4   -1    0    0  502    0  0.00000000000E+00  0.00000000000E+00  0.63861349287E+02  0.63861349287E+02  0.00000000000E+00 0. -1.
         -4   -1    0    0    0  501 -0.00000000000E+00 -0.00000000000E+00 -0.56624374248E+03  0.56624374248E+03  0.00000000000E+00 0.  1.
         23    2    1    2    0    0  0.28684682330E+00  0.16725684154E+02 -0.19270420024E+03  0.21339444645E+03  0.90124636998E+02 0.  0.
         23    2    1    2    0    0  0.46686400177E+02 -0.13978343100E+02  0.12286280122E+00  0.10335664748E+03  0.91145858080E+02 0.  0.
        -11    1    4    4    0    0  0.70738104901E+02  0.11314017533E+01 -0.13225050013E+02  0.71972644128E+02  0.00000000000E+00 0.  1.
         11    1    4    4    0    0 -0.24051704725E+02 -0.15109744853E+02  0.13347912814E+02  0.31384003348E+02  0.00000000000E+00 0. -1.
        -13    1    3    3    0    0 -0.24646386917E+02 -0.21006651660E+02 -0.14113678755E+03  0.14480440809E+03  0.00000000000E+00 0. -1.
         13    1    3    3    0    0  0.24933233741E+02  0.37732335814E+02 -0.51567412689E+02  0.68590038360E+02  0.00000000000E+00 0.  1.
         21    1    1    2  502  501 -0.46973247000E+02 -0.27473410541E+01 -0.30980105575E+03  0.31335399784E+03  0.00000000000E+00 0.  1.
<scales pt_clust_5="13000.00000" pt_clust_6="13000.00000" pt_clust_7="13000.00000" pt_clust_8="13000.00000" pt_clust_9="47.05352"></scales>
<clustering>
<clus scale="   47.054">  2  9  1 -1</clus>
<clus scale="   90.125">  7  8 -1 -1</clus>
<clus scale="   91.146">  5  6 -1 -1</clus>
<clus scale="   98.565">  2  7  1 -1</clus>
<clus scale="   99.499">  1  5  2 -1</clus>
</clustering>
</event>
<event>
 9    1  0.1484717E-005  0.1055112E+03  0.7546771E-02  0.1269204E+00
          2   -1    0    0  502    0  0.00000000000E+00  0.00000000000E+00  0.16917481089E+03  0.16917481089E+03  0.00000000000E+00 0. -1.
         -2   -1    0    0    0  501 -0.00000000000E+00 -0.00000000000E+00 -0.62791650796E+03  0.62791650796E+03  0.00000000000E+00 0.  1.
         23    2    1    2    0    0 -0.45444778166E+02 -0.18613309336E+01 -0.16820509588E+03  0.19676620585E+03  0.91407292206E+02 0.  0.
         23    2    1    2    0    0  0.91331582701E+00 -0.58189003285E+02  0.13231661567E+03  0.17091396179E+03  0.91198143091E+02 0.  0.
        -11    1    3    3    0    0 -0.25760443624E+02  0.26869271266E+02 -0.15808738514E+02  0.40440999091E+02  0.00000000000E+00 0. -1.
         11    1    3    3    0    0 -0.19684334542E+02 -0.28730602200E+02 -0.15239635737E+03  0.15632520676E+03  0.00000000000E+00 0.  1.
        -13    1    4    4    0    0  0.30573452540E+02  0.11251355201E+02  0.36607247480E+02  0.49004281060E+02  0.00000000000E+00 0.  1.
         13    1    4    4    0    0 -0.29660136713E+02 -0.69440358486E+02  0.95709368190E+02  0.12190968073E+03  0.00000000000E+00 0. -1.
         21    1    1    2  502  501  0.44531462339E+02  0.60050334219E+02 -0.42285321686E+03  0.42941115122E+03  0.00000000000E+00 0. -1.
<scales pt_clust_5="13000.00000" pt_clust_6="13000.00000" pt_clust_7="13000.00000" pt_clust_8="13000.00000" pt_clust_9="74.76024"></scales>
<clustering>
<clus scale="   74.760">  2  9  1 -1</clus>
<clus scale="   91.198">  7  8 -1 -1</clus>
<clus scale="   91.407">  5  6 -1 -1</clus>
<clus scale="  105.330">  1  7  2 -1</clus>
<clus scale="  105.330">  1  5  2 -1</clus>
</clustering>
</event>
<event>
 9    1  0.1484717E-005  0.1084351E+03  0.7546771E-02  0.1266233E+00
          2   -1    0    0  502    0  0.00000000000E+00  0.00000000000E+00  0.38525845572E+03  0.38525845572E+03  0.00000000000E+00 0. -1.
         -2   -1    0    0    0  501 -0.00000000000E+00 -0.00000000000E+00 -0.55510565558E+02  0.55510565558E+02  0.00000000000E+00 0.  1.
         23    2    1    2    0    0 -0.33844511517E+02 -0.24925561915E+02  0.69848887681E+02  0.12017545218E+03  0.88298004504E+02 0.  0.
         23    2    1    2    0    0  0.55137677630E+02  0.17810561946E+02  0.27290009727E+03  0.29465035007E+03  0.94799715670E+02 0.  0.
        -11    1    4    4    0    0  0.78175483887E+02  0.25079430494E+02  0.16777766674E+03  0.18678792673E+03  0.00000000000E+00 0.  1.
         11    1    4    4    0    0 -0.23037806257E+02 -0.72688685483E+01  0.10512243053E+03  0.10786242334E+03  0.00000000000E+00 0. -1.
        -11    1    3    3    0    0  0.21075264099E+02 -0.34329023951E+02  0.18209148559E+02  0.44206580206E+02  0.00000000000E+00 0.  1.
         11    1    3    3    0    0 -0.54919775617E+02  0.94034620360E+01  0.51639739122E+02  0.75968871972E+02  0.00000000000E+00 0. -1.
         21    1    1    2  502  501 -0.21293166113E+02  0.71149999691E+01 -0.13001094796E+02  0.25943219029E+02  0.00000000000E+00 0.  1.
<scales pt_clust_5="13000.00000" pt_clust_6="13000.00000" pt_clust_7="13000.00000" pt_clust_8="13000.00000" pt_clust_9="22.45044"></scales>
<clustering>
<clus scale="   22.450">  2  9  1 -1</clus>
<clus scale="   88.298">  7  8 -1 -1</clus>
<clus scale="   94.800">  5  6 -1 -1</clus>
<clus scale="  102.799">  2  7  1 -1</clus>
<clus scale="  108.435">  1  5  2 -1</clus>
</clustering>
</event>
<event>
 9    1  0.1484717E-005  0.1935133E+03  0.7546771E-02  0.1184866E+00
          1   -1    0    0  502    0  0.00000000000E+00  0.00000000000E+00  0.14159631634E+04  0.14159631634E+04  0.00000000000E+00 0. -1.
         -1   -1    0    0    0  501 -0.00000000000E+00 -0.00000000000E+00 -0.42159511259E+02  0.42159511259E+02  0.00000000000E+00 0.  1.
         23    2    1    2    0    0  0.32434961126E+02 -0.23690156382E+02  0.15296215544E+03  0.18191758673E+03  0.89907380962E+02 0.  0.
         23    2    1    2    0    0  0.97143479398E+02  0.13990792635E+03  0.53331182173E+03  0.56698425049E+03  0.89658003848E+02 0.  0.
        -11    1    4    4    0    0  0.93145417785E+02  0.66774649751E+02  0.26220393156E+03  0.28615699263E+03  0.00000000000E+00 0. -1.
         11    1    4    4    0    0  0.39980616135E+01  0.73133276598E+02  0.27110789017E+03  0.28082725786E+03  0.00000000000E+00 0.  1.
        -13    1    3    3    0    0  0.19222941528E+02  0.33804222970E+02  0.51220518681E+02  0.64310096450E+02  0.00000000000E+00 0.  1.
         13    1    3    3    0    0  0.13212019598E+02 -0.57494379352E+02  0.10174163676E+03  0.11760749028E+03  0.00000000000E+00 0. -1.
         21    1    1    2  502  501 -0.12957844052E+03 -0.11621776997E+03  0.68752967496E+03  0.70922083744E+03  0.00000000000E+00 0. -1.
<scales pt_clust_5="13000.00000" pt_clust_6="13000.00000" pt_clust_7="13000.00000" pt_clust_8="13000.00000" pt_clust_9="171.49008"></scales>
<clustering>
<clus scale="   89.658">  5  6 -1 -1</clus>
<clus scale="   89.907">  7  8 -1 -1</clus>
<clus scale="   98.471">  2  7  1 -1</clus>
<clus scale="  171.490">  1  9  2 -1</clus>
<clus scale="  171.490">  1  5  2 -1</clus>
</clustering>
</event>
<event>
 9    1  0.1484717E-005  0.1175915E+03  0.7546771E-02  0.1247994E+00
          2   -1    0    0  502    0  0.00000000000E+00  0.00000000000E+00  0.78138460523E+03  0.78138460523E+03  0.00000000000E+00 0. -1.
         -2   -1    0    0    0  501 -0.00000000000E+00 -0.00000000000E+00 -0.50646213028E+02  0.50646213028E+02  0.00000000000E+00 0.  1.
         23    2    1    2    0    0 -0.13707763859E+01  0.89951671124E+02  0.35165759162E+03  0.37385345787E+03  0.89499519847E+02 0.  0.
         23    2    1    2    0    0 -0.48737314248E+02 -0.50855217430E+02  0.37717056915E+03  0.39459275201E+03  0.92109840793E+02 0.  0.
        -11    1    3    3    0    0 -0.23664919251E+02 -0.24829787629E+01  0.13739221119E+03  0.13943748880E+03  0.00000000000E+00 0. -1.
         11    1    3    3    0    0  0.22294142865E+02  0.92434649887E+02  0.21426538042E+03  0.23441596907E+03  0.00000000000E+00 0.  1.
        -11    1    4    4    0    0 -0.14918948613E+02  0.17699691473E+02  0.24394332392E+02  0.33629415083E+02  0.00000000000E+00 0.  1.
         11    1    4    4    0    0 -0.33818365635E+02 -0.68554908904E+02  0.35277623675E+03  0.36096333693E+03  0.00000000000E+00 0. -1.
         21    1    1    2  502  501  0.50108090634E+02 -0.39096453694E+02  0.19102314405E+01  0.63584608378E+02  0.00000000000E+00 0.  1.
<scales pt_clust_5="13000.00000" pt_clust_6="13000.00000" pt_clust_7="13000.00000" pt_clust_8="13000.00000" pt_clust_9="63.55591"></scales>
<clustering>
<clus scale="   63.556">  2  9  1 -1</clus>
<clus scale="   89.500">  5  6 -1 -1</clus>
<clus scale="   92.110">  7  8 -1 -1</clus>
<clus scale="  115.558">  2  5  1 -1</clus>
<clus scale="  117.591">  1  5  2 -1</clus>
</clustering>
</event>
<event>
 9    1  0.1484717E-005  0.1088674E+03  0.7546771E-02  0.1267736E+00
         -1   -1    0    0    0  501 -0.00000000000E+00  0.00000000000E+00  0.65252929361E+02  0.65252929361E+02  0.00000000000E+00 0.  1.
          1   -1    0    0  502    0  0.00000000000E+00 -0.00000000000E+00 -0.35110275341E+03  0.35110275341E+03  0.00000000000E+00 0. -1.
         23    2    1    2    0    0 -0.52630479326E+02  0.13609456890E+02 -0.16396682152E+03  0.20047475375E+03  0.10173408309E+03 0.  0.
         23    2    1    2    0    0  0.22975436323E+02 -0.15851888658E+02 -0.14831800684E+03  0.17609073515E+03  0.90722449285E+02 0.  0.
        -11    1    4    4    0    0  0.49736750616E+02 -0.21779863144E+02 -0.49265604817E+02  0.73315800605E+02  0.00000000000E+00 0. -1.
         11    1    4    4    0    0 -0.26761314293E+02  0.59279744853E+01 -0.99052402019E+02  0.10277493454E+03  0.00000000000E+00 0.  1.
        -13    1    3    3    0    0 -0.59460106952E+02  0.45838543975E+02 -0.14274956357E+03  0.16128891571E+03  0.00000000000E+00 0.  1.
         13    1    3    3    0    0  0.68296276269E+01 -0.32229087086E+02 -0.21217257948E+02  0.39185838038E+02  0.00000000000E+00 0. -1.
         21    1    1    2  502  501  0.29655043002E+02  0.22424317689E+01  0.26435004307E+02  0.39790193872E+02  0.00000000000E+00 0. -1.
<scales pt_clust_5="13000.00000" pt_clust_6="13000.00000" pt_clust_7="13000.00000" pt_clust_8="13000.00000" pt_clust_9="29.73971"></scales>
<clustering>
<clus scale="   29.740">  1  9  2 -1</clus>
<clus scale="   90.722">  5  6 -1 -1</clus>
<clus scale="   98.655">  2  5  1 -1</clus>
<clus scale="  101.734">  7  8 -1 -1</clus>
<clus scale="   98.655">  2  5  1 -1</clus>
</clustering>
</event>
<event>
 9    1  0.1484717E-005  0.1061128E+03  0.7546771E-02  0.1267981E+00
         -1   -1    0    0    0  501 -0.00000000000E+00  0.00000000000E+00  0.11568025551E+03  0.11568025551E+03  0.00000000000E+00 0.  1.
          1   -1    0    0  502    0  0.00000000000E+00 -0.00000000000E+00 -0.36424152460E+03  0.36424152460E+03  0.00000000000E+00 0. -1.
         23    2    1    2    0    0 -0.46536038727E+02 -0.57071622822E+02  0.57904900140E+02  0.13081088322E+03  0.91300255624E+02 0.  0.
         23    2    1    2    0    0  0.35013069121E+02  0.38596065660E+02 -0.30971474652E+03  0.32709548648E+03  0.91392897799E+02 0.  0.
        -13    1    4    4    0    0  0.78775525816E+01 -0.27494097602E+02 -0.48676030281E+02  0.56456506813E+02  0.00000000000E+00 0.  1.
         13    1    4    4    0    0  0.27135516540E+02  0.66090163262E+02 -0.26103871624E+03  0.27063897967E+03  0.00000000000E+00 0. -1.
        -13    1    3    3    0    0 -0.61999440987E+02 -0.38304830589E+02  0.72213836624E+02  0.10259643721E+03  0.00000000000E+00 0.  1.
         13    1    3    3    0    0  0.15463402261E+02 -0.18766792233E+02 -0.14308936484E+02  0.28214446007E+02  0.00000000000E+00 0. -1.
         21    1    1    2  502  501  0.11522969606E+02  0.18475557162E+02  0.32485772954E+01  0.22015410408E+02  0.00000000000E+00 0.  1.
<scales pt_clust_5="13000.00000" pt_clust_6="13000.00000" pt_clust_7="13000.00000" pt_clust_8="13000.00000" pt_clust_9="21.77441"></scales>
<clustering>
<clus scale="   21.774">  1  9  2 -1</clus>
<clus scale="   91.300">  7  8 -1 -1</clus>
<clus scale="   91.393">  5  6 -1 -1</clus>
<clus scale="  106.033">  1  7  2 -1</clus>
<clus scale="  106.113">  2  5  1 -1</clus>
</clustering>
</event>
<event>
 9    1  0.1484717E-005  0.1189389E+03  0.7546771E-02  0.1245001E+00
         -3   -1    0    0    0  501 -0.00000000000E+00  0.00000000000E+00  0.51084932913E+03  0.51084932913E+03  0.00000000000E+00 0.  1.
          3   -1    0    0  502    0  0.00000000000E+00 -0.00000000000E+00 -0.37485163952E+02  0.37485163952E+02  0.00000000000E+00 0. -1.
         23    2    1    2    0    0 -0.22759642131E+02  0.65307328448E+02  0.21719570298E+03  0.24527574914E+03  0.90571360058E+02 0.  0.
         23    2    1    2    0    0  0.42642097907E+02 -0.70755147296E+02  0.14542870906E+03  0.19041646191E+03  0.91018021092E+02 0.  0.
        -11    1    4    4    0    0 -0.24759067354E+02 -0.36843339622E+02  0.34316264258E+02  0.56107477963E+02  0.00000000000E+00 0. -1.
         11    1    4    4    0    0  0.67401165261E+02 -0.33911807674E+02  0.11111244480E+03  0.13430898395E+03  0.00000000000E+00 0.  1.
        -13    1    3    3    0    0 -0.43369570648E+01 -0.21556725586E+02  0.69983478961E+02  0.73356587584E+02  0.00000000000E+00 0.  1.
         13    1    3    3    0    0 -0.18422685066E+02  0.86864054034E+02  0.14721222402E+03  0.17191916155E+03  0.00000000000E+00 0. -1.
         21    1    1    2  502  501 -0.19882455776E+02  0.54478188482E+01  0.11073975314E+03  0.11264228204E+03  0.00000000000E+00 0. -1.
<scales pt_clust_5="13000.00000" pt_clust_6="13000.00000" pt_clust_7="13000.00000" pt_clust_8="13000.00000" pt_clust_9="20.61530"></scales>
<clustering>
<clus scale="   20.615">  1  9  2 -1</clus>
<clus scale="   90.571">  7  8 -1 -1</clus>
<clus scale="   91.018">  5  6 -1 -1</clus>
<clus scale="  118.597">  1  7  2 -1</clus>
<clus scale="  118.939">  2  5  1 -1</clus>
</clustering>
</event>
<event>
 9    1  0.1484717E-005  0.1627861E+03  0.7546771E-02  0.1186192E+00
         -2   -1    0    0    0  501 -0.00000000000E+00  0.00000000000E+00  0.46385549473E+02  0.46385549473E+02  0.00000000000E+00 0.  1.
          2   -1    0    0  502    0  0.00000000000E+00 -0.00000000000E+00 -0.67917955324E+03  0.67917955324E+03  0.00000000000E+00 0. -1.
         23    2    1    2    0    0 -0.11984294649E+03 -0.83567098182E+02 -0.28629749451E+03  0.33476206382E+03  0.93560634268E+02 0.  0.
         23    2    1    2    0    0  0.10494794499E+03  0.66368138395E+02 -0.32591281689E+03  0.36012155134E+03  0.89719376806E+02 0.  0.
        -11    1    3    3    0    0 -0.25708905476E+02 -0.88343565448E+01 -0.34070284303E+01  0.27397107860E+02  0.00000000000E+00 0.  1.
         11    1    3    3    0    0 -0.94134041013E+02 -0.74732741638E+02 -0.28289046608E+03  0.30736495596E+03  0.00000000000E+00 0. -1.
        -11    1    4    4    0    0  0.10982434261E+03  0.30704130776E+02 -0.21293526938E+03  0.24154825361E+03  0.00000000000E+00 0.  1.
         11    1    4    4    0    0 -0.48763976158E+01  0.35664007619E+02 -0.11297754751E+03  0.11857329773E+03  0.00000000000E+00 0. -1.
         21    1    1    2  502  501  0.14895001495E+02  0.17198959787E+02 -0.20583692362E+02  0.30681487555E+02  0.00000000000E+00 0. -1.
<scales pt_clust_5="13000.00000" pt_clust_6="13000.00000" pt_clust_7="13000.00000" pt_clust_8="13000.00000" pt_clust_9="22.75226"></scales>
<clustering>
<clus scale="   22.752">  1  9  2 -1</clus>
<clus scale="   89.719">  7  8 -1 -1</clus>
<clus scale="   93.561">  5  6 -1 -1</clus>
<clus scale="  160.609">  2  7  1 -1</clus>
<clus scale="  160.609">  2  5  1 -1</clus>
</clustering>
</event>
<event>
 9    1  0.1484717E-005  0.9795833E+02  0.7546771E-02  0.1284738E+00
         -1   -1    0    0    0  501 -0.00000000000E+00  0.00000000000E+00  0.48204764052E+02  0.48204764052E+02  0.00000000000E+00 0.  1.
          1   -1    0    0  502    0  0.00000000000E+00 -0.00000000000E+00 -0.38249367944E+03  0.38249367944E+03  0.00000000000E+00 0. -1.
         23    2    1    2    0    0  0.21356496452E+02 -0.22300383388E+02 -0.43648698277E+02  0.10594224798E+03  0.91461161189E+02 0.  0.
         23    2    1    2    0    0 -0.54482382357E+02  0.75410729745E+01 -0.23728173621E+03  0.26024039090E+03  0.91636460796E+02 0.  0.
        -13    1    4    4    0    0 -0.14618909259E+02 -0.38627928933E+02 -0.60688115055E+02  0.73408968870E+02  0.00000000000E+00 0.  1.
         13    1    4    4    0    0 -0.39863473098E+02  0.46169001908E+02 -0.17659362116E+03  0.18683142203E+03  0.00000000000E+00 0. -1.
        -13    1    3    3    0    0  0.45922807926E+02  0.17492930215E+02 -0.28376413564E+02  0.56746169404E+02  0.00000000000E+00 0. -1.
         13    1    3    3    0    0 -0.24566311474E+02 -0.39793313603E+02 -0.15272284712E+02  0.49196078576E+02  0.00000000000E+00 0.  1.
         21    1    1    2  502  501  0.33125885905E+02  0.14759310413E+02 -0.53358480902E+02  0.64515804614E+02  0.00000000000E+00 0.  1.
<scales pt_clust_5="13000.00000" pt_clust_6="13000.00000" pt_clust_7="13000.00000" pt_clust_8="13000.00000" pt_clust_9="36.26516"></scales>
<clustering>
<clus scale="   36.265">  2  9  1 -1</clus>
<clus scale="   91.461">  7  8 -1 -1</clus>
<clus scale="   91.636">  5  6 -1 -1</clus>
<clus scale="   97.794">  1  7  2 -1</clus>
<clus scale="   36.265">  2  5  1 -1</clus>
</clustering>
</event>
<event>
 9    1  0.1484717E-005  0.1822379E+03  0.7546771E-02  0.1190224E+00
          2   -1    0    0  502    0  0.00000000000E+00  0.00000000000E+00  0.12668683720E+04  0.12668683720E+04  0.00000000000E+00 0. -1.
         -2   -1    0    0    0  501 -0.00000000000E+00 -0.00000000000E+00 -0.11445030498E+03  0.11445030498E+03  0.00000000000E+00 0.  1.
         23    2    1    2    0    0 -0.15501446249E+03 -0.91773254187E+02  0.73758449420E+03  0.76455394097E+03  0.89777663170E+02 0.  0.
         23    2    1    2    0    0  0.21109936689E+01  0.54674754743E+02  0.44449252387E+03  0.45665407800E+03  0.89249975206E+02 0.  0.
        -11    1    4    4    0    0  0.25157167262E+02 -0.16123705637E+02  0.14484166217E+03  0.14789173084E+03  0.00000000000E+00 0.  1.
         11    1    4    4    0    0 -0.23046173593E+02  0.70798460380E+02  0.29965086170E+03  0.30876234716E+03  0.00000000000E+00 0. -1.
        -11    1    3    3    0    0 -0.23882816588E+02  0.14794363634E+02  0.60522253550E+02  0.66724847683E+02  0.00000000000E+00 0.  1.
         11    1    3    3    0    0 -0.13113164591E+03 -0.10656761782E+03  0.67706224065E+03  0.69782909329E+03  0.00000000000E+00 0. -1.
         21    1    1    2  502  501  0.15290346883E+03  0.37098499444E+02 -0.29658951026E+02  0.16011065803E+03  0.00000000000E+00 0.  1.
<scales pt_clust_5="13000.00000" pt_clust_6="13000.00000" pt_clust_7="13000.00000" pt_clust_8="13000.00000" pt_clust_9="158.58946"></scales>
<clustering>
<clus scale="   89.250">  5  6 -1 -1</clus>
<clus scale="   89.778">  7  8 -1 -1</clus>
<clus scale="  104.687">  1  5  2 -1</clus>
<clus scale="  158.589">  2  9  1 -1</clus>
<clus scale="  104.687">  1  5  2 -1</clus>
</clustering>
</event>
<event>
 9    1  0.1484717E-005  0.2626072E+03  0.7546771E-02  0.1105917E+00
         -1   -1    0    0    0  501 -0.00000000000E+00  0.00000000000E+00  0.81487356661E+02  0.81487356661E+02  0.00000000000E+00 0.  1.
          1   -1    0    0  502    0  0.00000000000E+00 -0.00000000000E+00 -0.11187199018E+04  0.11187199018E+04  0.00000000000E+00 0. -1.
         23    2    1    2    0    0 -0.17267900139E+03 -0.17181107211E+03 -0.24609722142E+03  0.35691279364E+03  0.86520620976E+02 0.  0.
         23    2    1    2    0    0  0.18933676605E+03  0.15807978314E+03 -0.76639336285E+03  0.81045859954E+03  0.92987774137E+02 0.  0.
        -13    1    4    4    0    0  0.39662665697E+02  0.67788107556E+02 -0.35293433756E+03  0.36156742276E+03  0.00000000000E+00 0. -1.
         13    1    4    4    0    0  0.14967410035E+03  0.90291675580E+02 -0.41345902529E+03  0.44889117678E+03  0.00000000000E+00 0.  1.
        -13    1    3    3    0    0 -0.65358824163E+02 -0.15254043937E+02 -0.82320914754E+02  0.10621296888E+03  0.00000000000E+00 0. -1.
         13    1    3    3    0    0 -0.10732017722E+03 -0.15655702817E+03 -0.16377630666E+03  0.25069982476E+03  0.00000000000E+00 0.  1.
         21    1    1    2  502  501 -0.16657764662E+02  0.13731288974E+02 -0.24741960855E+02  0.32835865260E+02  0.00000000000E+00 0.  1.
<scales pt_clust_5="13000.00000" pt_clust_6="13000.00000" pt_clust_7="13000.00000" pt_clust_8="13000.00000" pt_clust_9="21.58771"></scales>
<clustering>
<clus scale="   21.588">  1  9  2 -1</clus>
<clus scale="   86.521">  7  8 -1 -1</clus>
<clus scale="   92.988">  5  6 -1 -1</clus>
<clus scale="  260.388">  1  7  2 -1</clus>
<clus scale="  262.607">  2  5  1 -1</clus>
</clustering>
</event>
<event>
 9    1  0.1484717E-005  0.1141905E+03  0.7546771E-02  0.1253147E+00
         -1   -1    0    0    0  501 -0.00000000000E+00  0.00000000000E+00  0.11197777339E+03  0.11197777339E+03  0.00000000000E+00 0.  1.
          1   -1    0    0  502    0  0.00000000000E+00 -0.00000000000E+00 -0.25577345155E+03  0.25577345155E+03  0.00000000000E+00 0. -1.
         23    2    1    2    0    0 -0.73363664330E+02 -0.24465817590E+02 -0.96242770528E+02  0.15304435167E+03  0.90438372533E+02 0.  0.
         23    2    1    2    0    0  0.64894175759E+02 -0.89004474914E+01 -0.10120816090E+03  0.15095794319E+03  0.90855581919E+02 0.  0.
        -11    1    3    3    0    0 -0.83661881238E+01 -0.21259314677E+02 -0.83710484517E+02  0.86772096796E+02  0.00000000000E+00 0. -1.
         11    1    3    3    0    0 -0.64997476206E+02 -0.32065029125E+01 -0.12532286011E+02  0.66272254879E+02  0.00000000000E+00 0.  1.
        -13    1    4    4    0    0  0.69097933531E+02  0.26593417928E+02 -0.53496123937E+02  0.91343141897E+02  0.00000000000E+00 0.  1.
         13    1    4    4    0    0 -0.42037577725E+01 -0.35493865419E+02 -0.47712036965E+02  0.59614801292E+02  0.00000000000E+00 0. -1.
         21    1    1    2  502  501  0.84694885715E+01  0.33366265081E+02  0.53655253270E+02  0.63748930074E+02  0.00000000000E+00 0.  1.
<scales pt_clust_5="13000.00000" pt_clust_6="13000.00000" pt_clust_7="13000.00000" pt_clust_8="13000.00000" pt_clust_9="34.42441"></scales>
<clustering>
<clus scale="   34.424">  1  9  2 -1</clus>
<clus scale="   90.438">  5  6 -1 -1</clus>
<clus scale="   90.856">  7  8 -1 -1</clus>
<clus scale="  113.859">  1  5  2 -1</clus>
<clus scale="  114.191">  2  5  1 -1</clus>
</clustering>
</event>
<event>
 9    1  0.1484717E-005  0.1106213E+03  0.7546771E-02  0.1267580E+00
         -1   -1    0    0    0  501 -0.00000000000E+00  0.00000000000E+00  0.42309519685E+02  0.42309519685E+02  0.00000000000E+00 0.  1.
          1   -1    0    0  502    0  0.00000000000E+00 -0.00000000000E+00 -0.39802277917E+03  0.39802277917E+03  0.00000000000E+00 0. -1.
         23    2    1    2    0    0  0.24523202720E+02 -0.10322736200E+01 -0.63952705175E+02  0.11606368609E+03  0.93692996902E+02 0.  0.
         23    2    1    2    0    0 -0.42878515239E+01 -0.59461876186E+01 -0.27728433640E+03  0.29842815526E+03  0.11008641069E+03 0.  0.
        -11    1    4    4    0    0  0.39637223147E+02 -0.20856822792E+02 -0.22099551015E+03  0.22548865165E+03  0.00000000000E+00 0. -1.
         11    1    4    4    0    0 -0.43925074670E+02  0.14910635173E+02 -0.56288826256E+02  0.72939503613E+02  0.00000000000E+00 0.  1.
        -13    1    3    3    0    0  0.44106698317E+01  0.36782689449E+02 -0.63162927051E+02  0.73225511982E+02  0.00000000000E+00 0.  1.
         13    1    3    3    0    0  0.20112532889E+02 -0.37814963069E+02 -0.78977812421E+00  0.42838174105E+02  0.00000000000E+00 0. -1.
         21    1    1    2  502  501 -0.20235351197E+02  0.69784612385E+01 -0.14476217901E+02  0.25840457504E+02  0.00000000000E+00 0. -1.
<scales pt_clust_5="13000.00000" pt_clust_6="13000.00000" pt_clust_7="13000.00000" pt_clust_8="13000.00000" pt_clust_9="21.40487"></scales>
<clustering>
<clus scale="   21.405">  1  9  2 -1</clus>
<clus scale="   93.693">  7  8 -1 -1</clus>
<clus scale="   94.321">  1  7  2 -1</clus>
<clus scale="  110.086">  5  6 -1 -1</clus>
<clus scale="  110.621">  2  5  1 -1</clus>
</clustering>
</event>
<event>
 9    1  0.1484717E-005  0.1631373E+03  0.7546771E-02  0.1186569E+00
          2   -1    0    0  502    0  0.00000000000E+00  0.00000000000E+00  0.50691623191E+03  0.50691623191E+03  0.00000000000E+00 0. -1.
         -2   -1    0    0    0  501 -0.00000000000E+00 -0.00000000000E+00 -0.81235100060E+02  0.81235100060E+02  0.00000000000E+00 0.  1.
         23    2    1    2    0    0  0.12750729436E+03 -0.31559713405E+02  0.73604305832E+02  0.17621951747E+03  0.91551072502E+02 0.  0.
         23    2    1    2    0    0 -0.13715753718E+03  0.20445583147E+01  0.34463924208E+03  0.38000080729E+03  0.82510824337E+02 0.  0.
        -11    1    4    4    0    0 -0.10733944790E+03 -0.32163231301E+02  0.21165483716E+03  0.23948695292E+03  0.00000000000E+00 0.  1.
         11    1    4    4    0    0 -0.29818089282E+02  0.34207789615E+02  0.13298440492E+03  0.14051385437E+03  0.00000000000E+00 0. -1.
        -11    1    3    3    0    0  0.19252772958E+02 -0.19333277066E+02 -0.18990544850E+02  0.33242828736E+02  0.00000000000E+00 0.  1.
         11    1    3    3    0    0  0.10825452140E+03 -0.12226436338E+02  0.92594850681E+02  0.14297668874E+03  0.00000000000E+00 0. -1.
         21    1    1    2  502  501  0.96502428203E+01  0.29515155090E+02  0.74375839327E+01  0.31931007207E+02  0.00000000000E+00 0. -1.
<scales pt_clust_5="13000.00000" pt_clust_6="13000.00000" pt_clust_7="13000.00000" pt_clust_8="13000.00000" pt_clust_9="31.05272"></scales>
<clustering>
<clus scale="   31.053">  2  9  1 -1</clus>
<clus scale="   82.511">  5  6 -1 -1</clus>
<clus scale="   91.551">  7  8 -1 -1</clus>
<clus scale="  158.241">  1  5  2 -1</clus>
<clus scale="  158.241">  1  5  2 -1</clus>
</clustering>
</event>
<event>
 9    1  0.1484717E-005  0.1106081E+03  0.7546771E-02  0.1260299E+00
          1   -1    0    0  502    0  0.00000000000E+00  0.00000000000E+00  0.16580656780E+03  0.16580656780E+03  0.00000000000E+00 0. -1.
         -1   -1    0    0    0  501 -0.00000000000E+00 -0.00000000000E+00 -0.17771078842E+03  0.17771078842E+03  0.00000000000E+00 0.  1.
         23    2    1    2    0    0 -0.43454775351E+02  0.39373414563E+01 -0.66720541707E+02  0.12241174900E+03  0.92893409070E+02 0.  0.
         23    2    1    2    0    0  0.41127597114E+02  0.50155864827E+02  0.98558062701E+02  0.15150078925E+03  0.95035295541E+02 0.  0.
        -11    1    3    3    0    0 -0.45894462082E+02  0.42038155990E+02 -0.53304320261E+02  0.81944241819E+02  0.00000000000E+00 0. -1.
         11    1    3    3    0    0  0.24396867313E+01 -0.38100814533E+02 -0.13416221446E+02  0.40467507180E+02  0.00000000000E+00 0.  1.
        -13    1    4    4    0    0  0.55313229482E+02 -0.73771539755E+01  0.48100705702E+02  0.73672611231E+02  0.00000000000E+00 0.  1.
         13    1    4    4    0    0 -0.14185632368E+02  0.57533018802E+02  0.50457356998E+02  0.77828178017E+02  0.00000000000E+00 0. -1.
         21    1    1    2  502  501  0.23271782372E+01 -0.54093206283E+02 -0.43741741615E+02  0.69604817966E+02  0.00000000000E+00 0. -1.
<scales pt_clust_5="13000.00000" pt_clust_6="13000.00000" pt_clust_7="13000.00000" pt_clust_8="13000.00000" pt_clust_9="54.14324"></scales>
<clustering>
<clus scale="   54.143">  2  9  1 -1</clus>
<clus scale="   92.893">  5  6 -1 -1</clus>
<clus scale="   95.035">  7  8 -1 -1</clus>
<clus scale="  108.773">  2  5  1 -1</clus>
<clus scale="  110.608">  1  5  2 -1</clus>
</clustering>
</event>
<event>
 9    1  0.1484717E-005  0.1305847E+03  0.7546771E-02  0.1239322E+00
          3   -1    0    0  502    0  0.00000000000E+00  0.00000000000E+00  0.85384505140E+03  0.85384505140E+03  0.00000000000E+00 0. -1.
         -3   -1    0    0    0  501 -0.00000000000E+00 -0.00000000000E+00 -0.27929359099E+02  0.27929359099E+02  0.00000000000E+00 0.  1.
         23    2    1    2    0    0  0.30157602690E+02 -0.74089715939E+01  0.13885445091E+03  0.17029003403E+03  0.93561548143E+02 0.  0.
         23    2    1    2    0    0 -0.60644229493E+02 -0.23002111911E+02  0.55058046592E+03  0.56837158709E+03  0.12530200249E+03 0.  0.
        -11    1    4    4    0    0 -0.69212707775E+01  0.48501382668E+02  0.25052904514E+03  0.25527453960E+03  0.00000000000E+00 0.  1.
         11    1    4    4    0    0 -0.53722958715E+02 -0.71503494579E+02  0.30005142079E+03  0.31309704749E+03  0.00000000000E+00 0. -1.
        -13    1    3    3    0    0  0.19687224480E+02 -0.45205583598E+02  0.11307106965E+03  0.12335395571E+03  0.00000000000E+00 0. -1.
         13    1    3    3    0    0  0.10470378210E+02  0.37796612004E+02  0.25783381255E+02  0.46936078317E+02  0.00000000000E+00 0.  1.
         21    1    1    2  502  501  0.30486626803E+02  0.30411083504E+02  0.13648077547E+03  0.14311278939E+03  0.00000000000E+00 0.  1.
<scales pt_clust_5="13000.00000" pt_clust_6="13000.00000" pt_clust_7="13000.00000" pt_clust_8="13000.00000" pt_clust_9="43.06122"></scales>
<clustering>
<clus scale="   43.061">  1  9  2 -1</clus>
<clus scale="   93.562">  7  8 -1 -1</clus>
<clus scale="  100.526">  2  7  1 -1</clus>
<clus scale="  125.302">  5  6 -1 -1</clus>
<clus scale="   43.061">  1  5  2 -1</clus>
</clustering>
</event>
<event>
 9    1  0.1484717E-005  0.9435354E+02  0.7546771E-02  0.1292942E+00
         -3   -1    0    0    0  501 -0.00000000000E+00  0.00000000000E+00  0.80567624621E+02  0.80567624621E+02  0.00000000000E+00 0.  1.
          3   -1    0    0  502    0  0.00000000000E+00 -0.00000000000E+00 -0.15421524993E+03  0.15421524993E+03  0.00000000000E+00 0. -1.
         23    2    1    2    0    0  0.14397478347E+01 -0.23249553034E+02 -0.14025464106E+02  0.95178063444E+02  0.91211487913E+02 0.  0.
         23    2    1    2    0    0  0.24395507903E+02  0.17062459056E+02 -0.60568058976E+02  0.11302219849E+03  0.90660130537E+02 0.  0.
        -11    1    3    3    0    0  0.32910149635E+02 -0.44195246623E+02 -0.15830290988E+02  0.57331456338E+02  0.00000000000E+00 0.  1.
         11    1    3    3    0    0 -0.31470401800E+02  0.20945693588E+02  0.18048268818E+01  0.37846607106E+02  0.00000000000E+00 0. -1.
        -13    1    4    4    0    0 -0.33635585549E+02  0.15475096042E+01 -0.11901250274E+02  0.35712563045E+02  0.00000000000E+00 0. -1.
         13    1    4    4    0    0  0.58031093452E+02  0.15514949452E+02 -0.48666808702E+02  0.77309635447E+02  0.00000000000E+00 0.  1.
         21    1    1    2  502  501 -0.25835255738E+02  0.61870939786E+01  0.94589777183E+00  0.26582612617E+02  0.00000000000E+00 0. -1.
<scales pt_clust_5="13000.00000" pt_clust_6="13000.00000" pt_clust_7="13000.00000" pt_clust_8="13000.00000" pt_clust_9="26.56578"></scales>
<clustering>
<clus scale="   26.566">  1  9  2 -1</clus>
<clus scale="   90.660">  7  8 -1 -1</clus>
<clus scale="   91.211">  5  6 -1 -1</clus>
<clus scale="   93.821">  2  7  1 -1</clus>
<clus scale="   93.821">  2  5  1 -1</clus>
</clustering>
</event>
<event>
 9    1  0.1484717E-005  0.9451072E+02  0.7546771E-02  0.1292965E+00
          2   -1    0    0  502    0  0.00000000000E+00  0.00000000000E+00  0.65075170867E+02  0.65075170867E+02  0.00000000000E+00 0.  1.
         -2   -1    0    0    0  501 -0.00000000000E+00 -0.00000000000E+00 -0.25672746500E+03  0.25672746500E+03  0.00000000000E+00 0. -1.
         23    2    1    2    0    0 -0.44554544362E+01 -0.22023556942E+02 -0.14102607466E+03  0.17013039583E+03  0.92472210512E+02 0.  0.
         23    2    1    2    0    0  0.13475951574E+02  0.92571736573E-01  0.12290457277E+01  0.94652015469E+02  0.93679686371E+02 0.  0.
        -11    1    4    4    0    0 -0.21181481621E+01  0.30507162373E+02  0.35086088222E+02  0.46542529953E+02  0.00000000000E+00 0.  1.
         11    1    4    4    0    0  0.15594099736E+02 -0.30414590636E+02 -0.33857042494E+02  0.48109485516E+02  0.00000000000E+00 0. -1.
        -13    1    3    3    0    0  0.36800490932E+02 -0.15841408986E+02 -0.11295101192E+03  0.11984639112E+03  0.00000000000E+00 0.  1.
         13    1    3    3    0    0 -0.41255945368E+02 -0.61821479558E+01 -0.28075062737E+02  0.50284004706E+02  0.00000000000E+00 0. -1.
         21    1    1    2  502  501 -0.90204971381E+01  0.21930985205E+02 -0.51855265208E+02  0.57020224575E+02  0.00000000000E+00 0.  1.
<scales pt_clust_5="13000.00000" pt_clust_6="13000.00000" pt_clust_7="13000.00000" pt_clust_8="13000.00000" pt_clust_9="23.71366"></scales>
<clustering>
<clus scale="   23.714">  2  9  1 -1</clus>
<clus scale="   92.472">  7  8 -1 -1</clus>
<clus scale="   93.314">  2  7  1 -1</clus>
<clus scale="   93.680">  5  6 -1 -1</clus>
<clus scale="   94.511">  1  5  2 -1</clus>
</clustering>
</event>
<event>
 9    1  0.1484717E-005  0.1096098E+03  0.7546771E-02  0.1268773E+00
          1   -1    0    0  502    0  0.00000000000E+00  0.00000000000E+00  0.37803314532E+03  0.37803314532E+03  0.00000000000E+00 0. -1.
         -1   -1    0    0    0  501 -0.00000000000E+00 -0.00000000000E+00 -0.11538990108E+03  0.11538990108E+03  0.00000000000E+00 0.  1.
         23    2    1    2    0    0 -0.27788830148E+02 -0.12964064610E+02 -0.74818214724E+02  0.11679556274E+03  0.84280200332E+02 0.  0.
         23    2    1    2    0    0  0.44605783119E+02 -0.41880042368E+01  0.33477917142E+03  0.35245729460E+03  0.10070668116E+03 0.  0.
        -11    1    4    4    0    0 -0.49541488425E+00  0.41319858054E+02  0.18483705013E+03  0.18939987119E+03  0.00000000000E+00 0.  1.
         11    1    4    4    0    0  0.45101198003E+02 -0.45507862291E+02  0.14994212129E+03  0.16305742341E+03  0.00000000000E+00 0. -1.
        -11    1    3    3    0    0 -0.49609031945E+02 -0.18646072354E+02 -0.18503786973E+02  0.56134857238E+02  0.00000000000E+00 0. -1.
         11    1    3    3    0    0  0.21820201798E+02  0.56820077444E+01 -0.56314427751E+02  0.60660705497E+02  0.00000000000E+00 0.  1.
         21    1    1    2  502  501 -0.16816952971E+02  0.17152068847E+02  0.26822875436E+01  0.24170189065E+02  0.00000000000E+00 0.  1.
<scales pt_clust_5="13000.00000" pt_clust_6="13000.00000" pt_clust_7="13000.00000" pt_clust_8="13000.00000" pt_clust_9="24.02089"></scales>
<clustering>
<clus scale="   24.021">  2  9  1 -1</clus>
<clus scale="   84.280">  7  8 -1 -1</clus>
<clus scale="   94.740">  2  7  1 -1</clus>
<clus scale="  100.707">  5  6 -1 -1</clus>
<clus scale="  109.610">  1  5  2 -1</clus>
</clustering>
</event>
<event>
 9    1  0.1484717E-005  0.9741456E+02  0.7546771E-02  0.1287193E+00
          2   -1    0    0  502    0  0.00000000000E+00  0.00000000000E+00  0.32965634214E+03  0.32965634214E+03  0.00000000000E+00 0. -1.
         -2   -1    0    0    0  501 -0.00000000000E+00 -0.00000000000E+00 -0.53142641574E+02  0.53142641574E+02  0.00000000000E+00 0.  1.
         23    2    1    2    0    0 -0.20036215339E+02 -0.41403431403E+02  0.59549445604E+02  0.11794112125E+03  0.90820028372E+02 0.  0.
         23    2    1    2    0    0  0.43180046955E+01  0.21231787257E+02  0.21913532336E+03  0.23919327770E+03  0.93400750522E+02 0.  0.
        -11    1    4    4    0    0 -0.16517628888E+02 -0.31866099075E+02  0.57438238069E+02  0.67730580441E+02  0.00000000000E+00 0.  1.
         11    1    4    4    0    0  0.20835633584E+02  0.53097886332E+02  0.16169708529E+03  0.17146269726E+03  0.00000000000E+00 0. -1.
        -13    1    3    3    0    0  0.10400511906E+00 -0.57388448623E+02  0.49641100170E+01  0.57602840561E+02  0.00000000000E+00 0.  1.
         13    1    3    3    0    0 -0.20140220458E+02  0.15985017220E+02  0.54585335587E+02  0.60338280692E+02  0.00000000000E+00 0. -1.
         21    1    1    2  502  501  0.15718210643E+02  0.20171644146E+02 -0.21710683911E+01  0.25664584768E+02  0.00000000000E+00 0. -1.
<scales pt_clust_5="13000.00000" pt_clust_6="13000.00000" pt_clust_7="13000.00000" pt_clust_8="13000.00000" pt_clust_9="25.57259"></scales>
<clustering>
<clus scale="   25.573">  2  9  1 -1</clus>
<clus scale="   90.820">  7  8 -1 -1</clus>
<clus scale="   93.401">  5  6 -1 -1</clus>
<clus scale="   94.943">  2  7  1 -1</clus>
<clus scale="   97.415">  1  5  2 -1</clus>
</clustering>
</event>
<event>
 9    1  0.1484717E-005  0.1113079E+03  0.7546771E-02  0.1259237E+00
         -1   -1    0    0    0  501 -0.00000000000E+00  0.00000000000E+00  0.22185399105E+03  0.22185399105E+03  0.00000000000E+00 0.  1.
          1   -1    0    0  502    0  0.00000000000E+00 -0.00000000000E+00 -0.12299394259E+03  0.12299394259E+03  0.00000000000E+00 0. -1.
         23    2    1    2    0    0  0.28375731859E+02  0.70007408729E+02  0.25030359874E+02  0.11990295584E+03  0.89688240411E+02 0.  0.
         23    2    1    2    0    0 -0.44996402342E+02 -0.35702783075E+02 -0.31159719749E+02  0.11324972325E+03  0.92494360571E+02 0.  0.
        -13    1    4    4    0    0 -0.73882306078E+02 -0.26172103000E+02 -0.20487710666E+02  0.81014322284E+02  0.00000000000E+00 0. -1.
         13    1    4    4    0    0  0.28885903736E+02 -0.95306800747E+01 -0.10672009083E+02  0.32235400962E+02  0.00000000000E+00 0.  1.
        -13    1    3    3    0    0  0.38353097748E+02  0.33679034815E+02  0.52542778151E+02  0.73252856796E+02  0.00000000000E+00 0.  1.
         13    1    3    3    0    0 -0.99773658888E+01  0.36328373913E+02 -0.27512418277E+02  0.46650099043E+02  0.00000000000E+00 0. -1.
         21    1    1    2  502  501  0.16620670483E+02 -0.34304625654E+02  0.10498940833E+03  0.11169525456E+03  0.00000000000E+00 0.  1.
<scales pt_clust_5="13000.00000" pt_clust_6="13000.00000" pt_clust_7="13000.00000" pt_clust_8="13000.00000" pt_clust_9="38.11895"></scales>
<clustering>
<clus scale="   38.119">  1  9  2 -1</clus>
<clus scale="   89.688">  7  8 -1 -1</clus>
<clus scale="   92.494">  5  6 -1 -1</clus>
<clus scale="  108.987">  1  7  2 -1</clus>
<clus scale="  111.308">  2  5  1 -1</clus>
</clustering>
</event>
<event>
 9    1  0.1484717E-005  0.9994950E+02  0.7546771E-02  0.1283806E+00
         -2   -1    0    0    0  501 -0.00000000000E+00  0.00000000000E+00  0.23580024348E+02  0.23580024348E+02  0.00000000000E+00 0.  1.
          2   -1    0    0  502    0  0.00000000000E+00 -0.00000000000E+00 -0.54097633170E+03  0.54097633170E+03  0.00000000000E+00 0. -1.
         23    2    1    2    0    0  0.24204121719E+02 -0.16327260434E+02 -0.18664286313E+03  0.21259607139E+03  0.97514677197E+02 0.  0.
         23    2    1    2    0    0 -0.20545191483E+02 -0.92943728695E+01 -0.27275714838E+03  0.28845102396E+03  0.91099072288E+02 0.  0.
        -11    1    3    3    0    0 -0.21448870753E+02  0.23960243869E+02 -0.11060090924E+03  0.11518119842E+03  0.00000000000E+00 0.  1.
         11    1    3    3    0    0  0.45652992472E+02 -0.40287504303E+02 -0.76041953890E+02  0.97414872971E+02  0.00000000000E+00 0. -1.
        -11    1    4    4    0    0  0.34245127591E+02  0.31674091035E+01 -0.69110503421E+02  0.77194707897E+02  0.00000000000E+00 0.  1.
         11    1    4    4    0    0 -0.54790319074E+02 -0.12461781973E+02 -0.20364664496E+03  0.21125631607E+03  0.00000000000E+00 0. -1.
         21    1    1    2  502  501 -0.36589302358E+01  0.25621633304E+02 -0.57996295835E+02  0.63509260696E+02  0.00000000000E+00 0.  1.
<scales pt_clust_5="13000.00000" pt_clust_6="13000.00000" pt_clust_7="13000.00000" pt_clust_8="13000.00000" pt_clust_9="25.88157"></scales>
<clustering>
<clus scale="   25.882">  1  9  2 -1</clus>
<clus scale="   91.099">  7  8 -1 -1</clus>
<clus scale="   93.701">  2  7  1 -1</clus>
<clus scale="   97.515">  5  6 -1 -1</clus>
<clus scale="   93.701">  2  5  1 -1</clus>
</clustering>
</event>
<event>
 9    1  0.1484717E-005  0.9390117E+02  0.7546771E-02  0.1294458E+00
         -1   -1    0    0    0  501 -0.00000000000E+00  0.00000000000E+00  0.21919219678E+03  0.21919219678E+03  0.00000000000E+00 0.  1.
          1   -1    0    0  502    0  0.00000000000E+00 -0.00000000000E+00 -0.64214986813E+02  0.64214986813E+02  0.00000000000E+00 0. -1.
         23    2    1    2    0    0  0.96872337287E+01 -0.34383288208E+02  0.10033909698E+03  0.14097692923E+03  0.92360744830E+02 0.  0.
         23    2    1    2    0    0 -0.32894170180E+01  0.82026442512E+01  0.12272828749E+02  0.92218946030E+02  0.90970369046E+02 0.  0.
        -11    1    3    3    0    0 -0.41342114212E+02 -0.19896200881E+02  0.43360033143E+02  0.63127820263E+02  0.00000000000E+00 0. -1.
         11    1    3    3    0    0  0.51029347940E+02 -0.14487087327E+02  0.56979063839E+02  0.77849108963E+02  0.00000000000E+00 0.  1.
        -13    1    4    4    0    0  0.40426561006E+02  0.43438147246E+01 -0.11571328189E+02  0.42273764881E+02  0.00000000000E+00 0.  1.
         13    1    4    4    0    0 -0.43715978024E+02  0.38588295266E+01  0.23844156938E+02  0.49945181149E+02  0.00000000000E+00 0. -1.
         21    1    1    2  502  501 -0.63978167107E+01  0.26180643956E+02  0.42365284239E+02  0.50211308341E+02  0.00000000000E+00 0.  1.
<scales pt_clust_5="13000.00000" pt_clust_6="13000.00000" pt_clust_7="13000.00000" pt_clust_8="13000.00000" pt_clust_9="26.95103"></scales>
<clustering>
<clus scale="   26.951">  1  9  2 -1</clus>
<clus scale="   90.970">  7  8 -1 -1</clus>
<clus scale="   92.361">  5  6 -1 -1</clus>
<clus scale="   92.534">  2  7  1 -1</clus>
<clus scale="   92.534">  2  5  1 -1</clus>
</clustering>
</event>
<event>
 9    1  0.1484717E-005  0.1470962E+03  0.7546771E-02  0.1204180E+00
         -1   -1    0    0    0  501 -0.00000000000E+00  0.00000000000E+00  0.30648003924E+03  0.30648003924E+03  0.00000000000E+00 0.  1.
          1   -1    0    0  502    0  0.00000000000E+00 -0.00000000000E+00 -0.21444304485E+03  0.21444304485E+03  0.00000000000E+00 0. -1.
         23    2    1    2    0    0  0.72791851226E+02  0.58321041424E+02  0.21427565029E+03  0.25102588257E+03  0.91651197135E+02 0.  0.
         23    2    1    2    0    0 -0.11030336548E+03 -0.42903022955E+02 -0.15682236296E+03  0.21659746617E+03  0.91179531770E+02 0.  0.
        -11    1    4    4    0    0 -0.67258525703E+01  0.24134001506E+02 -0.36421981597E+02  0.44206875765E+02  0.00000000000E+00 0.  1.
         11    1    4    4    0    0 -0.10357751291E+03 -0.67037024461E+02 -0.12040038136E+03  0.17239059040E+03  0.00000000000E+00 0. -1.
        -11    1    3    3    0    0  0.49554785304E+02  0.77825627927E+01  0.17723512621E+03  0.18419700050E+03  0.00000000000E+00 0.  1.
         11    1    3    3    0    0  0.23237065922E+02  0.50538478631E+02  0.37040524081E+02  0.66828882074E+02  0.00000000000E+00 0. -1.
         21    1    1    2  502  501  0.37511514249E+02 -0.15418018470E+02  0.34583707053E+02  0.53299735349E+02  0.00000000000E+00 0.  1.
<scales pt_clust_5="13000.00000" pt_clust_6="13000.00000" pt_clust_7="13000.00000" pt_clust_8="13000.00000" pt_clust_9="40.55649"></scales>
<clustering>
<clus scale="   40.556">  1  9  2 -1</clus>
<clus scale="   91.180">  5  6 -1 -1</clus>
<clus scale="   91.651">  7  8 -1 -1</clus>
<clus scale="  146.803">  2  5  1 -1</clus>
<clus scale="  146.803">  2  5  1 -1</clus>
</clustering>
</event>
<event>
 9    1  0.1484717E-005  0.1458514E+03  0.7546771E-02  0.1207355E+00
          2   -1    0    0  502    0  0.00000000000E+00  0.00000000000E+00  0.17579774319E+03  0.17579774319E+03  0.00000000000E+00 0. -1.
         -2   -1    0    0    0  501 -0.00000000000E+00 -0.00000000000E+00 -0.31871658184E+03  0.31871658184E+03  0.00000000000E+00 0.  1.
         23    2    1    2    0    0  0.25772721012E+02  0.12719803528E+03 -0.15807144630E+03  0.22202071855E+03  0.86388911332E+02 0.  0.
         23    2    1    2    0    0 -0.15957665081E+02 -0.10627274810E+03  0.10638564386E+03  0.17837841185E+03  0.94617168252E+02 0.  0.
        -11    1    3    3    0    0  0.65777288778E+01  0.93245257288E+02 -0.15733718066E+03  0.18301074543E+03  0.00000000000E+00 0.  1.
         11    1    3    3    0    0  0.19194992134E+02  0.33952777994E+02 -0.73426563543E+00  0.39009973117E+02  0.00000000000E+00 0. -1.
        -13    1    4    4    0    0 -0.55908701382E+02 -0.59709634171E+02  0.62585175489E+02  0.10299479353E+03  0.00000000000E+00 0.  1.
         13    1    4    4    0    0  0.39951036302E+02 -0.46563113932E+02  0.43800468375E+02  0.75383618316E+02  0.00000000000E+00 0. -1.
         21    1    1    2  502  501 -0.98150559317E+01 -0.20925287178E+02 -0.91233036215E+02  0.94115194647E+02  0.00000000000E+00 0.  1.
<scales pt_clust_5="13000.00000" pt_clust_6="13000.00000" pt_clust_7="13000.00000" pt_clust_8="13000.00000" pt_clust_9="23.11283"></scales>
<clustering>
<clus scale="   23.113">  2  9  1 -1</clus>
<clus scale="   86.389">  5  6 -1 -1</clus>
<clus scale="   94.617">  7  8 -1 -1</clus>
<clus scale="  140.653">  2  5  1 -1</clus>
<clus scale="  145.851">  1  5  2 -1</clus>
</clustering>
</event>
<event>
 9    1  0.2697530E-005  0.1052271E+03  0.7546771E-02  0.1271059E+00
          1   -1    0    0  502    0  0.00000000000E+00  0.00000000000E+00  0.37224335462E+03  0.37224335462E+03  0.00000000000E+00 0. -1.
         -1   -1    0    0    0  501 -0.00000000000E+00 -0.00000000000E+00 -0.17975669007E+03  0.17975669007E+03  0.00000000000E+00 0.  1.
         23    2    1    2    0    0 -0.74506266463E+02  0.44769675552E+02 -0.99462474783E+02  0.16172203454E+03  0.93304474566E+02 0.  0.
         23    2    1    2    0    0  0.39858692858E+02 -0.28489009178E+01  0.31454208269E+03  0.33138618735E+03  0.96349632851E+02 0.  0.
        -11    1    4    4    0    0 -0.22147022172E+02 -0.27271131780E+02  0.14552177214E+03  0.14970234263E+03  0.00000000000E+00 0.  1.
         11    1    4    4    0    0  0.62005715030E+02  0.24422230862E+02  0.16902031055E+03  0.18168384473E+03  0.00000000000E+00 0. -1.
        -13    1    3    3    0    0 -0.81258809639E+02  0.64375088802E+01 -0.90467930125E+02  0.12177389723E+03  0.00000000000E+00 0.  1.
         13    1    3    3    0    0  0.67525431758E+01  0.38332166672E+02 -0.89945446575E+01  0.39948137312E+02  0.00000000000E+00 0. -1.
         21    1    1    2  502  501  0.34647573605E+02 -0.41920774635E+02 -0.22592943366E+02  0.58891822799E+02  0.00000000000E+00 0. -1.
<scales pt_clust_5="13000.00000" pt_clust_6="13000.00000" pt_clust_7="13000.00000" pt_clust_8="13000.00000" pt_clust_9="54.38571"></scales>
<clustering>
<clus scale="   54.386">  2  9  1 -1</clus>
<clus scale="   93.304">  7  8 -1 -1</clus>
<clus scale="   96.350">  5  6 -1 -1</clus>
<clus scale="  102.446">  2  7  1 -1</clus>
<clus scale="  105.227">  1  5  2 -1</clus>
</clustering>
</event>
<event>
 9    1  0.1484717E-005  0.1336587E+03  0.7546771E-02  0.1230137E+00
          1   -1    0    0  502    0  0.00000000000E+00  0.00000000000E+00  0.27290541431E+03  0.27290541431E+03  0.00000000000E+00 0. -1.
         -1   -1    0    0    0  501 -0.00000000000E+00 -0.00000000000E+00 -0.11157014325E+03  0.11157014325E+03  0.00000000000E+00 0.  1.
         23    2    1    2    0    0  0.20354763911E+02 -0.78721431244E+02  0.12498544620E+03  0.18891422360E+03  0.11599931880E+03 0.  0.
         23    2    1    2    0    0 -0.30784688755E+02  0.46663670748E+02  0.84621563910E+02  0.13668311956E+03  0.91631167536E+02 0.  0.
        -11    1    3    3    0    0  0.58913131557E+02 -0.14831105737E+02  0.84331038860E+02  0.10393480111E+03  0.00000000000E+00 0.  1.
         11    1    3    3    0    0 -0.38558367647E+02 -0.63890325508E+02  0.40654407344E+02  0.84979422483E+02  0.00000000000E+00 0. -1.
        -13    1    4    4    0    0 -0.62031659233E+02  0.43843861314E+02  0.60288001514E+02  0.96978626762E+02  0.00000000000E+00 0.  1.
         13    1    4    4    0    0  0.31246970478E+02  0.28198094332E+01  0.24333562396E+02  0.39704492795E+02  0.00000000000E+00 0. -1.
         21    1    1    2  502  501  0.10429924845E+02  0.32057760497E+02 -0.48271739054E+02  0.58878214406E+02  0.00000000000E+00 0.  1.
<scales pt_clust_5="13000.00000" pt_clust_6="13000.00000" pt_clust_7="13000.00000" pt_clust_8="13000.00000" pt_clust_9="33.71177"></scales>
<clustering>
<clus scale="   33.712">  2  9  1 -1</clus>
<clus scale="   91.631">  7  8 -1 -1</clus>
<clus scale="  113.159">  1  7  2 -1</clus>
<clus scale="  115.999">  5  6 -1 -1</clus>
<clus scale="  113.159">  1  5  2 -1</clus>
</clustering>
</event>
<event>
 9    1  0.1484717E-005  0.1301210E+03  0.7546771E-02  0.1227637E+00
         -2   -1    0    0    0  501 -0.00000000000E+00  0.00000000000E+00  0.73054392381E+02  0.73054392381E+02  0.00000000000E+00 0.  1.
          2   -1    0    0  502    0  0.00000000000E+00 -0.00000000000E+00 -0.33619376386E+03  0.33619376386E+03  0.00000000000E+00 0. -1.
         23    2    1    2    0    0  0.82496243574E+02  0.68003430017E+02 -0.12963484639E+03  0.19086141875E+03  0.90514037976E+02 0.  0.
         23    2    1    2    0    0 -0.39286121153E+02 -0.72901660724E+02 -0.12122881907E+03  0.17320045305E+03  0.91890798835E+02 0.  0.
        -13    1    3    3    0    0  0.99780432168E+02  0.51919648857E+02 -0.12225105435E+03  0.16612376372E+03  0.00000000000E+00 0.  1.
         13    1    3    3    0    0 -0.17284188594E+02  0.16083781159E+02 -0.73837920391E+01  0.24737655034E+02  0.00000000000E+00 0. -1.
        -13    1    4    4    0    0 -0.35157440617E+02 -0.31532930054E+02 -0.12282908215E+03  0.13159542063E+03  0.00000000000E+00 0.  1.
         13    1    4    4    0    0 -0.41286805363E+01 -0.41368730670E+02  0.16002630836E+01  0.41605032414E+02  0.00000000000E+00 0. -1.
         21    1    1    2  502  501 -0.43210122421E+02  0.48982307076E+01 -0.12275706017E+02  0.45186284445E+02  0.00000000000E+00 0. -1.
<scales pt_clust_5="13000.00000" pt_clust_6="13000.00000" pt_clust_7="13000.00000" pt_clust_8="13000.00000" pt_clust_9="43.48686"></scales>
<clustering>
<clus scale="   43.487">  1  9  2 -1</clus>
<clus scale="   90.514">  5  6 -1 -1</clus>
<clus scale="   91.891">  7  8 -1 -1</clus>
<clus scale="  129.152">  1  5  2 -1</clus>
<clus scale="  130.121">  2  5  1 -1</clus>
</clustering>
</event>
<event>
 9    1  0.1484717E-005  0.1264100E+03  0.7546771E-02  0.1237147E+00
          1   -1    0    0  502    0  0.00000000000E+00  0.00000000000E+00  0.75035282776E+02  0.75035282776E+02  0.00000000000E+00 0. -1.
         -1   -1    0    0    0  501 -0.00000000000E+00 -0.00000000000E+00 -0.44799488080E+03  0.44799488080E+03  0.00000000000E+00 0.  1.
         23    2    1    2    0    0  0.52831480019E+02  0.13615549478E+03 -0.17439963726E+03  0.24475698375E+03  0.90339712071E+02 0.  0.
         23    2    1    2    0    0 -0.34546071609E+02 -0.55369575188E+02 -0.57639013804E+02  0.11481237641E+03  0.74835853329E+02 0.  0.
        -11    1    4    4    0    0 -0.72951934597E+01 -0.64326887886E+02 -0.56784883892E+02  0.86114408733E+02  0.00000000000E+00 0. -1.
         11    1    4    4    0    0 -0.27250878150E+02  0.89573126976E+01 -0.85412991206E+00  0.28697967674E+02  0.00000000000E+00 0.  1.
        -11    1    3    3    0    0  0.69685804323E+01  0.70626729742E+02 -0.14144330628E+03  0.15824950224E+03  0.00000000000E+00 0.  1.
         11    1    3    3    0    0  0.45862899587E+02  0.65528765033E+02 -0.32956330984E+02  0.86507481510E+02  0.00000000000E+00 0. -1.
         21    1    1    2  502  501 -0.18285408410E+02 -0.80785919587E+02 -0.14092094696E+03  0.16346080342E+03  0.00000000000E+00 0. -1.
<scales pt_clust_5="13000.00000" pt_clust_6="13000.00000" pt_clust_7="13000.00000" pt_clust_8="13000.00000" pt_clust_9="82.82947"></scales>
<clustering>
<clus scale="   74.836">  5  6 -1 -1</clus>
<clus scale="   82.829">  2  9  1 -1</clus>
<clus scale="   90.340">  7  8 -1 -1</clus>
<clus scale="  115.839">  1  5  2 -1</clus>
<clus scale="  115.839">  1  5  2 -1</clus>
</clustering>
</event>
<event>
 9    1  0.1484717E-005  0.9995891E+02  0.7546771E-02  0.1281747E+00
         -2   -1    0    0    0  501 -0.00000000000E+00  0.00000000000E+00  0.13243425901E+03  0.13243425901E+03  0.00000000000E+00 0.  1.
          2   -1    0    0  502    0  0.00000000000E+00 -0.00000000000E+00 -0.21388421447E+03  0.21388421447E+03  0.00000000000E+00 0. -1.
         23    2    1    2    0    0 -0.95752466630E+00  0.44421300972E+01  0.15687583877E+02  0.96091372215E+02  0.94693200141E+02 0.  0.
         23    2    1    2    0    0  0.37414515774E+02 -0.13927671550E+02 -0.15294962862E+03  0.18289154597E+03  0.91988600749E+02 0.  0.
        -13    1    4    4    0    0  0.30917304698E+02  0.37259736775E+02 -0.67432758187E+02  0.83014122841E+02  0.00000000000E+00 0.  1.
         13    1    4    4    0    0  0.64972110764E+01 -0.51187408325E+02 -0.85516870428E+02  0.99877423128E+02  0.00000000000E+00 0. -1.
        -13    1    3    3    0    0  0.88417419541E+00  0.43973569175E+02 -0.14507328860E+02  0.46313271755E+02  0.00000000000E+00 0. -1.
         13    1    3    3    0    0 -0.18416988617E+01 -0.39531439077E+02  0.30194912737E+02  0.49778100460E+02  0.00000000000E+00 0.  1.
         21    1    1    2  502  501 -0.36456991108E+02  0.94855414531E+01  0.55812089280E+02  0.67335555296E+02  0.00000000000E+00 0. -1.
<scales pt_clust_5="13000.00000" pt_clust_6="13000.00000" pt_clust_7="13000.00000" pt_clust_8="13000.00000" pt_clust_9="37.67078"></scales>
<clustering>
<clus scale="   37.671">  1  9  2 -1</clus>
<clus scale="   91.989">  5  6 -1 -1</clus>
<clus scale="   94.693">  7  8 -1 -1</clus>
<clus scale="   97.401">  2  5  1 -1</clus>
<clus scale="   97.401">  2  5  1 -1</clus>
</clustering>
</event>
<event>
 9    1  0.1484717E-005  0.9651247E+02  0.7546771E-02  0.1289011E+00
          1   -1    0    0  502    0  0.00000000000E+00  0.00000000000E+00  0.15924633008E+03  0.15924633008E+03  0.00000000000E+00 0. -1.
         -1   -1    0    0    0  501 -0.00000000000E+00 -0.00000000000E+00 -0.15786678397E+03  0.15786678397E+03  0.00000000000E+00 0.  1.
         23    2    1    2    0    0  0.37156439288E+02 -0.25037979052E+01 -0.10172623242E+03  0.14309305131E+03  0.93490774874E+02 0.  0.
         23    2    1    2    0    0 -0.11116119146E+02  0.21552071713E+02  0.10559923674E+03  0.14166032940E+03  0.91260014383E+02 0.  0.
        -11    1    4    4    0    0 -0.62563374216E+01  0.48489799415E+02  0.10318426804E+03  0.11418141519E+03  0.00000000000E+00 0. -1.
         11    1    4    4    0    0 -0.48597817243E+01 -0.26937727703E+02  0.24149687067E+01  0.27478914208E+02  0.00000000000E+00 0.  1.
        -11    1    3    3    0    0  0.14456238431E+02 -0.21962074100E+02  0.94708172624E+01  0.27946590274E+02  0.00000000000E+00 0. -1.
         11    1    3    3    0    0  0.22700200856E+02  0.19458276194E+02 -0.11119704968E+03  0.11514646103E+03  0.00000000000E+00 0.  1.
         21    1    1    2  502  501 -0.26040320142E+02 -0.19048273807E+02 -0.24934582190E+01  0.32359733343E+02  0.00000000000E+00 0.  1.
<scales pt_clust_5="13000.00000" pt_clust_6="13000.00000" pt_clust_7="13000.00000" pt_clust_8="13000.00000" pt_clust_9="32.26352"></scales>
<clustering>
<clus scale="   32.264">  2  9  1 -1</clus>
<clus scale="   91.260">  5  6 -1 -1</clus>
<clus scale="   93.491">  7  8 -1 -1</clus>
<clus scale="   94.353">  1  5  2 -1</clus>
<clus scale="   94.353">  1  5  2 -1</clus>
</clustering>
</event>
<event>
 9    1  0.1484717E-005  0.9696168E+02  0.7546771E-02  0.1287155E+00
          1   -1    0    0  502    0  0.00000000000E+00  0.00000000000E+00  0.53737160031E+03  0.53737160031E+03  0.00000000000E+00 0. -1.
         -1   -1    0    0    0  501 -0.00000000000E+00 -0.00000000000E+00 -0.25710562991E+02  0.25710562991E+02  0.00000000000E+00 0.  1.
         23    2    1    2    0    0 -0.37713880861E+02  0.30327010726E+02  0.18440343140E+03  0.21107064763E+03  0.90576643746E+02 0.  0.
         23    2    1    2    0    0  0.25305935035E+02 -0.11449615164E+02  0.30885166643E+03  0.32287233601E+03  0.89920573096E+02 0.  0.
        -11    1    4    4    0    0 -0.11740610818E+02 -0.43533881550E+02  0.15085330249E+03  0.15744764100E+03  0.00000000000E+00 0. -1.
         11    1    4    4    0    0  0.37046545853E+02  0.32084266386E+02  0.15799836394E+03  0.16542469500E+03  0.00000000000E+00 0.  1.
        -13    1    3    3    0    0  0.10960614040E+02 -0.19267176332E+02  0.12036927263E+02  0.25223932324E+02  0.00000000000E+00 0. -1.
         13    1    3    3    0    0 -0.48674494901E+02  0.49594187059E+02  0.17236650413E+03  0.18584671531E+03  0.00000000000E+00 0.  1.
         21    1    1    2  502  501  0.12407945826E+02 -0.18877395563E+02  0.18405939498E+02  0.29139179667E+02  0.00000000000E+00 0.  1.
<scales pt_clust_5="13000.00000" pt_clust_6="13000.00000" pt_clust_7="13000.00000" pt_clust_8="13000.00000" pt_clust_9="22.59011"></scales>
<clustering>
<clus scale="   22.590">  2  9  1 -1</clus>
<clus scale="   89.921">  5  6 -1 -1</clus>
<clus scale="   90.577">  7  8 -1 -1</clus>
<clus scale="   96.349">  1  5  2 -1</clus>
<clus scale="   96.349">  1  5  2 -1</clus>
</clustering>
</event>
<event>
 9    1  0.1484717E-005  0.1074631E+03  0.7546771E-02  0.1266305E+00
         -2   -1    0    0    0  501 -0.00000000000E+00  0.00000000000E+00  0.27789320158E+03  0.27789320158E+03  0.00000000000E+00 0.  1.
          2   -1    0    0  502    0  0.00000000000E+00 -0.00000000000E+00 -0.56039020590E+03  0.56039020590E+03  0.00000000000E+00 0. -1.
         23    2    1    2    0    0 -0.51544510729E+02 -0.59816829620E+02  0.97269128027E+02  0.15609241997E+03  0.93105695928E+02 0.  0.
         23    2    1    2    0    0  0.52567771867E+02  0.89506700228E+01 -0.52128081331E+03  0.53180874725E+03  0.90793018414E+02 0.  0.
        -11    1    3    3    0    0 -0.16768874627E+02 -0.69175255982E+02  0.25167129288E+02  0.75496990623E+02  0.00000000000E+00 0. -1.
         11    1    3    3    0    0 -0.34775636102E+02  0.93584263619E+01  0.72101998739E+02  0.80595429351E+02  0.00000000000E+00 0.  1.
        -13    1    4    4    0    0  0.72488510858E+02 -0.14834696666E+02 -0.34909236720E+03  0.35684749302E+03  0.00000000000E+00 0. -1.
         13    1    4    4    0    0 -0.19920738992E+02  0.23785366689E+02 -0.17218844611E+03  0.17496125424E+03  0.00000000000E+00 0.  1.
         21    1    1    2  502  501 -0.10232611378E+01  0.50866159598E+02  0.14151468096E+03  0.15038224025E+03  0.00000000000E+00 0.  1.
<scales pt_clust_5="13000.00000" pt_clust_6="13000.00000" pt_clust_7="13000.00000" pt_clust_8="13000.00000" pt_clust_9="50.87645"></scales>
<clustering>
<clus scale="   50.876">  1  9  2 -1</clus>
<clus scale="   90.793">  7  8 -1 -1</clus>
<clus scale="   93.106">  5  6 -1 -1</clus>
<clus scale="  105.466">  2  7  1 -1</clus>
<clus scale="  105.466">  2  5  1 -1</clus>
</clustering>
</event>
<event>
 9    1  0.1484717E-005  0.9727033E+02  0.7546771E-02  0.1286461E+00
         -2   -1    0    0    0  501 -0.00000000000E+00  0.00000000000E+00  0.12423314283E+03  0.12423314283E+03  0.00000000000E+00 0.  1.
          2   -1    0    0  502    0  0.00000000000E+00 -0.00000000000E+00 -0.15255916037E+03  0.15255916037E+03  0.00000000000E+00 0. -1.
         23    2    1    2    0    0 -0.16126506961E+02 -0.37052663812E+02 -0.26722065065E+01  0.10115380952E+03  0.92692979074E+02 0.  0.
         23    2    1    2    0    0  0.19763966119E+02  0.16210193506E+02 -0.75302954921E+02  0.12166926944E+03  0.92084153773E+02 0.  0.
        -11    1    3    3    0    0 -0.43305764702E+02 -0.52738629758E+02 -0.98904855676E+01  0.68953419276E+02  0.00000000000E+00 0. -1.
         11    1    3    3    0    0  0.27179257741E+02  0.15685965945E+02  0.72182790611E+01  0.32200390240E+02  0.00000000000E+00 0.  1.
        -13    1    4    4    0    0 -0.16430409591E+02  0.16538543642E+02 -0.81657237295E+02  0.84919880992E+02  0.00000000000E+00 0.  1.
         13    1    4    4    0    0  0.36194375710E+02 -0.32835013627E+00  0.63542823735E+01  0.36749388448E+02  0.00000000000E+00 0. -1.
         21    1    1    2  502  501 -0.36374591584E+01  0.20842470306E+02  0.49649143881E+02  0.53969224246E+02  0.00000000000E+00 0.  1.
<scales pt_clust_5="13000.00000" pt_clust_6="13000.00000" pt_clust_7="13000.00000" pt_clust_8="13000.00000" pt_clust_9="21.15750"></scales>
<clustering>
<clus scale="   21.157">  1  9  2 -1</clus>
<clus scale="   92.084">  7  8 -1 -1</clus>
<clus scale="   92.693">  5  6 -1 -1</clus>
<clus scale="   96.690">  2  7  1 -1</clus>
<clus scale="   96.690">  2  5  1 -1</clus>
</clustering>
</event>
<event>
 9    1  0.1588270E-005  0.1105110E+03  0.7546771E-02  0.1263182E+00
         -1   -1    0    0    0  501 -0.00000000000E+00  0.00000000000E+00  0.20436201793E+03  0.20436201793E+03  0.00000000000E+00 0.  1.
          1   -1    0    0  502    0  0.00000000000E+00 -0.00000000000E+00 -0.24662503602E+03  0.24662503602E+03  0.00000000000E+00 0. -1.
         23    2    1    2    0    0 -0.28658480804E+01 -0.20784819207E+02  0.52176143146E+02  0.10406163990E+03  0.87557142427E+02 0.  0.
         23    2    1    2    0    0  0.66720027919E+00  0.60779216523E+02 -0.20216516092E+03  0.23199379580E+03  0.96207123864E+02 0.  0.
        -11    1    3    3    0    0 -0.27079190896E+02 -0.31838486397E+02  0.62771075196E+02  0.75413391893E+02  0.00000000000E+00 0.  1.
         11    1    3    3    0    0  0.24213342815E+02  0.11053667189E+02 -0.10594932049E+02  0.28648248005E+02  0.00000000000E+00 0. -1.
        -13    1    4    4    0    0 -0.12715143517E+02 -0.23753570427E+02 -0.64393999569E+02  0.69803253242E+02  0.00000000000E+00 0.  1.
         13    1    4    4    0    0  0.13382343796E+02  0.84532786950E+02 -0.13777116135E+03  0.16219054255E+03  0.00000000000E+00 0. -1.
         21    1    1    2  502  501  0.21986478012E+01 -0.39994397316E+02  0.10772599968E+03  0.11493161826E+03  0.00000000000E+00 0.  1.
<scales pt_clust_5="13000.00000" pt_clust_6="13000.00000" pt_clust_7="13000.00000" pt_clust_8="13000.00000" pt_clust_9="40.05479"></scales>
<clustering>
<clus scale="   40.055">  1  9  2 -1</clus>
<clus scale="   87.557">  5  6 -1 -1</clus>
<clus scale="   96.207">  7  8 -1 -1</clus>
<clus scale="  103.069">  1  5  2 -1</clus>
<clus scale="  110.511">  2  5  1 -1</clus>
</clustering>
</event>
<event>
 9    1  0.1484717E-005  0.1156552E+03  0.7546771E-02  0.1250593E+00
          1   -1    0    0  502    0  0.00000000000E+00  0.00000000000E+00  0.46218552396E+03  0.46218552396E+03  0.00000000000E+00 0. -1.
         -1   -1    0    0    0  501 -0.00000000000E+00 -0.00000000000E+00 -0.53625920340E+02  0.53625920340E+02  0.00000000000E+00 0.  1.
         23    2    1    2    0    0  0.17330299870E+02 -0.54129214268E+02  0.16104330263E+03  0.19370573079E+03  0.91414734520E+02 0.  0.
         23    2    1    2    0    0 -0.59397650927E+02  0.62071144048E+02  0.24933184624E+03  0.27925676395E+03  0.91853485529E+02 0.  0.
        -13    1    3    3    0    0  0.22328048670E+02  0.16220263148E+02  0.14732794450E+02  0.31284084233E+02  0.00000000000E+00 0. -1.
         13    1    3    3    0    0 -0.49977488001E+01 -0.70349477416E+02  0.14631050818E+03  0.16242164656E+03  0.00000000000E+00 0.  1.
        -13    1    4    4    0    0  0.16121283316E+02  0.29670361791E+02  0.30493839436E+02  0.45498355884E+02  0.00000000000E+00 0.  1.
         13    1    4    4    0    0 -0.75518934244E+02  0.32400782256E+02  0.21883800680E+03  0.23375840807E+03  0.00000000000E+00 0. -1.
         21    1    1    2  502  501  0.42067351058E+02 -0.79419297796E+01 -0.18155452536E+01  0.42848949558E+02  0.00000000000E+00 0. -1.
<scales pt_clust_5="13000.00000" pt_clust_6="13000.00000" pt_clust_7="13000.00000" pt_clust_8="13000.00000" pt_clust_9="42.81047"></scales>
<clustering>
<clus scale="   42.810">  2  9  1 -1</clus>
<clus scale="   91.415">  5  6 -1 -1</clus>
<clus scale="   91.853">  7  8 -1 -1</clus>
<clus scale="  115.307">  2  5  1 -1</clus>
<clus scale="  115.655">  1  5  2 -1</clus>
</clustering>
</event>
<event>
 9    1  0.1484717E-005  0.9232802E+02  0.7546771E-02  0.1305487E+00
          1   -1    0    0  502    0  0.00000000000E+00  0.00000000000E+00  0.18603120072E+03  0.18603120072E+03  0.00000000000E+00 0. -1.
         -1   -1    0    0    0  501 -0.00000000000E+00 -0.00000000000E+00 -0.11173070958E+03  0.11173070958E+03  0.00000000000E+00 0.  1.
         23    2    1    2    0    0 -0.32158827402E+02 -0.16074795842E+02  0.32967889620E+02  0.10369667132E+03  0.91506986925E+02 0.  0.
         23    2    1    2    0    0 -0.18651656172E+02  0.10018691357E+02  0.91510679846E+02  0.12239780435E+03  0.78477764553E+02 0.  0.
        -13    1    3    3    0    0  0.18150124509E+02  0.26696254381E+02  0.10546728910E+02  0.33961014537E+02  0.00000000000E+00 0.  1.
         13    1    3    3    0    0 -0.50308951912E+02 -0.42771050224E+02  0.22421160710E+02  0.69735656785E+02  0.00000000000E+00 0. -1.
        -13    1    4    4    0    0 -0.27095964088E+02  0.28617300959E+02  0.93897861700E+02  0.10183294956E+03  0.00000000000E+00 0. -1.
         13    1    4    4    0    0  0.84443079161E+01 -0.18598609603E+02 -0.23871818546E+01  0.20564854790E+02  0.00000000000E+00 0.  1.
         21    1    1    2  502  501  0.50810483574E+02  0.60561044854E+01 -0.50178078328E+02  0.71667434636E+02  0.00000000000E+00 0.  1.
<scales pt_clust_5="13000.00000" pt_clust_6="13000.00000" pt_clust_7="13000.00000" pt_clust_8="13000.00000" pt_clust_9="51.17012"></scales>
<clustering>
<clus scale="   51.170">  2  9  1 -1</clus>
<clus scale="   78.478">  7  8 -1 -1</clus>
<clus scale="   79.434">  1  7  2 -1</clus>
<clus scale="   91.507">  5  6 -1 -1</clus>
<clus scale="   79.434">  1  5  2 -1</clus>
</clustering>
</event>
<event>
 9    1  0.1484717E-005  0.1439883E+03  0.7546771E-02  0.1210025E+00
          2   -1    0    0  502    0  0.00000000000E+00  0.00000000000E+00  0.10850643692E+04  0.10850643692E+04  0.00000000000E+00 0. -1.
         -2   -1    0    0    0  501 -0.00000000000E+00 -0.00000000000E+00 -0.30796217985E+02  0.30796217985E+02  0.00000000000E+00 0.  1.
         23    2    1    2    0    0  0.10019003270E+03 -0.73107711521E+02  0.48178526861E+03  0.50565064061E+03  0.90458527318E+02 0.  0.
         23    2    1    2    0    0 -0.71210440921E+02  0.56801985770E+02  0.55783745359E+03  0.57387563740E+03  0.99263437834E+02 0.  0.
        -11    1    4    4    0    0 -0.10181962939E+02 -0.22163886084E+02  0.42835930367E+02  0.49293276884E+02  0.00000000000E+00 0.  1.
         11    1    4    4    0    0 -0.61028477982E+02  0.78965871853E+02  0.51500152322E+03  0.52458236051E+03  0.00000000000E+00 0. -1.
        -11    1    3    3    0    0  0.92293010834E+02 -0.17595874346E+02  0.24708689855E+03  0.26434740415E+03  0.00000000000E+00 0.  1.
         11    1    3    3    0    0  0.78970218691E+01 -0.55511837175E+02  0.23469837005E+03  0.24130323646E+03  0.00000000000E+00 0. -1.
         21    1    1    2  502  501 -0.28979591782E+02  0.16305725751E+02  0.14645429018E+02  0.36334309175E+02  0.00000000000E+00 0. -1.
<scales pt_clust_5="13000.00000" pt_clust_6="13000.00000" pt_clust_7="13000.00000" pt_clust_8="13000.00000" pt_clust_9="33.25197"></scales>
<clustering>
<clus scale="   33.252">  2  9  1 -1</clus>
<clus scale="   90.459">  7  8 -1 -1</clus>
<clus scale="   99.263">  5  6 -1 -1</clus>
<clus scale="  138.066">  2  7  1 -1</clus>
<clus scale="  143.988">  1  5  2 -1</clus>
</clustering>
</event>
<event>
 9    1  0.1484717E-005  0.9842737E+02  0.7546771E-02  0.1286514E+00
          1   -1    0    0  502    0  0.00000000000E+00  0.00000000000E+00  0.72176180363E+02  0.72176180363E+02  0.00000000000E+00 0. -1.
         -1   -1    0    0    0  501 -0.00000000000E+00 -0.00000000000E+00 -0.28262549597E+03  0.28262549597E+03  0.00000000000E+00 0.  1.
         23    2    1    2    0    0 -0.15514982122E+02 -0.12337535720E+02 -0.79934278586E+02  0.12795567136E+03  0.97929747691E+02 0.  0.
         23    2    1    2    0    0 -0.51585747506E+01  0.86998896254E+01  0.14093736382E+01  0.93262029320E+02  0.92701244900E+02 0.  0.
        -11    1    4    4    0    0  0.39429218955E+02 -0.11113316880E+02 -0.11952875181E+02  0.42673649300E+02  0.00000000000E+00 0.  1.
         11    1    4    4    0    0 -0.44587793706E+02  0.19813206505E+02  0.13362248819E+02  0.50588380020E+02  0.00000000000E+00 0. -1.
        -13    1    3    3    0    0  0.21614613132E+02 -0.44031290877E+02 -0.27170497136E+02  0.56073005909E+02  0.00000000000E+00 0.  1.
         13    1    3    3    0    0 -0.37129595255E+02  0.31693755156E+02 -0.52763781450E+02  0.71882665453E+02  0.00000000000E+00 0. -1.
         21    1    1    2  502  501  0.20673556873E+02  0.36376460947E+01 -0.13192441066E+03  0.13358397565E+03  0.00000000000E+00 0.  1.
<scales pt_clust_5="13000.00000" pt_clust_6="13000.00000" pt_clust_7="13000.00000" pt_clust_8="13000.00000" pt_clust_9="20.99115"></scales>
<clustering>
<clus scale="   20.991">  2  9  1 -1</clus>
<clus scale="   92.701">  5  6 -1 -1</clus>
<clus scale="   93.227">  1  5  2 -1</clus>
<clus scale="   97.930">  7  8 -1 -1</clus>
<clus scale="   93.227">  1  5  2 -1</clus>
</clustering>
</event>
<event>
 9    1  0.1484717E-005  0.1098645E+03  0.7546771E-02  0.1261497E+00
         -1   -1    0    0    0  501 -0.00000000000E+00  0.00000000000E+00  0.25261457340E+03  0.25261457340E+03  0.00000000000E+00 0.  1.
          1   -1    0    0  502    0  0.00000000000E+00 -0.00000000000E+00 -0.83226968586E+02  0.83226968586E+02  0.00000000000E+00 0. -1.
         23    2    1    2    0    0  0.31194611860E+02 -0.34379200822E+02  0.12511034062E+03  0.16203149918E+03  0.91905256310E+02 0.  0.
         23    2    1    2    0    0 -0.57034659760E+02  0.25765600567E+02 -0.10035723488E+02  0.11304983531E+03  0.93609459620E+02 0.  0.
        -11    1    4    4    0    0 -0.44431805733E+02  0.50406653024E+02  0.22009868622E+02  0.70706791374E+02  0.00000000000E+00 0.  1.
         11    1    4    4    0    0 -0.12602854027E+02 -0.24641052457E+02 -0.32045592109E+02  0.42343043932E+02  0.00000000000E+00 0. -1.
        -13    1    3    3    0    0  0.16926957476E+02  0.31337263359E+02  0.46754100224E+02  0.58774925368E+02  0.00000000000E+00 0.  1.
         13    1    3    3    0    0  0.14267654384E+02 -0.65716464180E+02  0.78356240399E+02  0.10325657381E+03  0.00000000000E+00 0. -1.
         21    1    1    2  502  501  0.25840047899E+02  0.86136002551E+01  0.54312987674E+02  0.60760207495E+02  0.00000000000E+00 0.  1.
<scales pt_clust_5="13000.00000" pt_clust_6="13000.00000" pt_clust_7="13000.00000" pt_clust_8="13000.00000" pt_clust_9="27.23788"></scales>
<clustering>
<clus scale="   27.238">  1  9  2 -1</clus>
<clus scale="   91.905">  7  8 -1 -1</clus>
<clus scale="   93.609">  5  6 -1 -1</clus>
<clus scale="  108.416">  1  7  2 -1</clus>
<clus scale="  109.865">  2  5  1 -1</clus>
</clustering>
</event>
<event>
 9    1  0.1484717E-005  0.1075463E+03  0.7546771E-02  0.1266397E+00
          1   -1    0    0  502    0  0.00000000000E+00  0.00000000000E+00  0.59046263819E+03  0.59046263819E+03  0.00000000000E+00 0. -1.
         -1   -1    0    0    0  501 -0.00000000000E+00 -0.00000000000E+00 -0.54369235211E+02  0.54369235211E+02  0.00000000000E+00 0.  1.
         23    2    1    2    0    0  0.50539831841E+02 -0.85241611869E+01  0.22720613454E+03  0.25053819458E+03  0.92302889707E+02 0.  0.
         23    2    1    2    0    0 -0.58317201643E+02 -0.11864397481E+02  0.33985459024E+03  0.35641022828E+03  0.89361336059E+02 0.  0.
        -11    1    3    3    0    0 -0.24843809942E+02  0.11797507145E+02  0.59622912882E+02  0.65660397561E+02  0.00000000000E+00 0. -1.
         11    1    3    3    0    0  0.75383641783E+02 -0.20321668332E+02  0.16758322165E+03  0.18487779702E+03  0.00000000000E+00 0.  1.
        -13    1    4    4    0    0  0.71160926322E+00 -0.40801386753E+02  0.10942687280E+03  0.11678827013E+03  0.00000000000E+00 0.  1.
         13    1    4    4    0    0 -0.59028810906E+02  0.28936989272E+02  0.23042771744E+03  0.23962195815E+03  0.00000000000E+00 0. -1.
         21    1    1    2  502  501  0.77773698020E+01  0.20388558668E+02 -0.30967321794E+02  0.37883450538E+02  0.00000000000E+00 0.  1.
<scales pt_clust_5="13000.00000" pt_clust_6="13000.00000" pt_clust_7="13000.00000" pt_clust_8="13000.00000" pt_clust_9="21.82157"></scales>
<clustering>
<clus scale="   21.822">  2  9  1 -1</clus>
<clus scale="   89.361">  7  8 -1 -1</clus>
<clus scale="   92.303">  5  6 -1 -1</clus>
<clus scale="  105.033">  1  7  2 -1</clus>
<clus scale="  105.033">  1  5  2 -1</clus>
</clustering>
</event>
<event>
 9    1  0.1484717E-005  0.1015054E+03  0.7546771E-02  0.1277606E+00
         -1   -1    0    0    0  501 -0.00000000000E+00  0.00000000000E+00  0.46416770242E+03  0.46416770242E+03  0.00000000000E+00 0.  1.
          1   -1    0    0  502    0  0.00000000000E+00 -0.00000000000E+00 -0.18353088401E+03  0.18353088401E+03  0.00000000000E+00 0. -1.
         23    2    1    2    0    0 -0.11549399201E+03  0.28626448436E+01  0.26337112056E+03  0.30153471023E+03  0.90618857870E+02 0.  0.
         23    2    1    2    0    0  0.31800566796E+02 -0.25605061775E+02 -0.13665552662E+03  0.16949030633E+03  0.91571478893E+02 0.  0.
        -13    1    3    3    0    0 -0.57756909578E+02  0.19640603918E+02  0.21754386854E+03  0.22593571800E+03  0.00000000000E+00 0.  1.
         13    1    3    3    0    0 -0.57737082437E+02 -0.16777959075E+02  0.45827252013E+02  0.75598992230E+02  0.00000000000E+00 0. -1.
        -13    1    4    4    0    0  0.11585614405E+02 -0.58173862462E+02 -0.10104837600E+03  0.11717166478E+03  0.00000000000E+00 0. -1.
         13    1    4    4    0    0  0.20214952391E+02  0.32568800687E+02 -0.35607150620E+02  0.52318641550E+02  0.00000000000E+00 0.  1.
         21    1    1    2  502  501  0.83693425219E+02  0.22742416932E+02  0.15392122446E+03  0.17667356988E+03  0.00000000000E+00 0. -1.
<scales pt_clust_5="13000.00000" pt_clust_6="13000.00000" pt_clust_7="13000.00000" pt_clust_8="13000.00000" pt_clust_9="86.72835"></scales>
<clustering>
<clus scale="   86.728">  1  9  2 -1</clus>
<clus scale="   90.619">  5  6 -1 -1</clus>
<clus scale="   91.571">  7  8 -1 -1</clus>
<clus scale="  100.647">  1  5  2 -1</clus>
<clus scale="  101.505">  2  5  1 -1</clus>
</clustering>
</event>
<event>
 9    1  0.1484717E-005  0.9542431E+02  0.7546771E-02  0.1291510E+00
          2   -1    0    0  502    0  0.00000000000E+00  0.00000000000E+00  0.10341596343E+03  0.10341596343E+03  0.00000000000E+00 0. -1.
         -2   -1    0    0    0  501 -0.00000000000E+00 -0.00000000000E+00 -0.14259405665E+03  0.14259405665E+03  0.00000000000E+00 0.  1.
         23    2    1    2    0    0  0.13900017621E+02 -0.24936818996E+02 -0.32812560779E+01  0.95488018476E+02  0.91061186021E+02 0.  0.
         23    2    1    2    0    0 -0.38063934397E+02 -0.22910647866E+01  0.38694060747E+01  0.96609047422E+02  0.88680458167E+02 0.  0.
        -11    1    3    3    0    0 -0.31995965881E+02  0.96567885916E+01  0.12829833531E+02  0.35799441714E+02  0.00000000000E+00 0. -1.
         11    1    3    3    0    0  0.45895983502E+02 -0.34593607587E+02 -0.16111089609E+02  0.59688576762E+02  0.00000000000E+00 0.  1.
        -13    1    4    4    0    0  0.16071741194E+02  0.26768387654E+02 -0.11501392301E+02  0.33273555077E+02  0.00000000000E+00 0.  1.
         13    1    4    4    0    0 -0.54135675591E+02 -0.29059452440E+02  0.15370798376E+02  0.63335492345E+02  0.00000000000E+00 0. -1.
         21    1    1    2  502  501  0.24163916776E+02  0.27227883782E+02 -0.39766243222E+02  0.53912954187E+02  0.00000000000E+00 0.  1.
<scales pt_clust_5="13000.00000" pt_clust_6="13000.00000" pt_clust_7="13000.00000" pt_clust_8="13000.00000" pt_clust_9="36.40402"></scales>
<clustering>
<clus scale="   36.404">  2  9  1 -1</clus>
<clus scale="   88.680">  7  8 -1 -1</clus>
<clus scale="   91.061">  5  6 -1 -1</clus>
<clus scale="   93.155">  1  7  2 -1</clus>
<clus scale="   93.155">  1  5  2 -1</clus>
</clustering>
</event>
<event>
 9    1  0.1484717E-005  0.1101091E+03  0.7546771E-02  0.1262065E+00
          4   -1    0    0  502    0  0.00000000000E+00  0.00000000000E+00  0.17668208457E+03  0.17668208457E+03  0.00000000000E+00 0. -1.
         -4   -1    0    0    0  501 -0.00000000000E+00 -0.00000000000E+00 -0.11863154315E+03  0.11863154315E+03  0.00000000000E+00 0.  1.
         23    2    1    2    0    0 -0.18728455828E+02 -0.41989217261E+02 -0.18101603872E+02  0.10142402629E+03  0.88573786316E+02 0.  0.
         23    2    1    2    0    0  0.33985892783E+02  0.54944295728E+02  0.10791124219E+03  0.15634944059E+03  0.92878387370E+02 0.  0.
        -11    1    3    3    0    0  0.27030244536E+02 -0.30955812451E+02 -0.32287631832E+02  0.52262678974E+02  0.00000000000E+00 0. -1.
         11    1    3    3    0    0 -0.45758700364E+02 -0.11033404811E+02  0.14186027961E+02  0.49161347317E+02  0.00000000000E+00 0.  1.
        -13    1    4    4    0    0  0.16943886590E+02  0.79810048241E+02  0.67248161123E+02  0.10573104685E+03  0.00000000000E+00 0. -1.
         13    1    4    4    0    0  0.17042006193E+02 -0.24865752513E+02  0.40663081069E+02  0.50618393743E+02  0.00000000000E+00 0.  1.
         21    1    1    2  502  501 -0.15257436956E+02 -0.12955078466E+02 -0.31759096896E+02  0.37540160844E+02  0.00000000000E+00 0.  1.
<scales pt_clust_5="13000.00000" pt_clust_6="13000.00000" pt_clust_7="13000.00000" pt_clust_8="13000.00000" pt_clust_9="20.01558"></scales>
<clustering>
<clus scale="   20.016">  2  9  1 -1</clus>
<clus scale="   88.574">  5  6 -1 -1</clus>
<clus scale="   92.878">  7  8 -1 -1</clus>
<clus scale="  106.503">  2  5  1 -1</clus>
<clus scale="  110.109">  1  5  2 -1</clus>
</clustering>
</event>
<event>
 9    1  0.1484717E-005  0.1096750E+03  0.7546771E-02  0.1262807E+00
         -2   -1    0    0    0  501 -0.00000000000E+00  0.00000000000E+00  0.35970418707E+02  0.35970418707E+02  0.00000000000E+00 0.  1.
          2   -1    0    0  502    0  0.00000000000E+00 -0.00000000000E+00 -0.54280452825E+03  0.54280452825E+03  0.00000000000E+00 0. -1.
         23    2    1    2    0    0  0.16723559430E+02 -0.38445962972E+02 -0.14932212049E+03  0.17964242295E+03  0.90645104377E+02 0.  0.
         23    2    1    2    0    0 -0.63320503000E+02  0.44982511800E+02 -0.19784100474E+03  0.23267284465E+03  0.94671416022E+02 0.  0.
        -13    1    4    4    0    0 -0.18158415828E+02  0.67130818342E+02 -0.90528054598E+02  0.11415604892E+03  0.00000000000E+00 0.  1.
         13    1    4    4    0    0 -0.45162087172E+02 -0.22148306542E+02 -0.10731295014E+03  0.11851679572E+03  0.00000000000E+00 0. -1.
        -13    1    3    3    0    0  0.20292298715E+02  0.23135468935E+02 -0.85559586321E+02  0.90925629618E+02  0.00000000000E+00 0.  1.
         13    1    3    3    0    0 -0.35687392853E+01 -0.61581431907E+02 -0.63762534171E+02  0.88716793336E+02  0.00000000000E+00 0. -1.
         21    1    1    2  502  501  0.46596943570E+02 -0.65365488283E+01 -0.15967098431E+03  0.16645967935E+03  0.00000000000E+00 0. -1.
<scales pt_clust_5="13000.00000" pt_clust_6="13000.00000" pt_clust_7="13000.00000" pt_clust_8="13000.00000" pt_clust_9="47.05318"></scales>
<clustering>
<clus scale="   47.053">  2  9  1 -1</clus>
<clus scale="   90.645">  7  8 -1 -1</clus>
<clus scale="   94.671">  5  6 -1 -1</clus>
<clus scale="  106.219">  1  7  2 -1</clus>
<clus scale="   47.053">  2  5  1 -1</clus>
</clustering>
</event>
<event>
 9    1  0.1484717E-005  0.1301604E+03  0.7546771E-02  0.1228285E+00
         -3   -1    0    0    0  501 -0.00000000000E+00  0.00000000000E+00  0.10968156771E+03  0.10968156771E+03  0.00000000000E+00 0.  1.
          3   -1    0    0  502    0  0.00000000000E+00 -0.00000000000E+00 -0.22288907862E+03  0.22288907862E+03  0.00000000000E+00 0. -1.
         23    2    1    2    0    0  0.43388007904E+02 -0.79394577726E+02 -0.31014338375E+01  0.13084623007E+03  0.94472741192E+02 0.  0.
         23    2    1    2    0    0 -0.61059261743E+02  0.66051309432E+02 -0.12204078901E+03  0.17656982683E+03  0.90509340075E+02 0.  0.
        -13    1    4    4    0    0 -0.52358775837E+01  0.48692898143E+02 -0.96948603950E+01  0.49923972816E+02  0.00000000000E+00 0.  1.
         13    1    4    4    0    0 -0.55823384159E+02  0.17358411289E+02 -0.11234592862E+03  0.12664585401E+03  0.00000000000E+00 0. -1.
        -13    1    3    3    0    0  0.34306200357E+02 -0.10080443037E+03 -0.89745559519E+01  0.10685968005E+03  0.00000000000E+00 0.  1.
         13    1    3    3    0    0  0.90818075465E+01  0.21409852642E+02  0.58731221144E+01  0.23986550020E+02  0.00000000000E+00 0. -1.
         21    1    1    2  502  501  0.17671253839E+02  0.13343268294E+02  0.11934711930E+02  0.25154589439E+02  0.00000000000E+00 0.  1.
<scales pt_clust_5="13000.00000" pt_clust_6="13000.00000" pt_clust_7="13000.00000" pt_clust_8="13000.00000" pt_clust_9="22.14308"></scales>
<clustering>
<clus scale="   22.143">  1  9  2 -1</clus>
<clus scale="   90.509">  5  6 -1 -1</clus>
<clus scale="   94.473">  7  8 -1 -1</clus>
<clus scale="  127.313">  2  5  1 -1</clus>
<clus scale="  127.313">  2  5  1 -1</clus>
</clustering>
</event>
<event>
 9    1  0.1484717E-005  0.9713230E+02  0.7546771E-02  0.1288910E+00
          2   -1    0    0  502    0  0.00000000000E+00  0.00000000000E+00  0.79178624173E+02  0.79178624173E+02  0.00000000000E+00 0. -1.
         -2   -1    0    0    0  501 -0.00000000000E+00 -0.00000000000E+00 -0.16739338138E+03  0.16739338138E+03  0.00000000000E+00 0.  1.
         23    2    1    2    0    0  0.49800897935E+01  0.47051345920E+02 -0.43882189434E+02  0.96335717157E+02  0.71528269961E+02 0.  0.
         23    2    1    2    0    0 -0.30477744568E+01 -0.67690711378E+02 -0.15438208286E+01  0.10269058287E+03  0.77146944793E+02 0.  0.
        -13    1    4    4    0    0 -0.29511153139E+02 -0.57066008318E+02 -0.21653993212E+02  0.67796260125E+02  0.00000000000E+00 0.  1.
         13    1    4    4    0    0  0.26463378682E+02 -0.10624703060E+02  0.20110172383E+02  0.34894322742E+02  0.00000000000E+00 0. -1.
        -13    1    3    3    0    0 -0.22322005658E+02  0.44645604776E+02 -0.47237475798E+02  0.68723220837E+02  0.00000000000E+00 0. -1.
         13    1    3    3    0    0  0.27302095451E+02  0.24057411438E+01  0.33552863646E+01  0.27612496321E+02  0.00000000000E+00 0.  1.
         21    1    1    2  502  501 -0.19323153367E+01  0.20639365458E+02 -0.42788746941E+02  0.47545705525E+02  0.00000000000E+00 0. -1.
<scales pt_clust_5="13000.00000" pt_clust_6="13000.00000" pt_clust_7="13000.00000" pt_clust_8="13000.00000" pt_clust_9="20.72962"></scales>
<clustering>
<clus scale="   20.730">  2  9  1 -1</clus>
<clus scale="   71.528">  7  8 -1 -1</clus>
<clus scale="   77.147">  5  6 -1 -1</clus>
<clus scale="   92.733">  2  7  1 -1</clus>
<clus scale="   97.132">  1  5  2 -1</clus>
</clustering>
</event>
<event>
 9    1  0.1484717E-005  0.1440575E+03  0.7546771E-02  0.1208111E+00
          2   -1    0    0  502    0  0.00000000000E+00  0.00000000000E+00  0.35690661442E+03  0.35690661442E+03  0.00000000000E+00 0. -1.
         -2   -1    0    0    0  501 -0.00000000000E+00 -0.00000000000E+00 -0.79868852102E+02  0.79868852102E+02  0.00000000000E+00 0.  1.
         23    2    1    2    0    0  0.10358397425E+03 -0.28127633119E+02  0.63194702790E+02  0.15385473227E+03  0.90315584015E+02 0.  0.
         23    2    1    2    0    0 -0.10360249793E+03  0.48365485612E+02  0.21781957503E+03  0.26229590231E+03  0.91000413894E+02 0.  0.
        -11    1    4    4    0    0 -0.44683940956E+02  0.59380926146E+02  0.67218666758E+02  0.10020527995E+03  0.00000000000E+00 0.  1.
         11    1    4    4    0    0 -0.58918556976E+02 -0.11015440534E+02  0.15060090827E+03  0.16209062236E+03  0.00000000000E+00 0. -1.
        -13    1    3    3    0    0  0.30182532234E+02 -0.16767362690E+02  0.71219013286E+02  0.79147189192E+02  0.00000000000E+00 0. -1.
         13    1    3    3    0    0  0.73401442017E+02 -0.11360270429E+02 -0.80243104957E+01  0.74707543082E+02  0.00000000000E+00 0.  1.
         21    1    1    2  502  501  0.18523680637E-01 -0.20237852493E+02 -0.39765155024E+01  0.20624831932E+02  0.00000000000E+00 0.  1.
<scales pt_clust_5="13000.00000" pt_clust_6="13000.00000" pt_clust_7="13000.00000" pt_clust_8="13000.00000" pt_clust_9="20.23786"></scales>
<clustering>
<clus scale="   20.238">  2  9  1 -1</clus>
<clus scale="   90.316">  7  8 -1 -1</clus>
<clus scale="   91.000">  5  6 -1 -1</clus>
<clus scale="  143.626">  2  7  1 -1</clus>
<clus scale="  144.058">  1  5  2 -1</clus>
</clustering>
</event>
<event>
 9    1  0.1484717E-005  0.2070728E+03  0.7546771E-02  0.1144091E+00
          3   -1    0    0  502    0  0.00000000000E+00  0.00000000000E+00  0.68979142732E+03  0.68979142732E+03  0.00000000000E+00 0. -1.
         -3   -1    0    0    0  501 -0.00000000000E+00 -0.00000000000E+00 -0.73226288000E+02  0.73226288000E+02  0.00000000000E+00 0.  1.
         23    2    1    2    0    0  0.19456265745E+03 -0.13372350046E+02  0.32346545907E+03  0.38882950361E+03  0.92331101200E+02 0.  0.
         23    2    1    2    0    0 -0.17265193643E+03  0.24886622006E+02  0.28671973097E+03  0.34862726674E+03  0.94364886903E+02 0.  0.
        -11    1    3    3    0    0  0.10776890330E+02 -0.28329329436E+02  0.33270930699E+02  0.45007189438E+02  0.00000000000E+00 0.  1.
         11    1    3    3    0    0  0.18378576712E+03  0.14956979391E+02  0.29019452837E+03  0.34382231417E+03  0.00000000000E+00 0. -1.
        -13    1    4    4    0    0 -0.15640019878E+03 -0.94116649965E+01  0.20078645823E+03  0.25468569537E+03  0.00000000000E+00 0.  1.
         13    1    4    4    0    0 -0.16251737645E+02  0.34298287002E+02  0.85933272745E+02  0.93941571375E+02  0.00000000000E+00 0. -1.
         21    1    1    2  502  501 -0.21910721029E+02 -0.11514271960E+02  0.63799492805E+01  0.25560944967E+02  0.00000000000E+00 0.  1.
<scales pt_clust_5="13000.00000" pt_clust_6="13000.00000" pt_clust_7="13000.00000" pt_clust_8="13000.00000" pt_clust_9="24.75193"></scales>
<clustering>
<clus scale="   24.752">  2  9  1 -1</clus>
<clus scale="   92.331">  5  6 -1 -1</clus>
<clus scale="   94.365">  7  8 -1 -1</clus>
<clus scale="  206.154">  2  5  1 -1</clus>
<clus scale="  207.073">  1  5  2 -1</clus>
</clustering>
</event>
<event>
 9    1  0.1484717E-005  0.1076794E+03  0.7546771E-02  0.1270408E+00
          2   -1    0    0  502    0  0.00000000000E+00  0.00000000000E+00  0.48898901466E+03  0.48898901466E+03  0.00000000000E+00 0. -1.
         -2   -1    0    0    0  501 -0.00000000000E+00 -0.00000000000E+00 -0.66919000572E+02  0.66919000572E+02  0.00000000000E+00 0.  1.
         23    2    1    2    0    0  0.74308353899E+02 -0.19301527639E+02  0.12115017866E+03  0.16985477008E+03  0.90988992194E+02 0.  0.
         23    2    1    2    0    0 -0.14454107350E+02  0.11957540884E+02  0.30818293636E+03  0.32531431524E+03  0.10247330106E+03 0.  0.
        -11    1    3    3    0    0  0.30326349093E+02 -0.31915863157E+02  0.41444710668E+01  0.44220882067E+02  0.00000000000E+00 0.  1.
         11    1    3    3    0    0  0.43982004806E+02  0.12614335518E+02  0.11700570759E+03  0.12563388801E+03  0.00000000000E+00 0. -1.
        -13    1    4    4    0    0 -0.91169137726E+01 -0.37171510416E+02  0.52908238627E+02  0.65300237503E+02  0.00000000000E+00 0.  1.
         13    1    4    4    0    0 -0.53371935772E+01  0.49129051300E+02  0.25527469774E+03  0.26001407774E+03  0.00000000000E+00 0. -1.
         21    1    1    2  502  501 -0.59854246549E+02  0.73439867543E+01 -0.72631009397E+01  0.60738929911E+02  0.00000000000E+00 0.  1.
<scales pt_clust_5="13000.00000" pt_clust_6="13000.00000" pt_clust_7="13000.00000" pt_clust_8="13000.00000" pt_clust_9="60.30311"></scales>
<clustering>
<clus scale="   60.303">  2  9  1 -1</clus>
<clus scale="   90.989">  5  6 -1 -1</clus>
<clus scale="   96.815">  2  5  1 -1</clus>
<clus scale="  102.473">  7  8 -1 -1</clus>
<clus scale="  107.679">  1  5  2 -1</clus>
</clustering>
</event>
<event>
 9    1  0.1484717E-005  0.9932168E+02  0.7546771E-02  0.1283008E+00
          1   -1    0    0  502    0  0.00000000000E+00  0.00000000000E+00  0.17028214729E+03  0.17028214729E+03  0.00000000000E+00 0. -1.
         -1   -1    0    0    0  501 -0.00000000000E+00 -0.00000000000E+00 -0.15286471629E+03  0.15286471629E+03  0.00000000000E+00 0.  1.
         23    2    1    2    0    0  0.27694593216E+02  0.96450052486E+01 -0.67754043025E+02  0.11836057622E+03  0.92512696629E+02 0.  0.
         23    2    1    2    0    0 -0.23181928905E+02 -0.30286973047E+02  0.12562483639E+03  0.15914716489E+03  0.89952865486E+02 0.  0.
        -11    1    3    3    0    0  0.25719749585E+02 -0.30577458637E+02 -0.48548012964E+00  0.39959006324E+02  0.00000000000E+00 0. -1.
         11    1    3    3    0    0  0.19748436312E+01  0.40222463886E+02 -0.67268562896E+02  0.78401569898E+02  0.00000000000E+00 0.  1.
        -13    1    4    4    0    0 -0.23144221893E+02  0.24928233329E+02  0.18723505434E+02  0.38828359219E+02  0.00000000000E+00 0.  1.
         13    1    4    4    0    0 -0.37707012427E-01 -0.55215206376E+02  0.10690133096E+03  0.12031880567E+03  0.00000000000E+00 0. -1.
         21    1    1    2  502  501 -0.45126643113E+01  0.20641967798E+02 -0.40453362364E+02  0.45639122475E+02  0.00000000000E+00 0.  1.
<scales pt_clust_5="13000.00000" pt_clust_6="13000.00000" pt_clust_7="13000.00000" pt_clust_8="13000.00000" pt_clust_9="21.12948"></scales>
<clustering>
<clus scale="   21.129">  2  9  1 -1</clus>
<clus scale="   89.953">  7  8 -1 -1</clus>
<clus scale="   92.513">  5  6 -1 -1</clus>
<clus scale="   96.942">  1  7  2 -1</clus>
<clus scale="   96.942">  1  5  2 -1</clus>
</clustering>
</event>
<event>
 9    1  0.1484717E-005  0.1049211E+03  0.7546771E-02  0.1271092E+00
         -1   -1    0    0    0  501 -0.00000000000E+00  0.00000000000E+00  0.22580528661E+02  0.22580528661E+02  0.00000000000E+00 0.  1.
          1   -1    0    0  502    0  0.00000000000E+00 -0.00000000000E+00 -0.73710205887E+03  0.73710205887E+03  0.00000000000E+00 0. -1.
         23    2    1    2    0    0  0.31860978266E+02 -0.88106300466E+00 -0.21618109434E+03  0.23736806427E+03  0.92700777650E+02 0.  0.
         23    2    1    2    0    0 -0.44359776728E+02  0.37792707345E+02 -0.42494121053E+03  0.43921136007E+03  0.94527815453E+02 0.  0.
        -13    1    4    4    0    0 -0.43295413385E+02  0.58516707990E+02 -0.40089131856E+03  0.40744637345E+03  0.00000000000E+00 0. -1.
         13    1    4    4    0    0 -0.10643633431E+01 -0.20724000645E+02 -0.24049891962E+02  0.31764986627E+02  0.00000000000E+00 0.  1.
        -13    1    3    3    0    0  0.81737289254E+01 -0.39320981613E+02 -0.16167880364E+03  0.16659227169E+03  0.00000000000E+00 0.  1.
         13    1    3    3    0    0  0.23687249341E+02  0.38439918609E+02 -0.54502290698E+02  0.70775792580E+02  0.00000000000E+00 0. -1.
         21    1    1    2  502  501  0.12498798461E+02 -0.36911644341E+02 -0.73399225348E+02  0.83103163192E+02  0.00000000000E+00 0.  1.
<scales pt_clust_5="13000.00000" pt_clust_6="13000.00000" pt_clust_7="13000.00000" pt_clust_8="13000.00000" pt_clust_9="38.97037"></scales>
<clustering>
<clus scale="   38.970">  1  9  2 -1</clus>
<clus scale="   92.701">  7  8 -1 -1</clus>
<clus scale="   94.528">  5  6 -1 -1</clus>
<clus scale="  103.278">  1  7  2 -1</clus>
<clus scale="  104.921">  2  5  1 -1</clus>
</clustering>
</event>
<event>
 9    1  0.1484717E-005  0.9608212E+02  0.7546771E-02  0.1289645E+00
         -2   -1    0    0    0  501 -0.00000000000E+00  0.00000000000E+00  0.18608863719E+03  0.18608863719E+03  0.00000000000E+00 0.  1.
          2   -1    0    0  502    0  0.00000000000E+00 -0.00000000000E+00 -0.71370602936E+02  0.71370602936E+02  0.00000000000E+00 0. -1.
         23    2    1    2    0    0  0.24562233914E+02 -0.33416259418E+02  0.64933697931E+02  0.11994094702E+03  0.91921139660E+02 0.  0.
         23    2    1    2    0    0 -0.11817039256E+02  0.16604662182E+02  0.10761679044E+02  0.93157977851E+02  0.90262051154E+02 0.  0.
        -11    1    3    3    0    0 -0.18867989651E+02 -0.49616577414E+02  0.24641595390E+02  0.58523619259E+02  0.00000000000E+00 0.  1.
         11    1    3    3    0    0  0.43430223565E+02  0.16200317996E+02  0.40292102540E+02  0.61417327760E+02  0.00000000000E+00 0. -1.
        -13    1    4    4    0    0 -0.25972194048E+02  0.38003395785E+02  0.35028469600E+02  0.57842948035E+02  0.00000000000E+00 0.  1.
         13    1    4    4    0    0  0.14155154792E+02 -0.21398733603E+02 -0.24266790556E+02  0.35315029816E+02  0.00000000000E+00 0. -1.
         21    1    1    2  502  501 -0.12745194658E+02  0.16811597236E+02  0.39022657278E+02  0.44360315255E+02  0.00000000000E+00 0. -1.
<scales pt_clust_5="13000.00000" pt_clust_6="13000.00000" pt_clust_7="13000.00000" pt_clust_8="13000.00000" pt_clust_9="21.09668"></scales>
<clustering>
<clus scale="   21.097">  1  9  2 -1</clus>
<clus scale="   90.262">  7  8 -1 -1</clus>
<clus scale="   91.921">  5  6 -1 -1</clus>
<clus scale="   94.496">  2  7  1 -1</clus>
<clus scale="   94.496">  2  5  1 -1</clus>
</clustering>
</event>
<event>
 9    1  0.1484717E-005  0.1061821E+03  0.7546771E-02  0.1270068E+00
          1   -1    0    0  502    0  0.00000000000E+00  0.00000000000E+00  0.15228348743E+03  0.15228348743E+03  0.00000000000E+00 0. -1.
         -1   -1    0    0    0  501 -0.00000000000E+00 -0.00000000000E+00 -0.21794949715E+03  0.21794949715E+03  0.00000000000E+00 0.  1.
         23    2    1    2    0    0 -0.18815910380E+02 -0.66491228276E+01 -0.12183194517E+03  0.15293795990E+03  0.90270412637E+02 0.  0.
         23    2    1    2    0    0  0.29706665565E+02  0.42247476135E+02  0.10827957817E+03  0.15325064114E+03  0.95362239602E+02 0.  0.
        -13    1    4    4    0    0 -0.13461105769E+02  0.50522098038E+02  0.93050038509E+02  0.10673328171E+03  0.00000000000E+00 0. -1.
         13    1    4    4    0    0  0.43167771334E+02 -0.82746219025E+01  0.15229539659E+02  0.46517359424E+02  0.00000000000E+00 0.  1.
        -13    1    3    3    0    0 -0.15630192662E+01 -0.30062544313E+02 -0.26056910166E+01  0.30215711567E+02  0.00000000000E+00 0.  1.
         13    1    3    3    0    0 -0.17252891114E+02  0.23413421486E+02 -0.11922625415E+03  0.12272224833E+03  0.00000000000E+00 0. -1.
         21    1    1    2  502  501 -0.10890755184E+02 -0.35598353308E+02 -0.52113642715E+02  0.64044383546E+02  0.00000000000E+00 0.  1.
<scales pt_clust_5="13000.00000" pt_clust_6="13000.00000" pt_clust_7="13000.00000" pt_clust_8="13000.00000" pt_clust_9="37.22702"></scales>
<clustering>
<clus scale="   37.227">  2  9  1 -1</clus>
<clus scale="   90.270">  7  8 -1 -1</clus>
<clus scale="   95.362">  5  6 -1 -1</clus>
<clus scale="  101.634">  2  7  1 -1</clus>
<clus scale="  106.182">  1  5  2 -1</clus>
</clustering>
</event>
<event>
 9    1  0.1484717E-005  0.1074798E+03  0.7546771E-02  0.1266095E+00
         -2   -1    0    0    0  501 -0.00000000000E+00  0.00000000000E+00  0.11477074540E+03  0.11477074540E+03  0.00000000000E+00 0.  1.
          2   -1    0    0  502    0  0.00000000000E+00 -0.00000000000E+00 -0.25297762814E+03  0.25297762814E+03  0.00000000000E+00 0. -1.
         23    2    1    2    0    0 -0.49807979391E+02  0.45872910451E+01  0.47707490429E+02  0.11328503318E+03  0.89753083793E+02 0.  0.
         23    2    1    2    0    0  0.88607152013E+02  0.17575905320E+02 -0.14499184006E+03  0.19387260852E+03  0.91672323058E+02 0.  0.
        -11    1    3    3    0    0 -0.61779731310E+02  0.32335463120E+02  0.20655528922E+02  0.72725293062E+02  0.00000000000E+00 0.  1.
         11    1    3    3    0    0  0.11971751918E+02 -0.27748172074E+02  0.27051961506E+02  0.40559740122E+02  0.00000000000E+00 0. -1.
        -13    1    4    4    0    0 -0.71389297344E+01  0.28347542861E+02 -0.17508689311E+02  0.34074942485E+02  0.00000000000E+00 0.  1.
         13    1    4    4    0    0  0.95746081748E+02 -0.10771637541E+02 -0.12748315075E+03  0.15979766604E+03  0.00000000000E+00 0. -1.
         21    1    1    2  502  501 -0.38799172622E+02 -0.22163196365E+02 -0.40922533103E+02  0.60590731839E+02  0.00000000000E+00 0.  1.
<scales pt_clust_5="13000.00000" pt_clust_6="13000.00000" pt_clust_7="13000.00000" pt_clust_8="13000.00000" pt_clust_9="44.68314"></scales>
<clustering>
<clus scale="   44.683">  2  9  1 -1</clus>
<clus scale="   89.753">  5  6 -1 -1</clus>
<clus scale="   91.672">  7  8 -1 -1</clus>
<clus scale="  105.848">  1  5  2 -1</clus>
<clus scale="   44.683">  2  5  1 -1</clus>
</clustering>
</event>
<event>
 9    1  0.1484717E-005  0.1026952E+03  0.7546771E-02  0.1276902E+00
         -1   -1    0    0    0  501 -0.00000000000E+00  0.00000000000E+00  0.74912915293E+02  0.74912915293E+02  0.00000000000E+00 0.  1.
          1   -1    0    0  502    0  0.00000000000E+00 -0.00000000000E+00 -0.50148042870E+03  0.50148042870E+03  0.00000000000E+00 0. -1.
         23    2    1    2    0    0  0.16342688711E+02  0.34856086422E+02 -0.16248972000E+03  0.19021673953E+03  0.91090442183E+02 0.  0.
         23    2    1    2    0    0 -0.48666009303E+02 -0.27358821508E+02 -0.31165172529E+03  0.32817414735E+03  0.86339953321E+02 0.  0.
        -11    1    3    3    0    0 -0.65638236469E+01  0.62276085024E+02 -0.11277997133E+03  0.12899890108E+03  0.00000000000E+00 0. -1.
         11    1    3    3    0    0  0.22906512358E+02 -0.27419998602E+02 -0.49709748674E+02  0.61217838453E+02  0.00000000000E+00 0.  1.
        -13    1    4    4    0    0 -0.43596196568E+02  0.23510114884E+02 -0.18696180251E+03  0.19341165801E+03  0.00000000000E+00 0. -1.
         13    1    4    4    0    0 -0.50698127352E+01 -0.50868936392E+02 -0.12468992278E+03  0.13476248934E+03  0.00000000000E+00 0.  1.
         21    1    1    2  502  501  0.32323320592E+02 -0.74972649145E+01  0.47573931886E+02  0.58002457107E+02  0.00000000000E+00 0.  1.
<scales pt_clust_5="13000.00000" pt_clust_6="13000.00000" pt_clust_7="13000.00000" pt_clust_8="13000.00000" pt_clust_9="33.18141"></scales>
<clustering>
<clus scale="   33.181">  1  9  2 -1</clus>
<clus scale="   86.340">  7  8 -1 -1</clus>
<clus scale="   91.090">  5  6 -1 -1</clus>
<clus scale="   98.506">  2  7  1 -1</clus>
<clus scale="   98.506">  2  5  1 -1</clus>
</clustering>
</event>
<event>
 9    1  0.1484717E-005  0.9596498E+02  0.7546771E-02  0.1289673E+00
          1   -1    0    0  502    0  0.00000000000E+00  0.00000000000E+00  0.55889923911E+02  0.55889923911E+02  0.00000000000E+00 0. -1.
         -1   -1    0    0    0  501 -0.00000000000E+00 -0.00000000000E+00 -0.25013777649E+03  0.25013777649E+03  0.00000000000E+00 0.  1.
         23    2    1    2    0    0  0.16847718046E+02  0.31475756693E+02 -0.15318900519E+03  0.18212288906E+03  0.91800362443E+02 0.  0.
         23    2    1    2    0    0 -0.83263962139E+00 -0.11505930127E+02 -0.32059255663E+02  0.96770527473E+02  0.90574054767E+02 0.  0.
        -11    1    4    4    0    0 -0.44924632607E+02  0.11891932349E+01 -0.20830611542E+02  0.49533333955E+02  0.00000000000E+00 0.  1.
         11    1    4    4    0    0  0.44091992986E+02 -0.12695123362E+02 -0.11228644121E+02  0.47237193518E+02  0.00000000000E+00 0. -1.
        -13    1    3    3    0    0 -0.28308186740E+02 -0.13082005894E+02 -0.76395224015E+02  0.82514983894E+02  0.00000000000E+00 0.  1.
         13    1    3    3    0    0  0.45155904786E+02  0.44557762587E+02 -0.76793781177E+02  0.99607905164E+02  0.00000000000E+00 0. -1.
         21    1    1    2  502  501 -0.16015078425E+02 -0.19969826566E+02 -0.89995917277E+01  0.27134283873E+02  0.00000000000E+00 0.  1.
<scales pt_clust_5="13000.00000" pt_clust_6="13000.00000" pt_clust_7="13000.00000" pt_clust_8="13000.00000" pt_clust_9="25.59837"></scales>
<clustering>
<clus scale="   25.598">  1  9  2 -1</clus>
<clus scale="   90.574">  5  6 -1 -1</clus>
<clus scale="   91.800">  7  8 -1 -1</clus>
<clus scale="   94.793">  1  5  2 -1</clus>
<clus scale="   25.598">  1  5  2 -1</clus>
</clustering>
</event>
<event>
 9    1  0.1484717E-005  0.1171391E+03  0.7546771E-02  0.1249320E+00
          1   -1    0    0  502    0  0.00000000000E+00  0.00000000000E+00  0.25137832407E+03  0.25137832407E+03  0.00000000000E+00 0. -1.
         -1   -1    0    0    0  501 -0.00000000000E+00 -0.00000000000E+00 -0.92981975864E+02  0.92981975864E+02  0.00000000000E+00 0.  1.
         23    2    1    2    0    0  0.59462287181E+02  0.27760759592E+02  0.30913850630E+02  0.11740626155E+03  0.92315441394E+02 0.  0.
         23    2    1    2    0    0 -0.91965716551E+02  0.20662998762E+02  0.94823282144E+02  0.16011125533E+03  0.88088062236E+02 0.  0.
        -11    1    4    4    0    0 -0.63495504492E+02  0.11021101297E+02  0.41419075151E+01  0.64577853497E+02  0.00000000000E+00 0.  1.
         11    1    4    4    0    0 -0.28470212060E+02  0.96418974648E+01  0.90681374629E+02  0.95533401834E+02  0.00000000000E+00 0. -1.
        -13    1    3    3    0    0 -0.56159933855E+01  0.38221103200E+02 -0.98997779270E+01  0.39879790804E+02  0.00000000000E+00 0. -1.
         13    1    3    3    0    0  0.65078280566E+02 -0.10460343609E+02  0.40813628557E+02  0.77526470743E+02  0.00000000000E+00 0.  1.
         21    1    1    2  502  501  0.32503429371E+02 -0.48423758354E+02  0.32659215433E+02  0.66842783056E+02  0.00000000000E+00 0.  1.
<scales pt_clust_5="13000.00000" pt_clust_6="13000.00000" pt_clust_7="13000.00000" pt_clust_8="13000.00000" pt_clust_9="58.32095"></scales>
<clustering>
<clus scale="   58.321">  1  9  2 -1</clus>
<clus scale="   88.088">  5  6 -1 -1</clus>
<clus scale="   92.315">  7  8 -1 -1</clus>
<clus scale="  113.837">  1  5  2 -1</clus>
<clus scale="   58.321">  1  5  2 -1</clus>
</clustering>
</event>
<event>
 9    1  0.1484717E-005  0.1152452E+03  0.7546771E-02  0.1259238E+00
          3   -1    0    0  502    0  0.00000000000E+00  0.00000000000E+00  0.65398177692E+02  0.65398177692E+02  0.00000000000E+00 0. -1.
         -3   -1    0    0    0  501 -0.00000000000E+00 -0.00000000000E+00 -0.26134196793E+03  0.26134196793E+03  0.00000000000E+00 0.  1.
         23    2    1    2    0    0 -0.17694599166E+02  0.19671581598E+02 -0.94271150854E+02  0.13453208663E+03  0.92259213561E+02 0.  0.
         23    2    1    2    0    0  0.10447606771E+02 -0.38479119998E+02 -0.34675802613E+02  0.12224507924E+03  0.11023453609E+03 0.  0.
        -13    1    4    4    0    0 -0.16918381006E+02 -0.52042431202E+02 -0.60981764177E+02  0.81935473536E+02  0.00000000000E+00 0.  1.
         13    1    4    4    0    0  0.27365987778E+02  0.13563311204E+02  0.26305961564E+02  0.40309605700E+02  0.00000000000E+00 0. -1.
        -13    1    3    3    0    0  0.17519188369E+02 -0.21823264260E+02 -0.28392459586E+01  0.28128955574E+02  0.00000000000E+00 0. -1.
         13    1    3    3    0    0 -0.35213787535E+02  0.41494845858E+02 -0.91431904896E+02  0.10640313105E+03  0.00000000000E+00 0.  1.
         21    1    1    2  502  501  0.72469923945E+01  0.18807538400E+02 -0.66996836768E+02  0.69962979756E+02  0.00000000000E+00 0. -1.
<scales pt_clust_5="13000.00000" pt_clust_6="13000.00000" pt_clust_7="13000.00000" pt_clust_8="13000.00000" pt_clust_9="20.15546"></scales>
<clustering>
<clus scale="   20.155">  2  9  1 -1</clus>
<clus scale="   92.259">  7  8 -1 -1</clus>
<clus scale="   98.191">  2  7  1 -1</clus>
<clus scale="  110.235">  5  6 -1 -1</clus>
<clus scale="  115.245">  1  5  2 -1</clus>
</clustering>
</event>
<event>
 9    1  0.1484717E-005  0.1001426E+03  0.7546771E-02  0.1280260E+00
         -1   -1    0    0    0  501 -0.00000000000E+00  0.00000000000E+00  0.57497470048E+02  0.57497470048E+02  0.00000000000E+00 0.  1.
          1   -1    0    0  502    0  0.00000000000E+00 -0.00000000000E+00 -0.55113400650E+03  0.55113400650E+03  0.00000000000E+00 0. -1.
         23    2    1    2    0    0 -0.34999760801E+02 -0.70760298436E+02 -0.16630021634E+03  0.20549119311E+03  0.91317388286E+02 0.  0.
         23    2    1    2    0    0  0.85791097272E+01  0.25276176571E+02 -0.33642367633E+03  0.34976017302E+03  0.91862954490E+02 0.  0.
        -11    1    3    3    0    0  0.10809773217E+02  0.17727738693E+02 -0.34465414952E+02  0.40236659205E+02  0.00000000000E+00 0. -1.
         11    1    3    3    0    0 -0.45809534018E+02 -0.88488037128E+02 -0.13183480138E+03  0.16525453391E+03  0.00000000000E+00 0.  1.
        -13    1    4    4    0    0 -0.16929513734E+02  0.50265693561E+02 -0.13229247054E+03  0.14252910631E+03  0.00000000000E+00 0.  1.
         13    1    4    4    0    0  0.25508623461E+02 -0.24989516990E+02 -0.20413120580E+03  0.20723106671E+03  0.00000000000E+00 0. -1.
         21    1    1    2  502  501  0.26420651074E+02  0.45484121864E+02  0.90873562165E+01  0.53380110415E+02  0.00000000000E+00 0. -1.
<scales pt_clust_5="13000.00000" pt_clust_6="13000.00000" pt_clust_7="13000.00000" pt_clust_8="13000.00000" pt_clust_9="52.60091"></scales>
<clustering>
<clus scale="   52.601">  1  9  2 -1</clus>
<clus scale="   91.317">  5  6 -1 -1</clus>
<clus scale="   91.863">  7  8 -1 -1</clus>
<clus scale="   99.642">  1  5  2 -1</clus>
<clus scale="  100.143">  2  5  1 -1</clus>
</clustering>
</event>
<event>
 9    1  0.1484717E-005  0.9438060E+02  0.7546771E-02  0.1292990E+00
         -1   -1    0    0    0  501 -0.00000000000E+00  0.00000000000E+00  0.27977053328E+02  0.27977053328E+02  0.00000000000E+00 0.  1.
          1   -1    0    0  502    0  0.00000000000E+00 -0.00000000000E+00 -0.42663350767E+03  0.42663350767E+03  0.00000000000E+00 0. -1.
         23    2    1    2    0    0 -0.21460074455E+02 -0.80741228812E+01 -0.15633479542E+03  0.18245940714E+03  0.91242209192E+02 0.  0.
         23    2    1    2    0    0  0.19912521722E+02 -0.14405835971E+02 -0.22297316950E+03  0.24245085904E+03  0.91985586379E+02 0.  0.
        -11    1    3    3    0    0 -0.52003345321E+02  0.11579645736E+02 -0.11895188232E+03  0.13033797001E+03  0.00000000000E+00 0. -1.
         11    1    3    3    0    0  0.30543270866E+02 -0.19653768617E+02 -0.37382913103E+02  0.52121437126E+02  0.00000000000E+00 0.  1.
        -13    1    4    4    0    0  0.42469354896E+02 -0.39954335059E+02 -0.16734387305E+03  0.17721164421E+03  0.00000000000E+00 0.  1.
         13    1    4    4    0    0 -0.22556833174E+02  0.25548499088E+02 -0.55629296442E+02  0.65239214826E+02  0.00000000000E+00 0. -1.
         21    1    1    2  502  501  0.15475527329E+01  0.22479958852E+02 -0.19348489423E+02  0.29700294820E+02  0.00000000000E+00 0. -1.
<scales pt_clust_5="13000.00000" pt_clust_6="13000.00000" pt_clust_7="13000.00000" pt_clust_8="13000.00000" pt_clust_9="22.53316"></scales>
<clustering>
<clus scale="   22.533">  1  9  2 -1</clus>
<clus scale="   91.242">  5  6 -1 -1</clus>
<clus scale="   91.986">  7  8 -1 -1</clus>
<clus scale="   93.656">  1  5  2 -1</clus>
<clus scale="   94.381">  2  5  1 -1</clus>
</clustering>
</event>
<event>
 9    1  0.1484717E-005  0.9552854E+02  0.7546771E-02  0.1291239E+00
          2   -1    0    0  502    0  0.00000000000E+00  0.00000000000E+00  0.67759213024E+02  0.67759213024E+02  0.00000000000E+00 0. -1.
         -2   -1    0    0    0  501 -0.00000000000E+00 -0.00000000000E+00 -0.69948192032E+03  0.69948192032E+03  0.00000000000E+00 0.  1.
         23    2    1    2    0    0 -0.70007001145E+02  0.16854652503E+02 -0.35005282433E+03  0.36840365348E+03  0.89438317036E+02 0.  0.
         23    2    1    2    0    0  0.17765094963E+02 -0.13168055773E+02  0.16763155004E+02  0.95843938831E+02  0.91739091739E+02 0.  0.
        -13    1    4    4    0    0  0.52255941791E+02  0.90165219451E+01  0.13411281049E+02  0.54697747484E+02  0.00000000000E+00 0. -1.
         13    1    4    4    0    0 -0.34490846828E+02 -0.22184577718E+02  0.33518739541E+01  0.41146191347E+02  0.00000000000E+00 0.  1.
        -13    1    3    3    0    0  0.18539549662E+02 -0.11295960597E+02 -0.58165583555E+02  0.62085012183E+02  0.00000000000E+00 0. -1.
         13    1    3    3    0    0 -0.88546550807E+02  0.28150613100E+02 -0.29188724078E+03  0.30631864130E+03  0.00000000000E+00 0.  1.
         21    1    1    2  502  501  0.52241906182E+02 -0.36865967304E+01 -0.29843303797E+03  0.30299354104E+03  0.00000000000E+00 0. -1.
<scales pt_clust_5="13000.00000" pt_clust_6="13000.00000" pt_clust_7="13000.00000" pt_clust_8="13000.00000" pt_clust_9="52.37182"></scales>
<clustering>
<clus scale="   52.372">  2  9  1 -1</clus>
<clus scale="   89.438">  7  8 -1 -1</clus>
<clus scale="   91.739">  5  6 -1 -1</clus>
<clus scale="   93.321">  2  7  1 -1</clus>
<clus scale="   95.529">  1  5  2 -1</clus>
</clustering>
</event>
<event>
 9    1  0.2999125E-005  0.1654750E+03  0.7546771E-02  0.1182812E+00
         -1   -1    0    0    0  501 -0.00000000000E+00  0.00000000000E+00  0.16308138622E+03  0.16308138622E+03  0.00000000000E+00 0.  1.
          1   -1    0    0  502    0  0.00000000000E+00 -0.00000000000E+00 -0.64468575936E+03  0.64468575936E+03  0.00000000000E+00 0. -1.
         23    2    1    2    0    0 -0.41934945565E+02 -0.13339972415E+03  0.83301303583E+02  0.18596917259E+03  0.89952209061E+02 0.  0.
         23    2    1    2    0    0  0.15275426096E+02  0.13739904169E+03 -0.57070292211E+03  0.59422384429E+03  0.91040191734E+02 0.  0.
        -11    1    3    3    0    0 -0.32693345332E+02 -0.35927621818E+02 -0.11246074150E+02  0.49861037116E+02  0.00000000000E+00 0. -1.
         11    1    3    3    0    0 -0.92416002330E+01 -0.97472102328E+02  0.94547377733E+02  0.13610813548E+03  0.00000000000E+00 0.  1.
        -13    1    4    4    0    0 -0.36222184311E+02  0.47617000839E+02 -0.25761918148E+03  0.26447508025E+03  0.00000000000E+00 0.  1.
         13    1    4    4    0    0  0.51497610407E+02  0.89782040855E+02 -0.31308374063E+03  0.32974876404E+03  0.00000000000E+00 0. -1.
         21    1    1    2  502  501  0.26659519469E+02 -0.39993175475E+01  0.57972453881E+01  0.27574128695E+02  0.00000000000E+00 0. -1.
<scales pt_clust_5="13000.00000" pt_clust_6="13000.00000" pt_clust_7="13000.00000" pt_clust_8="13000.00000" pt_clust_9="26.95783"></scales>
<clustering>
<clus scale="   26.958">  1  9  2 -1</clus>
<clus scale="   89.952">  5  6 -1 -1</clus>
<clus scale="   91.040">  7  8 -1 -1</clus>
<clus scale="  164.879">  1  5  2 -1</clus>
<clus scale="  165.475">  2  5  1 -1</clus>
</clustering>
</event>
<event>
 9    1  0.1484717E-005  0.3272296E+03  0.7546771E-02  0.1101114E+00
         -2   -1    0    0    0  501 -0.00000000000E+00  0.00000000000E+00  0.15901762310E+03  0.15901762310E+03  0.00000000000E+00 0.  1.
          2   -1    0    0  502    0  0.00000000000E+00 -0.00000000000E+00 -0.15283226480E+04  0.15283226480E+04  0.00000000000E+00 0. -1.
         23    2    1    2    0    0 -0.23635692996E+02 -0.37521073129E+03 -0.70999619028E+03  0.80859324278E+03  0.91578945166E+02 0.  0.
         23    2    1    2    0    0 -0.76921193110E+02  0.93656545004E+02 -0.53273746239E+03  0.55408603678E+03  0.92269788913E+02 0.  0.
        -11    1    3    3    0    0  0.17449653979E+02 -0.91881080783E+02 -0.24839521563E+03  0.26541817304E+03  0.00000000000E+00 0.  1.
         11    1    3    3    0    0 -0.41085346975E+02 -0.28332965051E+03 -0.46160097465E+03  0.54317506974E+03  0.00000000000E+00 0. -1.
        -13    1    4    4    0    0 -0.17082321561E+02 -0.18028186135E+02 -0.10998046121E+03  0.11274982507E+03  0.00000000000E+00 0. -1.
         13    1    4    4    0    0 -0.59838871549E+02  0.11168473114E+03 -0.42275700118E+03  0.44133621171E+03  0.00000000000E+00 0.  1.
         21    1    1    2  502  501  0.10055688611E+03  0.28155418629E+03 -0.12657137222E+03  0.32466099154E+03  0.00000000000E+00 0.  1.
<scales pt_clust_5="13000.00000" pt_clust_6="13000.00000" pt_clust_7="13000.00000" pt_clust_8="13000.00000" pt_clust_9="314.15361"></scales>
<clustering>
<clus scale="   91.579">  5  6 -1 -1</clus>
<clus scale="   92.270">  7  8 -1 -1</clus>
<clus scale="  152.322">  2  7  1 -1</clus>
<clus scale="  314.154">  1  9  2 -1</clus>
<clus scale="  152.322">  2  5  1 -1</clus>
</clustering>
</event>
<event>
 9    1  0.1484717E-005  0.1178876E+03  0.7546771E-02  0.1248389E+00
         -1   -1    0    0    0  501 -0.00000000000E+00  0.00000000000E+00  0.57676306966E+02  0.57676306966E+02  0.00000000000E+00 0.  1.
          1   -1    0    0  502    0  0.00000000000E+00 -0.00000000000E+00 -0.59799714719E+03  0.59799714719E+03  0.00000000000E+00 0. -1.
         23    2    1    2    0    0 -0.56175967927E+02  0.18243597549E+02 -0.69436116902E+02  0.13124160954E+03  0.94416193106E+02 0.  0.
         23    2    1    2    0    0  0.62959722041E+02 -0.37730893294E+02 -0.48555500096E+03  0.49911404334E+03  0.89239130402E+02 0.  0.
        -13    1    4    4    0    0 -0.18220852825E+02 -0.27133967380E+02 -0.11076870130E+03  0.11549007252E+03  0.00000000000E+00 0.  1.
         13    1    4    4    0    0  0.81180574866E+02 -0.10596925914E+02 -0.37478629966E+03  0.38362397082E+03  0.00000000000E+00 0. -1.
        -13    1    3    3    0    0 -0.57591126197E+02 -0.22901422397E+01 -0.86881114262E+02  0.10426078162E+03  0.00000000000E+00 0. -1.
         13    1    3    3    0    0  0.14151582704E+01  0.20533739788E+02  0.17444997359E+02  0.26980827925E+02  0.00000000000E+00 0.  1.
         21    1    1    2  502  501 -0.67837541142E+01  0.19487295746E+02  0.14670277637E+02  0.25317801273E+02  0.00000000000E+00 0.  1.
<scales pt_clust_5="13000.00000" pt_clust_6="13000.00000" pt_clust_7="13000.00000" pt_clust_8="13000.00000" pt_clust_9="20.63429"></scales>
<clustering>
<clus scale="   20.634">  1  9  2 -1</clus>
<clus scale="   89.239">  5  6 -1 -1</clus>
<clus scale="   94.416">  7  8 -1 -1</clus>
<clus scale="  113.784">  2  5  1 -1</clus>
<clus scale="  113.784">  2  5  1 -1</clus>
</clustering>
</event>
<event>
 9    1  0.1484717E-005  0.1005121E+03  0.7546771E-02  0.1282632E+00
          4   -1    0    0  502    0  0.00000000000E+00  0.00000000000E+00  0.58368453351E+02  0.58368453351E+02  0.00000000000E+00 0. -1.
         -4   -1    0    0    0  501 -0.00000000000E+00 -0.00000000000E+00 -0.25770255388E+03  0.25770255388E+03  0.00000000000E+00 0.  1.
         23    2    1    2    0    0  0.68538643060E+01 -0.52079083835E+01 -0.13597460766E+03  0.16351041183E+03  0.90401676323E+02 0.  0.
         23    2    1    2    0    0  0.18483459366E+01  0.36828516704E+02 -0.35837756360E+02  0.10974661037E+03  0.96954719750E+02 0.  0.
        -11    1    4    4    0    0 -0.47476943400E+02  0.19803913995E+02 -0.15289605294E+02  0.53665884826E+02  0.00000000000E+00 0.  1.
         11    1    4    4    0    0  0.49325289336E+02  0.17024602709E+02 -0.20548151066E+02  0.56080725546E+02  0.00000000000E+00 0. -1.
        -13    1    3    3    0    0  0.17049846424E+02 -0.29812842313E+02 -0.11499782142E+02  0.36218059296E+02  0.00000000000E+00 0. -1.
         13    1    3    3    0    0 -0.10195982118E+02  0.24604933930E+02 -0.12447482552E+03  0.12729235253E+03  0.00000000000E+00 0.  1.
         21    1    1    2  502  501 -0.87022102426E+01 -0.31620608320E+02 -0.27521736503E+02  0.42813985026E+02  0.00000000000E+00 0. -1.
<scales pt_clust_5="13000.00000" pt_clust_6="13000.00000" pt_clust_7="13000.00000" pt_clust_8="13000.00000" pt_clust_9="32.79621"></scales>
<clustering>
<clus scale="   32.796">  2  9  1 -1</clus>
<clus scale="   90.402">  7  8 -1 -1</clus>
<clus scale="   94.207">  2  7  1 -1</clus>
<clus scale="   96.955">  5  6 -1 -1</clus>
<clus scale="  100.512">  1  5  2 -1</clus>
</clustering>
</event>
<event>
 9    1  0.1484717E-005  0.2359427E+03  0.7546771E-02  0.1124036E+00
          1   -1    0    0  502    0  0.00000000000E+00  0.00000000000E+00  0.44408909443E+03  0.44408909443E+03  0.00000000000E+00 0. -1.
         -1   -1    0    0    0  501 -0.00000000000E+00 -0.00000000000E+00 -0.16317177206E+03  0.16317177206E+03  0.00000000000E+00 0.  1.
         23    2    1    2    0    0  0.11104050355E+03  0.17535487852E+03  0.26899180639E+02  0.22885141305E+03  0.92574707611E+02 0.  0.
         23    2    1    2    0    0 -0.13032672698E+03 -0.16202756717E+03  0.26276745359E+03  0.35338694157E+03  0.11223906415E+03 0.  0.
        -11    1    4    4    0    0 -0.12026379788E+03 -0.86944540930E+02  0.11650013075E+03  0.18866641128E+03  0.00000000000E+00 0.  1.
         11    1    4    4    0    0 -0.10062929094E+02 -0.75083026244E+02  0.14626732283E+03  0.16472053029E+03  0.00000000000E+00 0. -1.
        -13    1    3    3    0    0  0.61210909117E+02  0.32050883145E+02  0.33914685505E+02  0.76969087290E+02  0.00000000000E+00 0.  1.
         13    1    3    3    0    0  0.49829594436E+02  0.14330399537E+03 -0.70155048662E+01  0.15188232576E+03  0.00000000000E+00 0. -1.
         21    1    1    2  502  501  0.19286223426E+02 -0.13327311342E+02 -0.87493118577E+01  0.25022511857E+02  0.00000000000E+00 0. -1.
<scales pt_clust_5="13000.00000" pt_clust_6="13000.00000" pt_clust_7="13000.00000" pt_clust_8="13000.00000" pt_clust_9="23.44303"></scales>
<clustering>
<clus scale="   23.443">  2  9  1 -1</clus>
<clus scale="   92.575">  7  8 -1 -1</clus>
<clus scale="  112.239">  5  6 -1 -1</clus>
<clus scale="  227.247">  2  7  1 -1</clus>
<clus scale="  235.943">  1  5  2 -1</clus>
</clustering>
</event>
<event>
 9    1  0.1484717E-005  0.1193800E+03  0.7546771E-02  0.1245161E+00
          4   -1    0    0  502    0  0.00000000000E+00  0.00000000000E+00  0.73404279461E+02  0.73404279461E+02  0.00000000000E+00 0. -1.
         -4   -1    0    0    0  501 -0.00000000000E+00 -0.00000000000E+00 -0.31102016586E+03  0.31102016586E+03  0.00000000000E+00 0.  1.
         23    2    1    2    0    0 -0.82210298446E+02 -0.51444039881E+02 -0.14687496007E+03  0.20017391701E+03  0.95353661420E+02 0.  0.
         23    2    1    2    0    0  0.56684038354E+02  0.23437231750E+02 -0.33730620451E+02  0.11579509586E+03  0.92240801342E+02 0.  0.
        -11    1    4    4    0    0  0.68928160922E+02  0.14009186090E+01 -0.50550788408E+02  0.85489392030E+02  0.00000000000E+00 0. -1.
         11    1    4    4    0    0 -0.12244122568E+02  0.22036313141E+02  0.16820167958E+02  0.30305703827E+02  0.00000000000E+00 0.  1.
        -13    1    3    3    0    0  0.30815336733E+01  0.21547351889E+02 -0.12589108960E+02  0.25144977384E+02  0.00000000000E+00 0. -1.
         13    1    3    3    0    0 -0.85291832119E+02 -0.72991391770E+02 -0.13428585111E+03  0.17502893963E+03  0.00000000000E+00 0.  1.
         21    1    1    2  502  501  0.25526260092E+02  0.28006808131E+02 -0.57010305884E+02  0.68455432457E+02  0.00000000000E+00 0.  1.
<scales pt_clust_5="13000.00000" pt_clust_6="13000.00000" pt_clust_7="13000.00000" pt_clust_8="13000.00000" pt_clust_9="37.89421"></scales>
<clustering>
<clus scale="   37.894">  2  9  1 -1</clus>
<clus scale="   92.241">  5  6 -1 -1</clus>
<clus scale="   95.354">  7  8 -1 -1</clus>
<clus scale="  116.909">  1  5  2 -1</clus>
<clus scale="  116.909">  1  5  2 -1</clus>
</clustering>
</event>
<event>
 9    1  0.1484717E-005  0.1562377E+03  0.7546771E-02  0.1194998E+00
         -1   -1    0    0    0  501 -0.00000000000E+00  0.00000000000E+00  0.20511700549E+03  0.20511700549E+03  0.00000000000E+00 0.  1.
          1   -1    0    0  502    0  0.00000000000E+00 -0.00000000000E+00 -0.27198013172E+03  0.27198013172E+03  0.00000000000E+00 0. -1.
         23    2    1    2    0    0  0.14730598840E+03 -0.54209220886E+02 -0.78330430366E+02  0.19964995139E+03  0.95324461284E+02 0.  0.
         23    2    1    2    0    0 -0.88503125148E+02  0.56788704902E+02 -0.88772718296E+02  0.16120393844E+03  0.83954476301E+02 0.  0.
        -11    1    4    4    0    0 -0.30013593355E+02  0.60792383360E+02 -0.74764889719E+02  0.10092729262E+03  0.00000000000E+00 0.  1.
         11    1    4    4    0    0 -0.58489531793E+02 -0.40036784579E+01 -0.14007828577E+02  0.60276645826E+02  0.00000000000E+00 0. -1.
        -11    1    3    3    0    0  0.41842223222E+02 -0.50474517688E+02  0.41757417340E+01  0.65695398614E+02  0.00000000000E+00 0.  1.
         11    1    3    3    0    0  0.10546376518E+03 -0.37347031977E+01 -0.82506172100E+02  0.13395455277E+03  0.00000000000E+00 0. -1.
         21    1    1    2  502  501 -0.58802863253E+02 -0.25794840162E+01  0.10024002243E+03  0.11624324738E+03  0.00000000000E+00 0. -1.
<scales pt_clust_5="13000.00000" pt_clust_6="13000.00000" pt_clust_7="13000.00000" pt_clust_8="13000.00000" pt_clust_9="58.85941"></scales>
<clustering>
<clus scale="   58.859">  1  9  2 -1</clus>
<clus scale="   83.954">  5  6 -1 -1</clus>
<clus scale="   95.324">  7  8 -1 -1</clus>
<clus scale="  149.572">  2  5  1 -1</clus>
<clus scale="  149.572">  2  5  1 -1</clus>
</clustering>
</event>
<event>
 9    1  0.1484717E-005  0.9924279E+02  0.7546771E-02  0.1287996E+00
          2   -1    0    0  502    0  0.00000000000E+00  0.00000000000E+00  0.17852548449E+03  0.17852548449E+03  0.00000000000E+00 0. -1.
         -2   -1    0    0    0  501 -0.00000000000E+00 -0.00000000000E+00 -0.71499418464E+02  0.71499418464E+02  0.00000000000E+00 0.  1.
         23    2    1    2    0    0 -0.24055272896E+02  0.43784956972E+01  0.66148505210E+01  0.99828027974E+02  0.96561128531E+02 0.  0.
         23    2    1    2    0    0  0.20124592454E+02  0.17266642453E+02  0.84476950157E+02  0.12303323998E+03  0.85426499806E+02 0.  0.
        -11    1    3    3    0    0  0.26010574916E+02 -0.23736415416E+02 -0.15266659890E+02  0.38380181454E+02  0.00000000000E+00 0. -1.
         11    1    3    3    0    0 -0.50065847812E+02  0.28114911113E+02  0.21881510411E+02  0.61447846520E+02  0.00000000000E+00 0.  1.
        -11    1    4    4    0    0 -0.15531010865E+02  0.28517294780E+02  0.20664071936E+01  0.32537953819E+02  0.00000000000E+00 0.  1.
         11    1    4    4    0    0  0.35655603319E+02 -0.11250652327E+02  0.82410542964E+02  0.90495286161E+02  0.00000000000E+00 0. -1.
         21    1    1    2  502  501  0.39306804417E+01 -0.21645138150E+02  0.15934265348E+02  0.27163635001E+02  0.00000000000E+00 0.  1.
<scales pt_clust_5="13000.00000" pt_clust_6="13000.00000" pt_clust_7="13000.00000" pt_clust_8="13000.00000" pt_clust_9="21.99914"></scales>
<clustering>
<clus scale="   21.999">  1  9  2 -1</clus>
<clus scale="   85.426">  7  8 -1 -1</clus>
<clus scale="   88.446">  1  7  2 -1</clus>
<clus scale="   96.561">  5  6 -1 -1</clus>
<clus scale="   21.999">  1  5  2 -1</clus>
</clustering>
</event>
<event>
 9    1  0.1484717E-005  0.1056456E+03  0.7546771E-02  0.1269257E+00
          2   -1    0    0  502    0  0.00000000000E+00  0.00000000000E+00  0.26671627600E+02  0.26671627600E+02  0.00000000000E+00 0. -1.
         -2   -1    0    0    0  501 -0.00000000000E+00 -0.00000000000E+00 -0.67011223002E+03  0.67011223002E+03  0.00000000000E+00 0.  1.
         23    2    1    2    0    0 -0.50113257940E+02 -0.53262144645E+02 -0.31762889060E+03  0.33840604429E+03  0.91007384283E+02 0.  0.
         23    2    1    2    0    0  0.45122247683E+02  0.92506911098E+01 -0.18607577215E+03  0.21178978155E+03  0.90050686094E+02 0.  0.
        -11    1    4    4    0    0 -0.23569877613E+02  0.31329728353E+01 -0.92741424033E+02  0.95740933676E+02  0.00000000000E+00 0.  1.
         11    1    4    4    0    0  0.68692125296E+02  0.61177182745E+01 -0.93334348117E+02  0.11604884787E+03  0.00000000000E+00 0. -1.
        -13    1    3    3    0    0  0.81702740814E+01 -0.56107518517E+02 -0.18534483999E+03  0.19382341635E+03  0.00000000000E+00 0. -1.
         13    1    3    3    0    0 -0.58283532022E+02  0.28453738719E+01 -0.13228405061E+03  0.14458262794E+03  0.00000000000E+00 0.  1.
         21    1    1    2  502  501  0.49910102576E+01  0.44011453536E+02 -0.13973593967E+03  0.14658803178E+03  0.00000000000E+00 0. -1.
<scales pt_clust_5="13000.00000" pt_clust_6="13000.00000" pt_clust_7="13000.00000" pt_clust_8="13000.00000" pt_clust_9="44.29355"></scales>
<clustering>
<clus scale="   44.294">  2  9  1 -1</clus>
<clus scale="   90.051">  5  6 -1 -1</clus>
<clus scale="   91.007">  7  8 -1 -1</clus>
<clus scale="  104.823">  1  5  2 -1</clus>
<clus scale="  104.823">  1  5  2 -1</clus>
</clustering>
</event>
<event>
 9    1  0.1484717E-005  0.1125294E+03  0.7546771E-02  0.1255961E+00
         -1   -1    0    0    0  501 -0.00000000000E+00  0.00000000000E+00  0.45813746468E+02  0.45813746468E+02  0.00000000000E+00 0.  1.
          1   -1    0    0  502    0  0.00000000000E+00 -0.00000000000E+00 -0.40588497656E+03  0.40588497656E+03  0.00000000000E+00 0. -1.
         23    2    1    2    0    0  0.38686053416E+02  0.35804884212E+02 -0.13573784475E+03  0.17194088590E+03  0.91434705041E+02 0.  0.
         23    2    1    2    0    0 -0.56562678548E+02 -0.50715096681E+02 -0.22707919297E+03  0.25631796465E+03  0.91447151322E+02 0.  0.
        -11    1    3    3    0    0  0.45207059383E+02 -0.83290470821E+01 -0.24498148620E+02  0.52088487492E+02  0.00000000000E+00 0. -1.
         11    1    3    3    0    0 -0.65210059667E+01  0.44133931294E+02 -0.11123969613E+03  0.11985239841E+03  0.00000000000E+00 0.  1.
        -11    1    4    4    0    0 -0.66463339082E+02 -0.21311237764E+02 -0.80741319660E+02  0.10672724581E+03  0.00000000000E+00 0.  1.
         11    1    4    4    0    0  0.99006605343E+01 -0.29403858917E+02 -0.14633787331E+03  0.14959071884E+03  0.00000000000E+00 0. -1.
         21    1    1    2  502  501  0.17876625131E+02  0.14910212469E+02  0.27458076317E+01  0.23439872472E+02  0.00000000000E+00 0. -1.
<scales pt_clust_5="13000.00000" pt_clust_6="13000.00000" pt_clust_7="13000.00000" pt_clust_8="13000.00000" pt_clust_9="23.27849"></scales>
<clustering>
<clus scale="   23.278">  1  9  2 -1</clus>
<clus scale="   91.435">  5  6 -1 -1</clus>
<clus scale="   91.447">  7  8 -1 -1</clus>
<clus scale="  112.519">  1  5  2 -1</clus>
<clus scale="  112.529">  2  5  1 -1</clus>
</clustering>
</event>
<event>
 9    1  0.1484717E-005  0.1584362E+03  0.7546771E-02  0.1191092E+00
         -2   -1    0    0    0  501 -0.00000000000E+00  0.00000000000E+00  0.37628940758E+02  0.37628940758E+02  0.00000000000E+00 0.  1.
          2   -1    0    0  502    0  0.00000000000E+00 -0.00000000000E+00 -0.85183530144E+03  0.85183530144E+03  0.00000000000E+00 0. -1.
         23    2    1    2    0    0  0.10332684155E+03 -0.54578872178E+02 -0.25647606211E+03  0.29645196734E+03  0.91915771399E+02 0.  0.
         23    2    1    2    0    0 -0.11736601200E+03  0.69317704624E+02 -0.54577628191E+03  0.56940655514E+03  0.88160933514E+02 0.  0.
        -11    1    4    4    0    0 -0.35229134646E+02  0.13779389368E+02 -0.44441549520E+02  0.58361072840E+02  0.00000000000E+00 0.  1.
         11    1    4    4    0    0 -0.82136877354E+02  0.55538315256E+02 -0.50133473239E+03  0.51104548230E+03  0.00000000000E+00 0. -1.
        -13    1    3    3    0    0  0.93709443815E+02 -0.17347575287E+01 -0.14409635374E+03  0.17189598135E+03  0.00000000000E+00 0. -1.
         13    1    3    3    0    0  0.96173977335E+01 -0.52844114649E+02 -0.11237970837E+03  0.12455598599E+03  0.00000000000E+00 0.  1.
         21    1    1    2  502  501  0.14039170451E+02 -0.14738832446E+02 -0.11954016662E+02  0.23605719713E+02  0.00000000000E+00 0. -1.
<scales pt_clust_5="13000.00000" pt_clust_6="13000.00000" pt_clust_7="13000.00000" pt_clust_8="13000.00000" pt_clust_9="20.35513"></scales>
<clustering>
<clus scale="   20.355">  1  9  2 -1</clus>
<clus scale="   88.161">  5  6 -1 -1</clus>
<clus scale="   91.916">  7  8 -1 -1</clus>
<clus scale="  156.288">  2  5  1 -1</clus>
<clus scale="  156.288">  2  5  1 -1</clus>
</clustering>
</event>
<event>
 9    1  0.1484717E-005  0.1890534E+03  0.7546771E-02  0.1159527E+00
         -2   -1    0    0    0  501 -0.00000000000E+00  0.00000000000E+00  0.66588000111E+02  0.66588000111E+02  0.00000000000E+00 0. -1.
          2   -1    0    0  502    0  0.00000000000E+00 -0.00000000000E+00 -0.10750983482E+04  0.10750983482E+04  0.00000000000E+00 0.  1.
         23    2    1    2    0    0 -0.56926629315E+02 -0.17905134721E+03 -0.37761533687E+03  0.43179502205E+03  0.92485525177E+02 0.  0.
         23    2    1    2    0    0  0.31834920557E+02  0.15147552815E+03 -0.64542338533E+03  0.66987766236E+03  0.90589394509E+02 0.  0.
        -11    1    4    4    0    0 -0.29643205438E+02  0.25281786929E+02 -0.13694706160E+03  0.14238112958E+03  0.00000000000E+00 0. -1.
         11    1    4    4    0    0  0.61478125995E+02  0.12619374122E+03 -0.50847632373E+03  0.52749653277E+03  0.00000000000E+00 0.  1.
        -13    1    3    3    0    0  0.23079143869E+02 -0.17530422260E+02 -0.46339600150E+02  0.54656391469E+02  0.00000000000E+00 0.  1.
         13    1    3    3    0    0 -0.80005773184E+02 -0.16152092496E+03 -0.33127573672E+03  0.37713863059E+03  0.00000000000E+00 0. -1.
         21    1    1    2  502  501  0.25091708758E+02  0.27575819065E+02  0.14528374101E+02  0.40013663910E+02  0.00000000000E+00 0. -1.
<scales pt_clust_5="13000.00000" pt_clust_6="13000.00000" pt_clust_7="13000.00000" pt_clust_8="13000.00000" pt_clust_9="37.28297"></scales>
<clustering>
<clus scale="   37.283">  1  9  2 -1</clus>
<clus scale="   90.589">  5  6 -1 -1</clus>
<clus scale="   92.486">  7  8 -1 -1</clus>
<clus scale="  188.133">  2  5  1 -1</clus>
<clus scale="  188.133">  2  5  1 -1</clus>
</clustering>
</event>
<event>
 9    1  0.1484717E-005  0.1047347E+03  0.7546771E-02  0.1273329E+00
         -1   -1    0    0    0  501 -0.00000000000E+00  0.00000000000E+00  0.25088444262E+03  0.25088444262E+03  0.00000000000E+00 0.  1.
          1   -1    0    0  502    0  0.00000000000E+00 -0.00000000000E+00 -0.82406517573E+02  0.82406517573E+02  0.00000000000E+00 0. -1.
         23    2    1    2    0    0 -0.76136625428E+01 -0.23200145915E+02  0.61940513149E+02  0.11653663281E+03  0.95644890038E+02 0.  0.
         23    2    1    2    0    0 -0.39413890862E+00  0.53894735217E+02 -0.87204882709E+00  0.10475845715E+03  0.89826366089E+02 0.  0.
        -11    1    4    4    0    0 -0.34467371333E+02  0.54453246722E+02 -0.17587631094E+02  0.66801800371E+02  0.00000000000E+00 0. -1.
         11    1    4    4    0    0  0.34073232425E+02 -0.55851150549E+00  0.16715582267E+02  0.37956656774E+02  0.00000000000E+00 0.  1.
        -13    1    3    3    0    0 -0.37071658576E+02  0.23152739133E+02  0.25075120547E+02  0.50389670265E+02  0.00000000000E+00 0. -1.
         13    1    3    3    0    0  0.29457996033E+02 -0.46352885049E+02  0.36865392602E+02  0.66146962548E+02  0.00000000000E+00 0.  1.
         21    1    1    2  502  501  0.80078014514E+01 -0.30694589302E+02  0.10740946073E+03  0.11199587024E+03  0.00000000000E+00 0.  1.
<scales pt_clust_5="13000.00000" pt_clust_6="13000.00000" pt_clust_7="13000.00000" pt_clust_8="13000.00000" pt_clust_9="31.72196"></scales>
<clustering>
<clus scale="   31.722">  1  9  2 -1</clus>
<clus scale="   89.826">  5  6 -1 -1</clus>
<clus scale="   95.645">  7  8 -1 -1</clus>
<clus scale="   99.449">  2  5  1 -1</clus>
<clus scale="   99.449">  2  5  1 -1</clus>
</clustering>
</event>
<event>
 9    1  0.1484717E-005  0.1551327E+03  0.7546771E-02  0.1197782E+00
         -1   -1    0    0    0  501 -0.00000000000E+00  0.00000000000E+00  0.11429426220E+03  0.11429426220E+03  0.00000000000E+00 0.  1.
          1   -1    0    0  502    0  0.00000000000E+00 -0.00000000000E+00 -0.51085011349E+03  0.51085011349E+03  0.00000000000E+00 0. -1.
         23    2    1    2    0    0 -0.90620417342E+02 -0.14844947658E+02 -0.44162600094E+02  0.13799424532E+03  0.93057208119E+02 0.  0.
         23    2    1    2    0    0  0.85600997312E+02  0.85416729489E+02 -0.37810209918E+03  0.41187386696E+03  0.10979679624E+03 0.  0.
        -13    1    4    4    0    0  0.61443036737E+02  0.90315717443E+02 -0.37021373450E+03  0.38599272635E+03  0.00000000000E+00 0. -1.
         13    1    4    4    0    0  0.24157960574E+02 -0.48989879538E+01 -0.78883646780E+01  0.25881140612E+02  0.00000000000E+00 0.  1.
        -13    1    3    3    0    0 -0.25798367280E+01 -0.37960371208E+02 -0.32148872422E+01  0.38183515288E+02  0.00000000000E+00 0.  1.
         13    1    3    3    0    0 -0.88040580614E+02  0.23115423550E+02 -0.40947712851E+02  0.99810730027E+02  0.00000000000E+00 0. -1.
         21    1    1    2  502  501  0.50194200307E+01 -0.70571781831E+02  0.25708847984E+02  0.75276263409E+02  0.00000000000E+00 0.  1.
<scales pt_clust_5="13000.00000" pt_clust_6="13000.00000" pt_clust_7="13000.00000" pt_clust_8="13000.00000" pt_clust_9="70.75006"></scales>
<clustering>
<clus scale="   70.750">  1  9  2 -1</clus>
<clus scale="   93.057">  7  8 -1 -1</clus>
<clus scale="  109.797">  5  6 -1 -1</clus>
<clus scale="  143.772">  1  7  2 -1</clus>
<clus scale="  155.133">  2  5  1 -1</clus>
</clustering>
</event>
<event>
 9    1  0.1484717E-005  0.1026325E+03  0.7546771E-02  0.1276624E+00
          2   -1    0    0  502    0  0.00000000000E+00  0.00000000000E+00  0.68667022381E+02  0.68667022381E+02  0.00000000000E+00 0. -1.
         -2   -1    0    0    0  501 -0.00000000000E+00 -0.00000000000E+00 -0.25377600019E+03  0.25377600019E+03  0.00000000000E+00 0.  1.
         23    2    1    2    0    0  0.30202272196E+02 -0.16580348427E+02 -0.15903097993E+03  0.18729710185E+03  0.92748404753E+02 0.  0.
         23    2    1    2    0    0 -0.47095504305E+02  0.46774910804E+01  0.13972678693E+01  0.10076642782E+03  0.88949733950E+02 0.  0.
        -11    1    3    3    0    0  0.19327069438E+01 -0.50711337561E+02 -0.58583979538E+02  0.77507791685E+02  0.00000000000E+00 0.  1.
         11    1    3    3    0    0  0.28269565252E+02  0.34130989134E+02 -0.10044700039E+03  0.10978931016E+03  0.00000000000E+00 0. -1.
        -11    1    4    4    0    0 -0.12610430278E+01  0.40551030647E+02  0.10369682787E+02  0.41874892682E+02  0.00000000000E+00 0. -1.
         11    1    4    4    0    0 -0.45834461277E+02 -0.35873539566E+02 -0.89724149182E+01  0.58891535139E+02  0.00000000000E+00 0.  1.
         21    1    1    2  502  501  0.16893232109E+02  0.11902857347E+02 -0.27475265758E+02  0.34379492907E+02  0.00000000000E+00 0. -1.
<scales pt_clust_5="13000.00000" pt_clust_6="13000.00000" pt_clust_7="13000.00000" pt_clust_8="13000.00000" pt_clust_9="20.66541"></scales>
<clustering>
<clus scale="   20.665">  2  9  1 -1</clus>
<clus scale="   88.950">  7  8 -1 -1</clus>
<clus scale="   92.748">  5  6 -1 -1</clus>
<clus scale="   99.213">  1  7  2 -1</clus>
<clus scale="   99.213">  1  5  2 -1</clus>
</clustering>
</event>
<event>
 9    1  0.1484717E-005  0.9494989E+02  0.7546771E-02  0.1291867E+00
          2   -1    0    0  502    0  0.00000000000E+00  0.00000000000E+00  0.24732842486E+03  0.24732842486E+03  0.00000000000E+00 0. -1.
         -2   -1    0    0    0  501 -0.00000000000E+00 -0.00000000000E+00 -0.65826903225E+02  0.65826903225E+02  0.00000000000E+00 0.  1.
         23    2    1    2    0    0 -0.33975507464E+02 -0.15177003727E+02  0.40769711264E+02  0.10688710951E+03  0.91531460564E+02 0.  0.
         23    2    1    2    0    0  0.69187230273E+01  0.22676297397E+02  0.14994085621E+03  0.17671969045E+03  0.90473783167E+02 0.  0.
        -11    1    3    3    0    0  0.25859588753E+01  0.35643416290E+02  0.98911788510E+01  0.37080665139E+02  0.00000000000E+00 0. -1.
         11    1    3    3    0    0 -0.36561466339E+02 -0.50820420017E+02  0.30878532413E+02  0.69806444369E+02  0.00000000000E+00 0.  1.
        -13    1    4    4    0    0 -0.13073986637E+02  0.49160153572E+02  0.12576737630E+03  0.13566533370E+03  0.00000000000E+00 0. -1.
         13    1    4    4    0    0  0.19992709664E+02 -0.26483856175E+02  0.24173479909E+02  0.41054356754E+02  0.00000000000E+00 0.  1.
         21    1    1    2  502  501  0.27056784436E+02 -0.74992936703E+01 -0.92090458318E+01  0.29548528131E+02  0.00000000000E+00 0.  1.
<scales pt_clust_5="13000.00000" pt_clust_6="13000.00000" pt_clust_7="13000.00000" pt_clust_8="13000.00000" pt_clust_9="28.07684"></scales>
<clustering>
<clus scale="   28.077">  2  9  1 -1</clus>
<clus scale="   90.474">  7  8 -1 -1</clus>
<clus scale="   91.531">  5  6 -1 -1</clus>
<clus scale="   93.931">  1  7  2 -1</clus>
<clus scale="   93.931">  1  5  2 -1</clus>
</clustering>
</event>
<event>
 9    1  0.1484717E-005  0.1309906E+03  0.7546771E-02  0.1227218E+00
          1   -1    0    0  502    0  0.00000000000E+00  0.00000000000E+00  0.30257538198E+03  0.30257538198E+03  0.00000000000E+00 0. -1.
         -1   -1    0    0    0  501 -0.00000000000E+00 -0.00000000000E+00 -0.95814343377E+02  0.95814343377E+02  0.00000000000E+00 0.  1.
         23    2    1    2    0    0 -0.71493986001E+01 -0.84214593642E+02  0.11989251503E+03  0.18280347523E+03  0.10908567144E+03 0.  0.
         23    2    1    2    0    0 -0.22597975613E+02  0.61458032782E+02  0.11479859118E+03  0.16886520550E+03  0.10511414176E+03 0.  0.
        -11    1    3    3    0    0 -0.41535183061E+02 -0.52920552395E+02  0.16247762422E+02  0.69207991457E+02  0.00000000000E+00 0.  1.
         11    1    3    3    0    0  0.34385784461E+02 -0.31294041246E+02  0.10364475261E+03  0.11359548378E+03  0.00000000000E+00 0. -1.
        -13    1    4    4    0    0 -0.27493611515E+02  0.89800750318E+02  0.77491866223E+02  0.12175821435E+03  0.00000000000E+00 0.  1.
         13    1    4    4    0    0  0.48956359023E+01 -0.28342717535E+02  0.37306724953E+02  0.47106991146E+02  0.00000000000E+00 0. -1.
         21    1    1    2  502  501  0.29747374213E+02  0.22756560860E+02 -0.27930067604E+02  0.46721044627E+02  0.00000000000E+00 0.  1.
<scales pt_clust_5="13000.00000" pt_clust_6="13000.00000" pt_clust_7="13000.00000" pt_clust_8="13000.00000" pt_clust_9="37.45354"></scales>
<clustering>
<clus scale="   37.454">  2  9  1 -1</clus>
<clus scale="  105.114">  7  8 -1 -1</clus>
<clus scale="  109.086">  5  6 -1 -1</clus>
<clus scale="  127.702">  1  7  2 -1</clus>
<clus scale="  127.702">  1  5  2 -1</clus>
</clustering>
</event>
<event>
 9    1  0.1484717E-005  0.2288623E+03  0.7546771E-02  0.1127762E+00
          1   -1    0    0  502    0  0.00000000000E+00  0.00000000000E+00  0.12462070866E+04  0.12462070866E+04  0.00000000000E+00 0. -1.
         -1   -1    0    0    0  501 -0.00000000000E+00 -0.00000000000E+00 -0.18413672431E+03  0.18413672431E+03  0.00000000000E+00 0.  1.
         23    2    1    2    0    0  0.22405628210E+03  0.49324354299E+02  0.22309673294E+03  0.33290603508E+03  0.91761465055E+02 0.  0.
         23    2    1    2    0    0 -0.20615890932E+03  0.51339768309E+01  0.94809584400E+03  0.97417511521E+03  0.87198463711E+02 0.  0.
        -11    1    4    4    0    0 -0.15986605644E+03  0.86690710393E+01  0.85811594426E+03  0.87292341164E+03  0.00000000000E+00 0. -1.
         11    1    4    4    0    0 -0.46292852879E+02 -0.35350942084E+01  0.89979899743E+02  0.10125170357E+03  0.00000000000E+00 0.  1.
        -13    1    3    3    0    0  0.93507639850E+02 -0.23732883273E+02  0.72916703979E+02  0.12092879797E+03  0.00000000000E+00 0. -1.
         13    1    3    3    0    0  0.13054864225E+03  0.73057237573E+02  0.15018002896E+03  0.21197723711E+03  0.00000000000E+00 0.  1.
         21    1    1    2  502  501 -0.17897372780E+02 -0.54458331130E+02 -0.10912221463E+03  0.12326266064E+03  0.00000000000E+00 0.  1.
<scales pt_clust_5="13000.00000" pt_clust_6="13000.00000" pt_clust_7="13000.00000" pt_clust_8="13000.00000" pt_clust_9="57.32387"></scales>
<clustering>
<clus scale="   57.324">  2  9  1 -1</clus>
<clus scale="   87.198">  5  6 -1 -1</clus>
<clus scale="   91.761">  7  8 -1 -1</clus>
<clus scale="  227.071">  1  5  2 -1</clus>
<clus scale="  227.071">  1  5  2 -1</clus>
</clustering>
</event>
<event>
 9    1  0.1484717E-005  0.1219189E+03  0.7546771E-02  0.1241737E+00
          2   -1    0    0  502    0  0.00000000000E+00  0.00000000000E+00  0.34680466161E+03  0.34680466161E+03  0.00000000000E+00 0. -1.
         -2   -1    0    0    0  501 -0.00000000000E+00 -0.00000000000E+00 -0.65735064884E+02  0.65735064884E+02  0.00000000000E+00 0.  1.
         23    2    1    2    0    0  0.36607507533E+02 -0.57983473776E+02  0.70287910871E+02  0.13082704420E+03  0.86447280126E+02 0.  0.
         23    2    1    2    0    0 -0.10183057513E+02  0.88920720736E+02  0.20304736571E+03  0.24029789609E+03  0.92218527991E+02 0.  0.
        -11    1    4    4    0    0  0.30966311965E+02  0.78795250700E+02  0.15166735865E+03  0.17369683845E+03  0.00000000000E+00 0. -1.
         11    1    4    4    0    0 -0.41149369479E+02  0.10125470036E+02  0.51380007063E+02  0.66601057632E+02  0.00000000000E+00 0.  1.
        -13    1    3    3    0    0 -0.27024290244E+02 -0.27035902488E+02  0.15136871111E+02  0.41114196497E+02  0.00000000000E+00 0.  1.
         13    1    3    3    0    0  0.63631797777E+02 -0.30947571288E+02  0.55151039760E+02  0.89712847706E+02  0.00000000000E+00 0. -1.
         21    1    1    2  502  501 -0.26424450020E+02 -0.30937246960E+02  0.77343201433E+01  0.41414786205E+02  0.00000000000E+00 0.  1.
<scales pt_clust_5="13000.00000" pt_clust_6="13000.00000" pt_clust_7="13000.00000" pt_clust_8="13000.00000" pt_clust_9="40.68617"></scales>
<clustering>
<clus scale="   40.686">  2  9  1 -1</clus>
<clus scale="   86.447">  7  8 -1 -1</clus>
<clus scale="   92.219">  5  6 -1 -1</clus>
<clus scale="  117.614">  2  7  1 -1</clus>
<clus scale="  121.919">  1  5  2 -1</clus>
</clustering>
</event>
<event>
 9    1  0.1484717E-005  0.1106349E+03  0.7546771E-02  0.1262180E+00
          2   -1    0    0  502    0  0.00000000000E+00  0.00000000000E+00  0.38814795577E+03  0.38814795577E+03  0.00000000000E+00 0.  1.
         -2   -1    0    0    0  501 -0.00000000000E+00 -0.00000000000E+00 -0.68925624918E+02  0.68925624918E+02  0.00000000000E+00 0. -1.
         23    2    1    2    0    0 -0.22690633445E+02  0.41143357164E+02  0.74008209764E+02  0.12115638309E+03  0.83630218023E+02 0.  0.
         23    2    1    2    0    0  0.13185601217E+02 -0.70895051859E+02  0.27140108965E+03  0.29515856297E+03  0.90884857757E+02 0.  0.
        -11    1    4    4    0    0 -0.83259192167E+01 -0.87527158831E+02  0.19051750218E+03  0.20982669778E+03  0.00000000000E+00 0. -1.
         11    1    4    4    0    0  0.21511520433E+02  0.16632106973E+02  0.80883587471E+02  0.85331865185E+02  0.00000000000E+00 0.  1.
        -13    1    3    3    0    0 -0.82729314471E+00  0.62832508055E+02  0.61473178345E+02  0.87906542068E+02  0.00000000000E+00 0.  1.
         13    1    3    3    0    0 -0.21863340300E+02 -0.21689150891E+02  0.12535031418E+02  0.33249841024E+02  0.00000000000E+00 0. -1.
         21    1    1    2  502  501  0.95050322282E+01  0.29751694695E+02 -0.26186968560E+02  0.40758634635E+02  0.00000000000E+00 0. -1.
<scales pt_clust_5="13000.00000" pt_clust_6="13000.00000" pt_clust_7="13000.00000" pt_clust_8="13000.00000" pt_clust_9="31.23314"></scales>
<clustering>
<clus scale="   31.233">  2  9  1 -1</clus>
<clus scale="   83.630">  7  8 -1 -1</clus>
<clus scale="   90.885">  5  6 -1 -1</clus>
<clus scale="  104.757">  2  7  1 -1</clus>
<clus scale="  110.635">  1  5  2 -1</clus>
</clustering>
</event>
<event>
 9    1  0.1484717E-005  0.2041834E+03  0.7546771E-02  0.1146315E+00
          1   -1    0    0  502    0  0.00000000000E+00  0.00000000000E+00  0.13132435751E+04  0.13132435751E+04  0.00000000000E+00 0. -1.
         -1   -1    0    0    0  501 -0.00000000000E+00 -0.00000000000E+00 -0.10229475706E+03  0.10229475706E+03  0.00000000000E+00 0.  1.
         23    2    1    2    0    0  0.20105110206E+03 -0.11858378174E+03  0.14127761429E+03  0.28768832890E+03  0.91222537553E+02 0.  0.
         23    2    1    2    0    0 -0.15859836854E+03  0.76137877367E+02  0.10437665728E+04  0.10624669834E+04  0.91853216828E+02 0.  0.
        -13    1    4    4    0    0 -0.52310908564E+01  0.40607631288E+02  0.22868794170E+03  0.23232416729E+03  0.00000000000E+00 0.  1.
         13    1    4    4    0    0 -0.15336727769E+03  0.35530246079E+02  0.81507863115E+03  0.83014281615E+03  0.00000000000E+00 0. -1.
        -13    1    3    3    0    0  0.13703071301E+03 -0.31039486438E+02  0.63258955086E+02  0.15408621426E+03  0.00000000000E+00 0.  1.
         13    1    3    3    0    0  0.64020389049E+02 -0.87544295300E+02  0.78018659206E+02  0.13360211465E+03  0.00000000000E+00 0. -1.
         21    1    1    2  502  501 -0.42452733512E+02  0.42445904372E+02  0.25904630930E+02  0.65383019846E+02  0.00000000000E+00 0. -1.
<scales pt_clust_5="13000.00000" pt_clust_6="13000.00000" pt_clust_7="13000.00000" pt_clust_8="13000.00000" pt_clust_9="60.03240"></scales>
<clustering>
<clus scale="   60.032">  2  9  1 -1</clus>
<clus scale="   91.223">  7  8 -1 -1</clus>
<clus scale="   91.853">  5  6 -1 -1</clus>
<clus scale="  203.900">  2  7  1 -1</clus>
<clus scale="  204.183">  1  5  2 -1</clus>
</clustering>
</event>
<event>
 9    1  0.1484717E-005  0.1033978E+03  0.7546771E-02  0.1276562E+00
         -2   -1    0    0    0  501 -0.00000000000E+00  0.00000000000E+00  0.53318378276E+02  0.53318378276E+02  0.00000000000E+00 0.  1.
          2   -1    0    0  502    0  0.00000000000E+00 -0.00000000000E+00 -0.37955957553E+03  0.37955957553E+03  0.00000000000E+00 0. -1.
         23    2    1    2    0    0 -0.29205930393E+02 -0.12671400117E+02 -0.85402774059E+02  0.12924362116E+03  0.91633667632E+02 0.  0.
         23    2    1    2    0    0  0.32765584191E+02 -0.15380717214E+02 -0.25227080548E+03  0.27313364762E+03  0.98240929343E+02 0.  0.
        -13    1    4    4    0    0 -0.26303114587E+02 -0.15917156360E+01 -0.20022702060E+02  0.33095256358E+02  0.00000000000E+00 0.  1.
         13    1    4    4    0    0  0.59068698778E+02 -0.13789001578E+02 -0.23224810342E+03  0.24003839126E+03  0.00000000000E+00 0. -1.
        -13    1    3    3    0    0 -0.22760324958E+02  0.24602381410E+02  0.24379205652E+01  0.33604360132E+02  0.00000000000E+00 0.  1.
         13    1    3    3    0    0 -0.64456054352E+01 -0.37273781527E+02 -0.87840694624E+02  0.95639261032E+02  0.00000000000E+00 0. -1.
         21    1    1    2  502  501 -0.35596537983E+01  0.28052117331E+02  0.11432382283E+02  0.30500685018E+02  0.00000000000E+00 0. -1.
<scales pt_clust_5="13000.00000" pt_clust_6="13000.00000" pt_clust_7="13000.00000" pt_clust_8="13000.00000" pt_clust_9="28.27707"></scales>
<clustering>
<clus scale="   28.277">  1  9  2 -1</clus>
<clus scale="   91.634">  7  8 -1 -1</clus>
<clus scale="   97.142">  1  7  2 -1</clus>
<clus scale="   98.241">  5  6 -1 -1</clus>
<clus scale="  103.398">  2  5  1 -1</clus>
</clustering>
</event>
<event>
 9    1  0.1484717E-005  0.9090236E+02  0.7546771E-02  0.1301042E+00
         -2   -1    0    0    0  501 -0.00000000000E+00  0.00000000000E+00  0.71342989215E+02  0.71342989215E+02  0.00000000000E+00 0.  1.
          2   -1    0    0  502    0  0.00000000000E+00 -0.00000000000E+00 -0.24976020698E+03  0.24976020698E+03  0.00000000000E+00 0. -1.
         23    2    1    2    0    0  0.13691189345E+02 -0.73286069059E+01 -0.56857085379E+02  0.10650942579E+03  0.88715119793E+02 0.  0.
         23    2    1    2    0    0  0.25195853860E+02 -0.27076845171E+02 -0.12997818308E+03  0.16199338220E+03  0.89328277734E+02 0.  0.
        -13    1    3    3    0    0 -0.29154141780E+02 -0.27125779373E+02 -0.12496068574E+02  0.41736358481E+02  0.00000000000E+00 0.  1.
         13    1    3    3    0    0  0.42845331124E+02  0.19797172467E+02 -0.44361016805E+02  0.64773067310E+02  0.00000000000E+00 0. -1.
        -13    1    4    4    0    0  0.36723650453E+02 -0.55144860365E+02 -0.92270344205E+02  0.11359312720E+03  0.00000000000E+00 0. -1.
         13    1    4    4    0    0 -0.11527796593E+02  0.28068015194E+02 -0.37707838873E+02  0.48400254996E+02  0.00000000000E+00 0.  1.
         21    1    1    2  502  501 -0.38887043205E+02  0.34405452077E+02  0.84180506938E+01  0.52600388205E+02  0.00000000000E+00 0. -1.
<scales pt_clust_5="13000.00000" pt_clust_6="13000.00000" pt_clust_7="13000.00000" pt_clust_8="13000.00000" pt_clust_9="51.92242"></scales>
<clustering>
<clus scale="   51.922">  1  9  2 -1</clus>
<clus scale="   88.715">  5  6 -1 -1</clus>
<clus scale="   89.328">  7  8 -1 -1</clus>
<clus scale="   90.300">  1  5  2 -1</clus>
<clus scale="   90.902">  2  5  1 -1</clus>
</clustering>
</event>
<event>
 9    1  0.1484717E-005  0.1407500E+03  0.7546771E-02  0.1213559E+00
          1   -1    0    0  502    0  0.00000000000E+00  0.00000000000E+00  0.13515538248E+03  0.13515538248E+03  0.00000000000E+00 0. -1.
         -1   -1    0    0    0  501 -0.00000000000E+00 -0.00000000000E+00 -0.39722120885E+03  0.39722120885E+03  0.00000000000E+00 0.  1.
         23    2    1    2    0    0  0.24188244860E+02 -0.96645897983E+01 -0.24851555579E+03  0.26819282600E+03  0.97411164475E+02 0.  0.
         23    2    1    2    0    0 -0.11786455350E+03  0.12555117475E+02  0.41209647644E+02  0.15563767099E+03  0.92060662752E+02 0.  0.
        -13    1    4    4    0    0 -0.18907377631E+02 -0.19405262538E+02 -0.21160423778E+02  0.34377560668E+02  0.00000000000E+00 0.  1.
         13    1    4    4    0    0 -0.98957175868E+02  0.31960380013E+02  0.62370071422E+02  0.12126011032E+03  0.00000000000E+00 0. -1.
        -13    1    3    3    0    0 -0.14117052054E+00 -0.51856666423E+02 -0.13798117637E+03  0.14740399863E+03  0.00000000000E+00 0.  1.
         13    1    3    3    0    0  0.24329415380E+02  0.42192076625E+02 -0.11053437942E+03  0.12078882737E+03  0.00000000000E+00 0. -1.
         21    1    1    2  502  501  0.93676308639E+02 -0.28905276768E+01 -0.54759918229E+02  0.10854609433E+03  0.00000000000E+00 0.  1.
<scales pt_clust_5="13000.00000" pt_clust_6="13000.00000" pt_clust_7="13000.00000" pt_clust_8="13000.00000" pt_clust_9="93.72089"></scales>
<clustering>
<clus scale="   92.061">  5  6 -1 -1</clus>
<clus scale="   93.721">  2  9  1 -1</clus>
<clus scale="   97.411">  7  8 -1 -1</clus>
<clus scale="  137.101">  1  5  2 -1</clus>
<clus scale="  137.101">  1  5  2 -1</clus>
</clustering>
</event>
<event>
 9    1  0.7981128E-005  0.9196986E+02  0.7546771E-02  0.1298811E+00
         -1   -1    0    0    0  501 -0.00000000000E+00  0.00000000000E+00  0.15899408073E+03  0.15899408073E+03  0.00000000000E+00 0.  1.
          1   -1    0    0  502    0  0.00000000000E+00 -0.00000000000E+00 -0.31298866920E+03  0.31298866920E+03  0.00000000000E+00 0. -1.
         23    2    1    2    0    0 -0.42626167858E+01  0.33877572610E+02  0.11827364811E+03  0.15255352509E+03  0.90100290521E+02 0.  0.
         23    2    1    2    0    0 -0.96884316657E+01 -0.60385818641E+01 -0.27322242447E+03  0.28827554716E+03  0.91224819434E+02 0.  0.
        -13    1    4    4    0    0  0.31190952191E+02  0.23620982655E+02 -0.15195246685E+03  0.15690882226E+03  0.00000000000E+00 0.  1.
         13    1    4    4    0    0 -0.40879383856E+02 -0.29659564519E+02 -0.12126995762E+03  0.13136672491E+03  0.00000000000E+00 0. -1.
        -13    1    3    3    0    0  0.32074945038E+02  0.37854799986E+02  0.10011895102E+03  0.11173894726E+03  0.00000000000E+00 0.  1.
         13    1    3    3    0    0 -0.36337561824E+02 -0.39772273764E+01  0.18154697087E+02  0.40814577828E+02  0.00000000000E+00 0. -1.
         21    1    1    2  502  501  0.13951048451E+02 -0.27838990746E+02  0.95418788191E+00  0.31153677683E+02  0.00000000000E+00 0.  1.
<scales pt_clust_5="13000.00000" pt_clust_6="13000.00000" pt_clust_7="13000.00000" pt_clust_8="13000.00000" pt_clust_9="31.13906"></scales>
<clustering>
<clus scale="   31.139">  1  9  2 -1</clus>
<clus scale="   90.100">  7  8 -1 -1</clus>
<clus scale="   90.855">  1  7  2 -1</clus>
<clus scale="   91.225">  5  6 -1 -1</clus>
<clus scale="   91.970">  2  5  1 -1</clus>
</clustering>
</event>
<event>
 9    1  0.1484717E-005  0.1591271E+03  0.7546771E-02  0.1189952E+00
          3   -1    0    0  502    0  0.00000000000E+00  0.00000000000E+00  0.48189810752E+03  0.48189810752E+03  0.00000000000E+00 0. -1.
         -3   -1    0    0    0  501 -0.00000000000E+00 -0.00000000000E+00 -0.75483114173E+02  0.75483114173E+02  0.00000000000E+00 0.  1.
         23    2    1    2    0    0 -0.97226347988E+02  0.10445913831E+03  0.21972802319E+03  0.27700952855E+03  0.89939982290E+02 0.  0.
         23    2    1    2    0    0  0.10449323378E+03 -0.60642502766E+02  0.18019954549E+03  0.23548526024E+03  0.91570096376E+02 0.  0.
        -11    1    3    3    0    0 -0.65485676371E+02  0.10129044725E+03  0.21243457202E+03  0.24428789553E+03  0.00000000000E+00 0. -1.
         11    1    3    3    0    0 -0.31740671617E+02  0.31686910639E+01  0.72934511716E+01  0.32721633024E+02  0.00000000000E+00 0.  1.
        -13    1    4    4    0    0  0.32640042282E+02  0.72107704906E+01  0.10810629890E+03  0.11315626113E+03  0.00000000000E+00 0. -1.
         13    1    4    4    0    0  0.71853191499E+02 -0.67853273256E+02  0.72093246586E+02  0.12232899911E+03  0.00000000000E+00 0.  1.
         21    1    1    2  502  501 -0.72668857921E+01 -0.43816635543E+02  0.64874246694E+01  0.44886432898E+02  0.00000000000E+00 0.  1.
<scales pt_clust_5="13000.00000" pt_clust_6="13000.00000" pt_clust_7="13000.00000" pt_clust_8="13000.00000" pt_clust_9="44.41515"></scales>
<clustering>
<clus scale="   44.415">  2  9  1 -1</clus>
<clus scale="   89.940">  5  6 -1 -1</clus>
<clus scale="   91.570">  7  8 -1 -1</clus>
<clus scale="  158.195">  2  5  1 -1</clus>
<clus scale="  159.127">  1  5  2 -1</clus>
</clustering>
</event>
<event>
 9    1  0.1484717E-005  0.1173711E+03  0.7546771E-02  0.1247680E+00
         -1   -1    0    0    0  501 -0.00000000000E+00  0.00000000000E+00  0.18563289190E+03  0.18563289190E+03  0.00000000000E+00 0.  1.
          1   -1    0    0  502    0  0.00000000000E+00 -0.00000000000E+00 -0.19249859755E+03  0.19249859755E+03  0.00000000000E+00 0. -1.
         23    2    1    2    0    0  0.26173879651E+02 -0.42401568453E+02 -0.24084458446E+02  0.10769450807E+03  0.92385501819E+02 0.  0.
         23    2    1    2    0    0 -0.17851558268E+00  0.97652082097E+02 -0.79647232137E+02  0.15593197167E+03  0.91843002974E+02 0.  0.
        -11    1    4    4    0    0  0.25057626494E+02  0.78656229855E+02 -0.90536090017E+02  0.12252130727E+03  0.00000000000E+00 0. -1.
         11    1    4    4    0    0 -0.25236142076E+02  0.18995852241E+02  0.10888857880E+02  0.33410664393E+02  0.00000000000E+00 0.  1.
        -13    1    3    3    0    0 -0.77206344266E+01  0.19092567942E+02  0.16680615696E+02  0.26502401524E+02  0.00000000000E+00 0. -1.
         13    1    3    3    0    0  0.33894514078E+02 -0.61494136395E+02 -0.40765074141E+02  0.81192106545E+02  0.00000000000E+00 0.  1.
         21    1    1    2  502  501 -0.25995364069E+02 -0.55250513644E+02  0.96865984934E+02  0.11450500971E+03  0.00000000000E+00 0.  1.
<scales pt_clust_5="13000.00000" pt_clust_6="13000.00000" pt_clust_7="13000.00000" pt_clust_8="13000.00000" pt_clust_9="61.06045"></scales>
<clustering>
<clus scale="   61.060">  1  9  2 -1</clus>
<clus scale="   91.843">  5  6 -1 -1</clus>
<clus scale="   92.386">  7  8 -1 -1</clus>
<clus scale="  116.945">  2  5  1 -1</clus>
<clus scale="  116.945">  2  5  1 -1</clus>
</clustering>
</event>
<event>
 9    1  0.1484717E-005  0.1066066E+03  0.7546771E-02  0.1278754E+00
          2   -1    0    0  502    0  0.00000000000E+00  0.00000000000E+00  0.34539345102E+03  0.34539345102E+03  0.00000000000E+00 0. -1.
         -2   -1    0    0    0  501 -0.00000000000E+00 -0.00000000000E+00 -0.33827175645E+02  0.33827175645E+02  0.00000000000E+00 0.  1.
         23    2    1    2    0    0  0.49903349693E+02 -0.13707006702E+02  0.11478052523E+03  0.14567790281E+03  0.73275207622E+02 0.  0.
         23    2    1    2    0    0 -0.32696158735E+02 -0.88649047546E+00  0.15434437159E+03  0.18547685036E+03  0.97517446224E+02 0.  0.
        -11    1    3    3    0    0  0.38856110663E+02 -0.40197673260E+02  0.50739978653E+02  0.75499640431E+02  0.00000000000E+00 0.  1.
         11    1    3    3    0    0  0.11047239030E+02  0.26490666558E+02  0.64040546580E+02  0.70178262383E+02  0.00000000000E+00 0. -1.
        -13    1    4    4    0    0 -0.17946268583E+02 -0.48235812307E+02  0.61296331758E+02  0.80037506408E+02  0.00000000000E+00 0.  1.
         13    1    4    4    0    0 -0.14749890152E+02  0.47349321831E+02  0.93048039829E+02  0.10543934395E+03  0.00000000000E+00 0. -1.
         21    1    1    2  502  501 -0.17207190959E+02  0.14593497178E+02  0.42441378552E+02  0.48065873486E+02  0.00000000000E+00 0.  1.
<scales pt_clust_5="13000.00000" pt_clust_6="13000.00000" pt_clust_7="13000.00000" pt_clust_8="13000.00000" pt_clust_9="22.56230"></scales>
<clustering>
<clus scale="   22.562">  1  9  2 -1</clus>
<clus scale="   73.275">  5  6 -1 -1</clus>
<clus scale="   84.997">  2  5  1 -1</clus>
<clus scale="   97.517">  7  8 -1 -1</clus>
<clus scale="   22.562">  1  5  2 -1</clus>
</clustering>
</event>
<event>
 9    1  0.1484717E-005  0.1098305E+03  0.7546771E-02  0.1261243E+00
         -2   -1    0    0    0  501 -0.00000000000E+00  0.00000000000E+00  0.99880841695E+02  0.99880841695E+02  0.00000000000E+00 0.  1.
          2   -1    0    0  502    0  0.00000000000E+00 -0.00000000000E+00 -0.16732440088E+03  0.16732440088E+03  0.00000000000E+00 0. -1.
         23    2    1    2    0    0 -0.40261894336E+02  0.38394111965E+02  0.15913675808E+02  0.10923421203E+03  0.92648475601E+02 0.  0.
         23    2    1    2    0    0  0.30071320532E+02 -0.55959875306E+02 -0.64124938285E+02  0.13000167101E+03  0.93555517165E+02 0.  0.
        -11    1    4    4    0    0  0.36860523968E+02 -0.88508923876E+01 -0.72369793703E+02  0.81697145384E+02  0.00000000000E+00 0. -1.
         11    1    4    4    0    0 -0.67892034354E+01 -0.47108982918E+02  0.82448554186E+01  0.48304525624E+02  0.00000000000E+00 0.  1.
        -13    1    3    3    0    0 -0.49011390734E+02 -0.11263448218E+02 -0.11859986873E+02  0.51668568551E+02  0.00000000000E+00 0.  1.
         13    1    3    3    0    0  0.87494963981E+01  0.49657560183E+02  0.27773662681E+02  0.57565643480E+02  0.00000000000E+00 0. -1.
         21    1    1    2  502  501  0.10190573803E+02  0.17565763341E+02 -0.19232296710E+02  0.27969359537E+02  0.00000000000E+00 0. -1.
<scales pt_clust_5="13000.00000" pt_clust_6="13000.00000" pt_clust_7="13000.00000" pt_clust_8="13000.00000" pt_clust_9="20.30773"></scales>
<clustering>
<clus scale="   20.308">  2  9  1 -1</clus>
<clus scale="   92.648">  7  8 -1 -1</clus>
<clus scale="   93.556">  5  6 -1 -1</clus>
<clus scale="  109.059">  1  7  2 -1</clus>
<clus scale="   20.308">  2  5  1 -1</clus>
</clustering>
</event>
<event>
 9    1  0.1484717E-005  0.1105559E+03  0.7546771E-02  0.1260714E+00
          1   -1    0    0  502    0  0.00000000000E+00  0.00000000000E+00  0.48055664788E+03  0.48055664788E+03  0.00000000000E+00 0. -1.
         -1   -1    0    0    0  501 -0.00000000000E+00 -0.00000000000E+00 -0.10311515512E+03  0.10311515512E+03  0.00000000000E+00 0.  1.
         23    2    1    2    0    0 -0.35501750017E+02 -0.57607791040E+02 -0.44516751481E+02  0.12234978359E+03  0.91698945132E+02 0.  0.
         23    2    1    2    0    0  0.46304990962E+02  0.40481378040E+02  0.42702732104E+03  0.44044812239E+03  0.88652814131E+02 0.  0.
        -11    1    4    4    0    0  0.31704677162E+02 -0.23358792330E+02  0.21358596629E+03  0.21718606016E+03  0.00000000000E+00 0.  1.
         11    1    4    4    0    0  0.14600313801E+02  0.63840170370E+02  0.21344135475E+03  0.22326206223E+03  0.00000000000E+00 0. -1.
        -11    1    3    3    0    0 -0.56056087775E+02 -0.70021167971E+02 -0.31706140940E+02  0.95134264668E+02  0.00000000000E+00 0.  1.
         11    1    3    3    0    0  0.20554337759E+02  0.12413376931E+02 -0.12810610541E+02  0.27215518917E+02  0.00000000000E+00 0. -1.
         21    1    1    2  502  501 -0.10803240946E+02  0.17126413000E+02 -0.50690768012E+01  0.20873897019E+02  0.00000000000E+00 0.  1.
<scales pt_clust_5="13000.00000" pt_clust_6="13000.00000" pt_clust_7="13000.00000" pt_clust_8="13000.00000" pt_clust_9="20.24905"></scales>
<clustering>
<clus scale="   20.249">  2  9  1 -1</clus>
<clus scale="   88.653">  5  6 -1 -1</clus>
<clus scale="   91.699">  7  8 -1 -1</clus>
<clus scale="  108.043">  1  5  2 -1</clus>
<clus scale="  108.043">  1  5  2 -1</clus>
</clustering>
</event>
<event>
 9    1  0.1484717E-005  0.9335316E+02  0.7546771E-02  0.1295837E+00
         -1   -1    0    0    0  501 -0.00000000000E+00  0.00000000000E+00  0.30064182879E+02  0.30064182879E+02  0.00000000000E+00 0.  1.
          1   -1    0    0  502    0  0.00000000000E+00 -0.00000000000E+00 -0.51658892357E+03  0.51658892357E+03  0.00000000000E+00 0. -1.
         23    2    1    2    0    0 -0.21381204682E+02  0.14029993908E+02 -0.13004913792E+03  0.16091524663E+03  0.91252077690E+02 0.  0.
         23    2    1    2    0    0  0.38839940214E+01 -0.93417209784E+00 -0.35116381065E+03  0.36324634885E+03  0.92822033781E+02 0.  0.
        -11    1    3    3    0    0 -0.13839638861E+01 -0.27562521568E+02 -0.10467028787E+03  0.10824729610E+03  0.00000000000E+00 0. -1.
         11    1    3    3    0    0 -0.19997240796E+02  0.41592515477E+02 -0.25378850050E+02  0.52667950529E+02  0.00000000000E+00 0.  1.
        -13    1    4    4    0    0  0.37698288996E+02 -0.24509071828E+02 -0.24991703918E+03  0.25392987628E+03  0.00000000000E+00 0.  1.
         13    1    4    4    0    0 -0.33814294975E+02  0.23574899730E+02 -0.10124677147E+03  0.10931647257E+03  0.00000000000E+00 0. -1.
         21    1    1    2  502  501  0.17497210661E+02 -0.13095821810E+02 -0.53117921170E+01  0.22491510961E+02  0.00000000000E+00 0.  1.
<scales pt_clust_5="13000.00000" pt_clust_6="13000.00000" pt_clust_7="13000.00000" pt_clust_8="13000.00000" pt_clust_9="21.85527"></scales>
<clustering>
<clus scale="   21.855">  1  9  2 -1</clus>
<clus scale="   91.252">  5  6 -1 -1</clus>
<clus scale="   91.792">  1  5  2 -1</clus>
<clus scale="   92.822">  7  8 -1 -1</clus>
<clus scale="   93.353">  2  5  1 -1</clus>
</clustering>
</event>
<event>
 9    1  0.1484717E-005  0.1165266E+03  0.7546771E-02  0.1256943E+00
          1   -1    0    0  502    0  0.00000000000E+00  0.00000000000E+00  0.99215974203E+03  0.99215974203E+03  0.00000000000E+00 0. -1.
         -1   -1    0    0    0  501 -0.00000000000E+00 -0.00000000000E+00 -0.27473069824E+02  0.27473069824E+02  0.00000000000E+00 0.  1.
         23    2    1    2    0    0  0.68951483520E+02 -0.28372613592E+02  0.45220684744E+03  0.46707256022E+03  0.90035722672E+02 0.  0.
         23    2    1    2    0    0 -0.16088988262E+02 -0.16679546343E+02  0.43290987117E+03  0.44694056581E+03  0.10866393143E+03 0.  0.
        -11    1    3    3    0    0 -0.24103166176E+01  0.22730968032E+02  0.44532988167E+02  0.50056903309E+02  0.00000000000E+00 0.  1.
         11    1    3    3    0    0  0.71361800138E+02 -0.51103581624E+02  0.40767385927E+03  0.41701565691E+03  0.00000000000E+00 0. -1.
        -13    1    4    4    0    0 -0.22547819977E+02  0.44040590864E+02  0.17155662227E+03  0.17854873977E+03  0.00000000000E+00 0.  1.
         13    1    4    4    0    0  0.64588317148E+01 -0.60720137207E+02  0.26135324891E+03  0.26839182604E+03  0.00000000000E+00 0. -1.
         21    1    1    2  502  501 -0.52862495258E+02  0.45052159934E+02  0.79569953591E+02  0.10561968583E+03  0.00000000000E+00 0.  1.
<scales pt_clust_5="13000.00000" pt_clust_6="13000.00000" pt_clust_7="13000.00000" pt_clust_8="13000.00000" pt_clust_9="69.45603"></scales>
<clustering>
<clus scale="   69.456">  2  9  1 -1</clus>
<clus scale="   90.036">  5  6 -1 -1</clus>
<clus scale="   99.383">  2  5  1 -1</clus>
<clus scale="  108.664">  7  8 -1 -1</clus>
<clus scale="  116.527">  1  5  2 -1</clus>
</clustering>
</event>
<event>
 9    1  0.1484717E-005  0.9327136E+02  0.7546771E-02  0.1296444E+00
          2   -1    0    0  502    0  0.00000000000E+00  0.00000000000E+00  0.46991239274E+03  0.46991239274E+03  0.00000000000E+00 0. -1.
         -2   -1    0    0    0  501 -0.00000000000E+00 -0.00000000000E+00 -0.30000202799E+02  0.30000202799E+02  0.00000000000E+00 0.  1.
         23    2    1    2    0    0 -0.11810487970E+02 -0.32142819757E+02  0.14421564302E+03  0.17318403747E+03  0.89565119624E+02 0.  0.
         23    2    1    2    0    0  0.46646786285E+00  0.70843360257E+01  0.28062147822E+03  0.29536182258E+03  0.91868312220E+02 0.  0.
        -11    1    3    3    0    0 -0.57531888047E+01  0.20350939609E+02  0.17343076070E+01  0.21219513361E+02  0.00000000000E+00 0.  1.
         11    1    3    3    0    0 -0.60572991655E+01 -0.52493759366E+02  0.14248133541E+03  0.15196452411E+03  0.00000000000E+00 0. -1.
        -13    1    4    4    0    0 -0.37284314540E+02 -0.13111401924E+02  0.20208671273E+03  0.20591519719E+03  0.00000000000E+00 0. -1.
         13    1    4    4    0    0  0.37750782403E+02  0.20195737950E+02  0.78534765490E+02  0.89446625391E+02  0.00000000000E+00 0.  1.
         21    1    1    2  502  501  0.11344020107E+02  0.25058483731E+02  0.15075068698E+02  0.31366735491E+02  0.00000000000E+00 0.  1.
<scales pt_clust_5="13000.00000" pt_clust_6="13000.00000" pt_clust_7="13000.00000" pt_clust_8="13000.00000" pt_clust_9="27.50662"></scales>
<clustering>
<clus scale="   27.507">  2  9  1 -1</clus>
<clus scale="   89.565">  5  6 -1 -1</clus>
<clus scale="   91.004">  2  5  1 -1</clus>
<clus scale="   91.868">  7  8 -1 -1</clus>
<clus scale="   93.271">  1  5  2 -1</clus>
</clustering>
</event>
<event>
 9    1  0.1484717E-005  0.1079761E+03  0.7546771E-02  0.1266846E+00
          2   -1    0    0  502    0  0.00000000000E+00  0.00000000000E+00  0.10340741804E+03  0.10340741804E+03  0.00000000000E+00 0.  1.
         -2   -1    0    0    0  501 -0.00000000000E+00 -0.00000000000E+00 -0.22817205102E+03  0.22817205102E+03  0.00000000000E+00 0. -1.
         23    2    1    2    0    0 -0.38434412527E+02  0.42986512341E+01 -0.53908998299E+02  0.11554997542E+03  0.94604092161E+02 0.  0.
         23    2    1    2    0    0  0.53813300667E+02  0.29586724171E+02  0.27076532928E+02  0.11126576748E+03  0.88745066349E+02 0.  0.
        -11    1    3    3    0    0  0.84997665246E+01 -0.36044181590E+02 -0.34694926225E+02  0.50746102936E+02  0.00000000000E+00 0. -1.
         11    1    3    3    0    0 -0.46934179052E+02  0.40342832824E+02 -0.19214072074E+02  0.64803872486E+02  0.00000000000E+00 0.  1.
        -11    1    4    4    0    0  0.24676871287E+02  0.36497534908E+02  0.54898592969E+02  0.70390862623E+02  0.00000000000E+00 0.  1.
         11    1    4    4    0    0  0.29136429380E+02 -0.69108107368E+01 -0.27822060040E+02  0.40874904856E+02  0.00000000000E+00 0. -1.
         21    1    1    2  502  501 -0.15378888140E+02 -0.33885375405E+02 -0.97932167612E+02  0.10476372616E+03  0.00000000000E+00 0. -1.
<scales pt_clust_5="13000.00000" pt_clust_6="13000.00000" pt_clust_7="13000.00000" pt_clust_8="13000.00000" pt_clust_9="37.21195"></scales>
<clustering>
<clus scale="   37.212">  2  9  1 -1</clus>
<clus scale="   88.745">  7  8 -1 -1</clus>
<clus scale="   94.604">  5  6 -1 -1</clus>
<clus scale="  102.881">  1  7  2 -1</clus>
<clus scale="  102.881">  1  5  2 -1</clus>
</clustering>
</event>
<event>
 9    1  0.1484717E-005  0.1892998E+03  0.7546771E-02  0.1159304E+00
         -2   -1    0    0    0  501 -0.00000000000E+00  0.00000000000E+00  0.42162246294E+03  0.42162246294E+03  0.00000000000E+00 0.  1.
          2   -1    0    0  502    0  0.00000000000E+00 -0.00000000000E+00 -0.15548967896E+03  0.15548967896E+03  0.00000000000E+00 0. -1.
         23    2    1    2    0    0  0.32881069504E+02  0.19173456043E+03  0.21457184449E+03  0.30373534905E+03  0.91491963716E+02 0.  0.
         23    2    1    2    0    0  0.67276779380E+00 -0.15612169010E+03 -0.23858301256E+02  0.18347574499E+03  0.93379311004E+02 0.  0.
        -11    1    3    3    0    0  0.31454076182E+02  0.63756689594E+02  0.25724312321E+02  0.75604329379E+02  0.00000000000E+00 0. -1.
         11    1    3    3    0    0  0.14269933222E+01  0.12797787083E+03  0.18884753217E+03  0.22813101968E+03  0.00000000000E+00 0.  1.
        -13    1    4    4    0    0 -0.83524504495E+01 -0.32639317312E+02 -0.46690006748E+02  0.57576429146E+02  0.00000000000E+00 0.  1.
         13    1    4    4    0    0  0.90252182433E+01 -0.12348237279E+03  0.22831705492E+02  0.12589931584E+03  0.00000000000E+00 0. -1.
         21    1    1    2  502  501 -0.33553837298E+02 -0.35612870328E+02  0.75419240750E+02  0.89901047857E+02  0.00000000000E+00 0.  1.
<scales pt_clust_5="13000.00000" pt_clust_6="13000.00000" pt_clust_7="13000.00000" pt_clust_8="13000.00000" pt_clust_9="48.92991"></scales>
<clustering>
<clus scale="   48.930">  1  9  2 -1</clus>
<clus scale="   91.492">  5  6 -1 -1</clus>
<clus scale="   93.379">  7  8 -1 -1</clus>
<clus scale="  188.376">  1  5  2 -1</clus>
<clus scale="  189.300">  2  5  1 -1</clus>
</clustering>
</event>
<event>
 9    1  0.1484717E-005  0.1472711E+03  0.7546771E-02  0.1223832E+00
          2   -1    0    0  502    0  0.00000000000E+00  0.00000000000E+00  0.18371050833E+03  0.18371050833E+03  0.00000000000E+00 0. -1.
         -2   -1    0    0    0  501 -0.00000000000E+00 -0.00000000000E+00 -0.22047495976E+03  0.22047495976E+03  0.00000000000E+00 0.  1.
         23    2    1    2    0    0 -0.25121224714E+02  0.19463210544E+02 -0.41772372621E+02  0.10507739118E+03  0.91029855140E+02 0.  0.
         23    2    1    2    0    0 -0.89679747365E+02 -0.82279041108E+02  0.59805262463E+02  0.15723545668E+03  0.79586567507E+02 0.  0.
        -11    1    3    3    0    0 -0.19416144696E+02 -0.25557908531E+02  0.12399872458E+02  0.34408577423E+02  0.00000000000E+00 0. -1.
         11    1    3    3    0    0 -0.57050800188E+01  0.45021119075E+02 -0.54172245079E+02  0.70668813756E+02  0.00000000000E+00 0.  1.
        -13    1    4    4    0    0 -0.53604236647E+02 -0.31768258388E+02 -0.10784375451E+02  0.63237166140E+02  0.00000000000E+00 0.  1.
         13    1    4    4    0    0 -0.36075510718E+02 -0.50510782720E+02  0.70589637914E+02  0.93998290545E+02  0.00000000000E+00 0. -1.
         21    1    1    2  502  501  0.11480097208E+03  0.62815830564E+02 -0.54797341269E+02  0.14187262023E+03  0.00000000000E+00 0. -1.
<scales pt_clust_5="13000.00000" pt_clust_6="13000.00000" pt_clust_7="13000.00000" pt_clust_8="13000.00000" pt_clust_9="123.91432"></scales>
<clustering>
<clus scale="   79.587">  7  8 -1 -1</clus>
<clus scale="   91.030">  5  6 -1 -1</clus>
<clus scale="   96.417">  2  5  1 -1</clus>
<clus scale="  123.914">  2  9  1 -1</clus>
<clus scale="  147.271">  1  5  2 -1</clus>
</clustering>
</event>
<event>
 9    1  0.1484717E-005  0.1015741E+03  0.7546771E-02  0.1277107E+00
          2   -1    0    0  502    0  0.00000000000E+00  0.00000000000E+00  0.55267062692E+03  0.55267062692E+03  0.00000000000E+00 0. -1.
         -2   -1    0    0    0  501 -0.00000000000E+00 -0.00000000000E+00 -0.58632079835E+02  0.58632079835E+02  0.00000000000E+00 0.  1.
         23    2    1    2    0    0 -0.87983033761E+01 -0.64858129792E+01  0.37454448072E+02  0.10061214578E+03  0.92738839144E+02 0.  0.
         23    2    1    2    0    0  0.27973566475E+02  0.37876865810E+02  0.46198481695E+03  0.47351184843E+03  0.92554427875E+02 0.  0.
        -11    1    3    3    0    0 -0.35977235984E+02 -0.28276050422E+02 -0.46160025274E+01  0.45991347184E+02  0.00000000000E+00 0.  1.
         11    1    3    3    0    0  0.27178932608E+02  0.21790237443E+02  0.42070450600E+02  0.54620798595E+02  0.00000000000E+00 0. -1.
        -11    1    4    4    0    0 -0.20069189506E+02  0.50253257133E+02  0.22963349376E+03  0.23592308848E+03  0.00000000000E+00 0.  1.
         11    1    4    4    0    0  0.48042755981E+02 -0.12376391324E+02  0.23235132319E+03  0.23758875995E+03  0.00000000000E+00 0. -1.
         21    1    1    2  502  501 -0.19175263099E+02 -0.31391052830E+02 -0.54007179379E+01  0.37178712551E+02  0.00000000000E+00 0.  1.
<scales pt_clust_5="13000.00000" pt_clust_6="13000.00000" pt_clust_7="13000.00000" pt_clust_8="13000.00000" pt_clust_9="36.78436"></scales>
<clustering>
<clus scale="   36.784">  2  9  1 -1</clus>
<clus scale="   92.554">  7  8 -1 -1</clus>
<clus scale="   92.739">  5  6 -1 -1</clus>
<clus scale="  101.406">  1  7  2 -1</clus>
<clus scale="  101.406">  1  5  2 -1</clus>
</clustering>
</event>
<event>
 9    1  0.1484717E-005  0.1409622E+03  0.7546771E-02  0.1215170E+00
          3   -1    0    0  502    0  0.00000000000E+00  0.00000000000E+00  0.72567256567E+03  0.72567256567E+03  0.00000000000E+00 0. -1.
         -3   -1    0    0    0  501 -0.00000000000E+00 -0.00000000000E+00 -0.31934242021E+02  0.31934242021E+02  0.00000000000E+00 0.  1.
         23    2    1    2    0    0  0.11059158297E+03 -0.31927815118E+02  0.26820998421E+03  0.30368976006E+03  0.83910613928E+02 0.  0.
         23    2    1    2    0    0 -0.88712252480E+02  0.28201781816E+02  0.38123828034E+03  0.40437718730E+03  0.97535014100E+02 0.  0.
        -13    1    4    4    0    0 -0.67707796878E+02  0.40812979829E+02  0.36826400777E+03  0.37665425060E+03  0.00000000000E+00 0. -1.
         13    1    4    4    0    0 -0.21004455602E+02 -0.12611198013E+02  0.12974272575E+02  0.27722936701E+02  0.00000000000E+00 0.  1.
        -13    1    3    3    0    0 -0.15377352655E+01 -0.24076623827E+02  0.20459401447E+02  0.31632823969E+02  0.00000000000E+00 0.  1.
         13    1    3    3    0    0  0.11212931824E+03 -0.78511912909E+01  0.24775058277E+03  0.27205693609E+03  0.00000000000E+00 0. -1.
         21    1    1    2  502  501 -0.21879330491E+02  0.37260333026E+01  0.44290059093E+02  0.49539860328E+02  0.00000000000E+00 0.  1.
<scales pt_clust_5="13000.00000" pt_clust_6="13000.00000" pt_clust_7="13000.00000" pt_clust_8="13000.00000" pt_clust_9="22.19433"></scales>
<clustering>
<clus scale="   22.194">  2  9  1 -1</clus>
<clus scale="   83.911">  7  8 -1 -1</clus>
<clus scale="   97.535">  5  6 -1 -1</clus>
<clus scale="  131.902">  2  7  1 -1</clus>
<clus scale="  140.962">  1  5  2 -1</clus>
</clustering>
</event>
<event>
 9    1  0.1484717E-005  0.1587145E+03  0.7546771E-02  0.1190884E+00
         -2   -1    0    0    0  501 -0.00000000000E+00  0.00000000000E+00  0.61023580465E+02  0.61023580465E+02  0.00000000000E+00 0.  1.
          2   -1    0    0  502    0  0.00000000000E+00 -0.00000000000E+00 -0.58343776112E+03  0.58343776112E+03  0.00000000000E+00 0. -1.
         23    2    1    2    0    0  0.50019500494E+02 -0.13760847379E+03 -0.21237747660E+03  0.27393588986E+03  0.92188050724E+02 0.  0.
         23    2    1    2    0    0 -0.48283183198E+02  0.10966491282E+03 -0.30861206979E+03  0.34249177590E+03  0.87758464273E+02 0.  0.
        -11    1    3    3    0    0  0.10429968346E+02 -0.99453348324E+02 -0.18973304169E+03  0.21447232885E+03  0.00000000000E+00 0. -1.
         11    1    3    3    0    0  0.39589532148E+02 -0.38155125469E+02 -0.22644434903E+02  0.59463561004E+02  0.00000000000E+00 0.  1.
        -13    1    4    4    0    0 -0.35628888388E+02  0.12296060306E+02 -0.15995194226E+03  0.16433269492E+03  0.00000000000E+00 0. -1.
         13    1    4    4    0    0 -0.12654294810E+02  0.97368852511E+02 -0.14866012754E+03  0.17815908098E+03  0.00000000000E+00 0.  1.
         21    1    1    2  502  501 -0.17363172955E+01  0.27943560977E+02 -0.14246342627E+01  0.28033675831E+02  0.00000000000E+00 0. -1.
<scales pt_clust_5="13000.00000" pt_clust_6="13000.00000" pt_clust_7="13000.00000" pt_clust_8="13000.00000" pt_clust_9="27.99745"></scales>
<clustering>
<clus scale="   27.997">  1  9  2 -1</clus>
<clus scale="   87.758">  7  8 -1 -1</clus>
<clus scale="   92.188">  5  6 -1 -1</clus>
<clus scale="  156.183">  2  7  1 -1</clus>
<clus scale="  156.183">  2  5  1 -1</clus>
</clustering>
</event>
<event>
 9    1  0.1484717E-005  0.1186044E+03  0.7546771E-02  0.1249594E+00
          2   -1    0    0  502    0  0.00000000000E+00  0.00000000000E+00  0.82174169105E+02  0.82174169105E+02  0.00000000000E+00 0. -1.
         -2   -1    0    0    0  501 -0.00000000000E+00 -0.00000000000E+00 -0.35488501206E+03  0.35488501206E+03  0.00000000000E+00 0.  1.
         23    2    1    2    0    0 -0.60274826090E+02 -0.19715463524E+02 -0.28152945563E+03  0.30609800598E+03  0.10205587055E+03 0.  0.
         23    2    1    2    0    0  0.45375009309E+02  0.47070538312E+01  0.24625494848E+02  0.10455825062E+03  0.90801789357E+02 0.  0.
        -13    1    3    3    0    0 -0.47110320592E+02  0.26795477421E+02 -0.22631461515E+03  0.23271374035E+03  0.00000000000E+00 0.  1.
         13    1    3    3    0    0 -0.13164505498E+02 -0.46510940945E+02 -0.55214840479E+02  0.73384265628E+02  0.00000000000E+00 0. -1.
        -13    1    4    4    0    0  0.64902327868E+01 -0.21193703448E+02 -0.26998317557E+02  0.34931437680E+02  0.00000000000E+00 0.  1.
         13    1    4    4    0    0  0.38884776523E+02  0.25900757279E+02  0.51623812405E+02  0.69626812939E+02  0.00000000000E+00 0. -1.
         21    1    1    2  502  501  0.14899816781E+02  0.15008409693E+02 -0.15806882170E+02  0.26402924564E+02  0.00000000000E+00 0.  1.
<scales pt_clust_5="13000.00000" pt_clust_6="13000.00000" pt_clust_7="13000.00000" pt_clust_8="13000.00000" pt_clust_9="21.14845"></scales>
<clustering>
<clus scale="   21.148">  1  9  2 -1</clus>
<clus scale="   90.802">  7  8 -1 -1</clus>
<clus scale="  102.056">  5  6 -1 -1</clus>
<clus scale="  109.071">  1  7  2 -1</clus>
<clus scale="   21.148">  1  5  2 -1</clus>
</clustering>
</event>
<event>
 9    1  0.1484717E-005  0.1449510E+03  0.7546771E-02  0.1206998E+00
          1   -1    0    0  502    0  0.00000000000E+00  0.00000000000E+00  0.19524161510E+03  0.19524161510E+03  0.00000000000E+00 0. -1.
         -1   -1    0    0    0  501 -0.00000000000E+00 -0.00000000000E+00 -0.57536354781E+03  0.57536354781E+03  0.00000000000E+00 0.  1.
         23    2    1    2    0    0  0.70993713232E+02 -0.12896625696E+02 -0.14287748460E+03  0.18445658116E+03  0.91672375624E+02 0.  0.
         23    2    1    2    0    0 -0.10508229439E+03  0.60398582721E+02  0.13889932480E+03  0.20548783360E+03  0.90785185683E+02 0.  0.
        -11    1    3    3    0    0  0.90016995001E+02  0.54327166788E+01 -0.11304774806E+03  0.14461108927E+03  0.00000000000E+00 0.  1.
         11    1    3    3    0    0 -0.19023281769E+02 -0.18329342375E+02 -0.29829736542E+02  0.39845491882E+02  0.00000000000E+00 0. -1.
        -13    1    4    4    0    0 -0.59362490278E+02  0.80449868594E+02  0.78425312968E+02  0.12706933667E+03  0.00000000000E+00 0. -1.
         13    1    4    4    0    0 -0.45719804116E+02 -0.20051285874E+02  0.60474011830E+02  0.78418496928E+02  0.00000000000E+00 0.  1.
         21    1    1    2  502  501  0.34088581162E+02 -0.47501957025E+02 -0.37614377290E+03  0.38066074815E+03  0.00000000000E+00 0.  1.
<scales pt_clust_5="13000.00000" pt_clust_6="13000.00000" pt_clust_7="13000.00000" pt_clust_8="13000.00000" pt_clust_9="58.46766"></scales>
<clustering>
<clus scale="   58.468">  2  9  1 -1</clus>
<clus scale="   90.785">  7  8 -1 -1</clus>
<clus scale="   91.672">  5  6 -1 -1</clus>
<clus scale="  144.392">  1  7  2 -1</clus>
<clus scale="  144.392">  1  5  2 -1</clus>
</clustering>
</event>
<event>
 9    1  0.1484717E-005  0.1066332E+03  0.7546771E-02  0.1267644E+00
         -4   -1    0    0    0  501 -0.00000000000E+00  0.00000000000E+00  0.34976669113E+03  0.34976669113E+03  0.00000000000E+00 0.  1.
          4   -1    0    0  502    0  0.00000000000E+00 -0.00000000000E+00 -0.56368635907E+02  0.56368635907E+02  0.00000000000E+00 0. -1.
         23    2    1    2    0    0  0.33488872682E+02  0.26684090398E+02  0.11232427570E+03  0.15273928328E+03  0.94228448311E+02 0.  0.
         23    2    1    2    0    0 -0.22111708030E+02 -0.52257598897E+02  0.50310295424E+02  0.11967045538E+03  0.92574876677E+02 0.  0.
        -11    1    3    3    0    0 -0.21921224842E+02  0.30139522358E+02  0.13975517266E+02  0.39802587722E+02  0.00000000000E+00 0. -1.
         11    1    3    3    0    0  0.55410097524E+02 -0.34554319596E+01  0.98348758438E+02  0.11293669556E+03  0.00000000000E+00 0.  1.
        -13    1    4    4    0    0  0.33350742838E+02 -0.38436199826E+02  0.29628576404E+02  0.58885193764E+02  0.00000000000E+00 0.  1.
         13    1    4    4    0    0 -0.55462450868E+02 -0.13821399071E+02  0.20681719020E+02  0.60785261620E+02  0.00000000000E+00 0. -1.
         21    1    1    2  502  501 -0.11377164652E+02  0.25573508499E+02  0.13076348410E+03  0.13372558837E+03  0.00000000000E+00 0. -1.
<scales pt_clust_5="13000.00000" pt_clust_6="13000.00000" pt_clust_7="13000.00000" pt_clust_8="13000.00000" pt_clust_9="27.99007"></scales>
<clustering>
<clus scale="   27.990">  1  9  2 -1</clus>
<clus scale="   92.575">  7  8 -1 -1</clus>
<clus scale="   94.228">  5  6 -1 -1</clus>
<clus scale="  105.175">  2  7  1 -1</clus>
<clus scale="  105.175">  2  5  1 -1</clus>
</clustering>
</event>
<event>
 9    1  0.1484717E-005  0.1011497E+03  0.7546771E-02  0.1278140E+00
         -1   -1    0    0    0  501 -0.00000000000E+00  0.00000000000E+00  0.90899709815E+02  0.90899709815E+02  0.00000000000E+00 0.  1.
          1   -1    0    0  502    0  0.00000000000E+00 -0.00000000000E+00 -0.64313918206E+03  0.64313918206E+03  0.00000000000E+00 0. -1.
         23    2    1    2    0    0  0.72492870504E+01 -0.26303017923E+02 -0.23255842702E+03  0.25126791353E+03  0.91146812779E+02 0.  0.
         23    2    1    2    0    0  0.12060272253E+02  0.55357871967E+02 -0.38981706900E+03  0.40443768113E+03  0.91665405008E+02 0.  0.
        -13    1    3    3    0    0 -0.79122656236E+01 -0.58488758650E+02 -0.15776005089E+03  0.16843922492E+03  0.00000000000E+00 0.  1.
         13    1    3    3    0    0  0.15161552674E+02  0.32185740727E+02 -0.74798376126E+02  0.82828688609E+02  0.00000000000E+00 0. -1.
        -13    1    4    4    0    0  0.51851913794E+02  0.26941703878E+02 -0.19408417261E+03  0.20268976893E+03  0.00000000000E+00 0. -1.
         13    1    4    4    0    0 -0.39791641541E+02  0.28416168089E+02 -0.19573289639E+03  0.20174791219E+03  0.00000000000E+00 0.  1.
         21    1    1    2  502  501 -0.19309559303E+02 -0.29054854044E+02  0.70136023766E+02  0.78333297222E+02  0.00000000000E+00 0.  1.
<scales pt_clust_5="13000.00000" pt_clust_6="13000.00000" pt_clust_7="13000.00000" pt_clust_8="13000.00000" pt_clust_9="34.88615"></scales>
<clustering>
<clus scale="   34.886">  1  9  2 -1</clus>
<clus scale="   91.147">  5  6 -1 -1</clus>
<clus scale="   91.665">  7  8 -1 -1</clus>
<clus scale="  100.680">  1  5  2 -1</clus>
<clus scale="  101.150">  2  5  1 -1</clus>
</clustering>
</event>
<event>
 9    1  0.1484717E-005  0.1061904E+03  0.7546771E-02  0.1268904E+00
         -1   -1    0    0    0  501 -0.00000000000E+00  0.00000000000E+00  0.31269069799E+02  0.31269069799E+02  0.00000000000E+00 0.  1.
          1   -1    0    0  502    0  0.00000000000E+00 -0.00000000000E+00 -0.46603213793E+03  0.46603213793E+03  0.00000000000E+00 0. -1.
         23    2    1    2    0    0  0.24315866303E+02 -0.27501490753E+02 -0.16221783573E+03  0.19174352362E+03  0.95411525904E+02 0.  0.
         23    2    1    2    0    0 -0.44600435590E+02  0.14877682748E+02 -0.25061931972E+03  0.27312976517E+03  0.97873800905E+02 0.  0.
        -11    1    3    3    0    0 -0.31761857515E+02  0.70269916420E+01 -0.80285183090E+02  0.86625081981E+02  0.00000000000E+00 0.  1.
         11    1    3    3    0    0  0.56077723818E+02 -0.34528482395E+02 -0.81932652641E+02  0.10511844164E+03  0.00000000000E+00 0. -1.
        -13    1    4    4    0    0  0.16504720251E+01  0.47806891089E+02 -0.15183476012E+03  0.15919176258E+03  0.00000000000E+00 0. -1.
         13    1    4    4    0    0 -0.46250907615E+02 -0.32929208341E+02 -0.98784559604E+02  0.11393800259E+03  0.00000000000E+00 0.  1.
         21    1    1    2  502  501  0.20284569287E+02  0.12623808005E+02 -0.21925912674E+02  0.32427918932E+02  0.00000000000E+00 0. -1.
<scales pt_clust_5="13000.00000" pt_clust_6="13000.00000" pt_clust_7="13000.00000" pt_clust_8="13000.00000" pt_clust_9="23.89193"></scales>
<clustering>
<clus scale="   23.892">  1  9  2 -1</clus>
<clus scale="   95.412">  5  6 -1 -1</clus>
<clus scale="   97.874">  7  8 -1 -1</clus>
<clus scale="  103.925">  1  5  2 -1</clus>
<clus scale="  106.190">  2  5  1 -1</clus>
</clustering>
</event>
<event>
 9    1  0.1484717E-005  0.9953731E+02  0.7546771E-02  0.1282430E+00
          1   -1    0    0  502    0  0.00000000000E+00  0.00000000000E+00  0.23493589443E+03  0.23493589443E+03  0.00000000000E+00 0. -1.
         -1   -1    0    0    0  501 -0.00000000000E+00 -0.00000000000E+00 -0.77719201170E+02  0.77719201170E+02  0.00000000000E+00 0.  1.
         23    2    1    2    0    0  0.34509065547E+02  0.24476522420E+02 -0.38419044096E+00  0.10071186365E+03  0.91393414000E+02 0.  0.
         23    2    1    2    0    0 -0.40698371624E+02  0.13424810095E+02  0.13528212282E+03  0.16752537964E+03  0.89033235884E+02 0.  0.
        -11    1    4    4    0    0 -0.39373052466E+02  0.42001506956E+02  0.45753737524E+02  0.73537530177E+02  0.00000000000E+00 0.  1.
         11    1    4    4    0    0 -0.13253191578E+01 -0.28576696861E+02  0.89528385291E+02  0.93987849466E+02  0.00000000000E+00 0. -1.
        -11    1    3    3    0    0  0.31809502053E+02 -0.29535180102E+02  0.12397524767E+02  0.45142772455E+02  0.00000000000E+00 0. -1.
         11    1    3    3    0    0  0.26995634935E+01  0.54011702522E+02 -0.12781715208E+02  0.55569091193E+02  0.00000000000E+00 0.  1.
         21    1    1    2  502  501  0.61893060773E+01 -0.37901332515E+02  0.22318760883E+02  0.44417852306E+02  0.00000000000E+00 0. -1.
<scales pt_clust_5="13000.00000" pt_clust_6="13000.00000" pt_clust_7="13000.00000" pt_clust_8="13000.00000" pt_clust_9="38.40337"></scales>
<clustering>
<clus scale="   38.403">  2  9  1 -1</clus>
<clus scale="   89.033">  5  6 -1 -1</clus>
<clus scale="   91.393">  7  8 -1 -1</clus>
<clus scale="   97.375">  1  5  2 -1</clus>
<clus scale="   97.375">  1  5  2 -1</clus>
</clustering>
</event>
<event>
 9    1  0.1484717E-005  0.9565786E+02  0.7546771E-02  0.1290256E+00
          1   -1    0    0  502    0  0.00000000000E+00  0.00000000000E+00  0.20189370586E+03  0.20189370586E+03  0.00000000000E+00 0. -1.
         -1   -1    0    0    0  501 -0.00000000000E+00 -0.00000000000E+00 -0.82039607402E+02  0.82039607402E+02  0.00000000000E+00 0.  1.
         23    2    1    2    0    0 -0.14536651822E+02 -0.42991342136E+02  0.24987918775E+02  0.10428243285E+03  0.90503369950E+02 0.  0.
         23    2    1    2    0    0  0.11543901524E+02  0.22403288020E+02  0.11690215700E+03  0.14934561976E+03  0.89458542655E+02 0.  0.
        -11    1    3    3    0    0  0.27293073308E+02 -0.41336532173E+02  0.35715508348E+02  0.61067325790E+02  0.00000000000E+00 0.  1.
         11    1    3    3    0    0 -0.41829725129E+02 -0.16548099635E+01 -0.10727589573E+02  0.43215107063E+02  0.00000000000E+00 0. -1.
        -11    1    4    4    0    0 -0.22876346065E+02  0.12069217605E+02 -0.12038406463E+01  0.25892903568E+02  0.00000000000E+00 0.  1.
         11    1    4    4    0    0  0.34420247589E+02  0.10334070415E+02  0.11810599764E+03  0.12345271619E+03  0.00000000000E+00 0. -1.
         21    1    1    2  502  501  0.29927502978E+01  0.20588054116E+02 -0.22035977316E+02  0.30305260648E+02  0.00000000000E+00 0.  1.
<scales pt_clust_5="13000.00000" pt_clust_6="13000.00000" pt_clust_7="13000.00000" pt_clust_8="13000.00000" pt_clust_9="20.80444"></scales>
<clustering>
<clus scale="   20.804">  2  9  1 -1</clus>
<clus scale="   89.459">  7  8 -1 -1</clus>
<clus scale="   90.503">  5  6 -1 -1</clus>
<clus scale="   94.670">  1  7  2 -1</clus>
<clus scale="   94.670">  1  5  2 -1</clus>
</clustering>
</event>
<event>
 9    1  0.1484717E-005  0.1120545E+03  0.7546771E-02  0.1258621E+00
          2   -1    0    0  502    0  0.00000000000E+00  0.00000000000E+00  0.53630224240E+03  0.53630224240E+03  0.00000000000E+00 0. -1.
         -2   -1    0    0    0  501 -0.00000000000E+00 -0.00000000000E+00 -0.68655964018E+02  0.68655964018E+02  0.00000000000E+00 0.  1.
         23    2    1    2    0    0  0.70977363644E+02 -0.23675377957E+02  0.18662500575E+03  0.22240584995E+03  0.95063976614E+02 0.  0.
         23    2    1    2    0    0 -0.53215320710E+02 -0.81757439431E+00  0.31795198760E+03  0.33481062847E+03  0.90399954296E+02 0.  0.
        -11    1    3    3    0    0  0.27238328314E+02 -0.58727973936E+02  0.93815046086E+02  0.11398317562E+03  0.00000000000E+00 0. -1.
         11    1    3    3    0    0  0.43739035330E+02  0.35052595979E+02  0.92809959665E+02  0.10842267433E+03  0.00000000000E+00 0.  1.
        -13    1    4    4    0    0 -0.12356524497E+02 -0.39844674803E+02  0.19620854769E+03  0.20059430698E+03  0.00000000000E+00 0. -1.
         13    1    4    4    0    0 -0.40858796212E+02  0.39027100408E+02  0.12174343991E+03  0.13421632149E+03  0.00000000000E+00 0.  1.
         21    1    1    2  502  501 -0.17762042935E+02  0.24492952351E+02 -0.36930714964E+02  0.47741727994E+02  0.00000000000E+00 0.  1.
<scales pt_clust_5="13000.00000" pt_clust_6="13000.00000" pt_clust_7="13000.00000" pt_clust_8="13000.00000" pt_clust_9="30.25549"></scales>
<clustering>
<clus scale="   30.255">  2  9  1 -1</clus>
<clus scale="   90.400">  7  8 -1 -1</clus>
<clus scale="   95.064">  5  6 -1 -1</clus>
<clus scale="  108.126">  1  7  2 -1</clus>
<clus scale="  108.126">  1  5  2 -1</clus>
</clustering>
</event>
<event>
 9    1  0.1484717E-005  0.1044122E+03  0.7546771E-02  0.1273820E+00
          1   -1    0    0  502    0  0.00000000000E+00  0.00000000000E+00  0.16395438844E+03  0.16395438844E+03  0.00000000000E+00 0. -1.
         -1   -1    0    0    0  501 -0.00000000000E+00 -0.00000000000E+00 -0.13963444221E+03  0.13963444221E+03  0.00000000000E+00 0.  1.
         23    2    1    2    0    0 -0.26341894018E+02 -0.39429276887E+02 -0.77343560997E+02  0.12867385799E+03  0.91248956412E+02 0.  0.
         23    2    1    2    0    0  0.15288967147E+02  0.67693858830E+02  0.90629798357E+02  0.14262261263E+03  0.85505779000E+02 0.  0.
        -11    1    3    3    0    0 -0.58546183821E+02 -0.39042075751E+02 -0.48759251662E+02  0.85611938078E+02  0.00000000000E+00 0. -1.
         11    1    3    3    0    0  0.32204289802E+02 -0.38720113637E+00 -0.28584309336E+02  0.43061919913E+02  0.00000000000E+00 0.  1.
        -13    1    4    4    0    0 -0.94825095399E+01  0.52991729443E+02  0.98944038867E+02  0.11264086383E+03  0.00000000000E+00 0. -1.
         13    1    4    4    0    0  0.24771476687E+02  0.14702129387E+02 -0.83142405098E+01  0.29981748799E+02  0.00000000000E+00 0.  1.
         21    1    1    2  502  501  0.11052926871E+02 -0.28264581943E+02  0.11033708879E+02  0.32292360032E+02  0.00000000000E+00 0.  1.
<scales pt_clust_5="13000.00000" pt_clust_6="13000.00000" pt_clust_7="13000.00000" pt_clust_8="13000.00000" pt_clust_9="30.34887"></scales>
<clustering>
<clus scale="   30.349">  1  9  2 -1</clus>
<clus scale="   85.506">  7  8 -1 -1</clus>
<clus scale="   91.249">  5  6 -1 -1</clus>
<clus scale="   99.432">  1  7  2 -1</clus>
<clus scale="   30.349">  1  5  2 -1</clus>
</clustering>
</event>
<event>
 9    1  0.1484717E-005  0.4297239E+03  0.7546771E-02  0.1033977E+00
         -1   -1    0    0    0  501 -0.00000000000E+00  0.00000000000E+00  0.12727438245E+03  0.12727438245E+03  0.00000000000E+00 0.  1.
          1   -1    0    0  502    0  0.00000000000E+00 -0.00000000000E+00 -0.23102823930E+04  0.23102823930E+04  0.00000000000E+00 0. -1.
         23    2    1    2    0    0 -0.42208397143E+03  0.21470274180E+03 -0.65147731572E+03  0.81048083591E+03  0.90577846133E+02 0.  0.
         23    2    1    2    0    0  0.36298022062E+03 -0.16987299124E+03 -0.14816824316E+04  0.15377013948E+04  0.92364916395E+02 0.  0.
        -11    1    3    3    0    0 -0.34950380908E+03  0.14303117877E+03 -0.54478249716E+03  0.66287163152E+03  0.00000000000E+00 0.  1.
         11    1    3    3    0    0 -0.72580162354E+02  0.71671563031E+02 -0.10669481855E+03  0.14760920439E+03  0.00000000000E+00 0. -1.
        -13    1    4    4    0    0  0.30332626214E+03 -0.10733246878E+03 -0.10844850948E+04  0.11312095301E+04  0.00000000000E+00 0. -1.
         13    1    4    4    0    0  0.59653958477E+02 -0.62540522456E+02 -0.39719733677E+03  0.40649186468E+03  0.00000000000E+00 0.  1.
         21    1    1    2  502  501  0.59103750817E+02 -0.44829750561E+02 -0.49848263202E+02  0.89374544700E+02  0.00000000000E+00 0.  1.
<scales pt_clust_5="13000.00000" pt_clust_6="13000.00000" pt_clust_7="13000.00000" pt_clust_8="13000.00000" pt_clust_9="74.18194"></scales>
<clustering>
<clus scale="   74.182">  1  9  2 -1</clus>
<clus scale="   90.578">  5  6 -1 -1</clus>
<clus scale="   92.365">  7  8 -1 -1</clus>
<clus scale="  429.343">  1  5  2 -1</clus>
<clus scale="  429.724">  2  5  1 -1</clus>
</clustering>
</event>
<event>
 9    1  0.1484717E-005  0.9825231E+02  0.7546771E-02  0.1285538E+00
          3   -1    0    0  502    0  0.00000000000E+00  0.00000000000E+00  0.76974209522E+02  0.76974209522E+02  0.00000000000E+00 0. -1.
         -3   -1    0    0    0  501 -0.00000000000E+00 -0.00000000000E+00 -0.17240650005E+03  0.17240650005E+03  0.00000000000E+00 0.  1.
         23    2    1    2    0    0 -0.37797274981E+02 -0.80690517082E+01 -0.81356622814E+02  0.12834518074E+03  0.91432170220E+02 0.  0.
         23    2    1    2    0    0  0.34279675946E+02 -0.13101830469E+02 -0.69617570960E+00  0.95745401089E+02  0.88430441729E+02 0.  0.
        -11    1    3    3    0    0 -0.60009132277E+02 -0.29790258711E+01 -0.86175856220E+02  0.10505355181E+03  0.00000000000E+00 0.  1.
         11    1    3    3    0    0  0.22211857296E+02 -0.50900258371E+01  0.48192334066E+01  0.23291628930E+02  0.00000000000E+00 0. -1.
        -11    1    4    4    0    0 -0.84621486793E+00  0.35110869380E+02  0.63118251212E+01  0.35683726888E+02  0.00000000000E+00 0.  1.
         11    1    4    4    0    0  0.35125890814E+02 -0.48212699849E+02 -0.70080008307E+01  0.60061674201E+02  0.00000000000E+00 0. -1.
         21    1    1    2  502  501  0.35175990343E+01  0.21170882177E+02 -0.13379492004E+02  0.25290127746E+02  0.00000000000E+00 0.  1.
<scales pt_clust_5="13000.00000" pt_clust_6="13000.00000" pt_clust_7="13000.00000" pt_clust_8="13000.00000" pt_clust_9="21.46112"></scales>
<clustering>
<clus scale="   21.461">  2  9  1 -1</clus>
<clus scale="   88.430">  7  8 -1 -1</clus>
<clus scale="   91.432">  5  6 -1 -1</clus>
<clus scale="   95.465">  1  7  2 -1</clus>
<clus scale="   95.465">  1  5  2 -1</clus>
</clustering>
</event>
<event>
 9    1  0.1484717E-005  0.1077258E+03  0.7546771E-02  0.1268202E+00
          1   -1    0    0  502    0  0.00000000000E+00  0.00000000000E+00  0.54653448725E+02  0.54653448725E+02  0.00000000000E+00 0. -1.
         -1   -1    0    0    0  501 -0.00000000000E+00 -0.00000000000E+00 -0.26833371223E+03  0.26833371223E+03  0.00000000000E+00 0.  1.
         23    2    1    2    0    0  0.43074655614E+02 -0.27533886901E+02 -0.89356393845E+02  0.13563819783E+03  0.88315427334E+02 0.  0.
         23    2    1    2    0    0 -0.50263074562E+02  0.11564855616E+01 -0.77944686009E+02  0.13351152871E+03  0.96032495009E+02 0.  0.
        -11    1    3    3    0    0 -0.24392638107E+02  0.30420006151E+01 -0.38891800062E+02  0.46008984705E+02  0.00000000000E+00 0.  1.
         11    1    3    3    0    0  0.67467293721E+02 -0.30575887517E+02 -0.50464593784E+02  0.89629213124E+02  0.00000000000E+00 0. -1.
        -13    1    4    4    0    0 -0.70604129647E+02  0.38440767781E+01 -0.22201644758E+02  0.74112300460E+02  0.00000000000E+00 0.  1.
         13    1    4    4    0    0  0.20341055085E+02 -0.26875912164E+01 -0.55743041251E+02  0.59399228248E+02  0.00000000000E+00 0. -1.
         21    1    1    2  502  501  0.71884189487E+01  0.26377401340E+02 -0.46379183646E+02  0.53837434412E+02  0.00000000000E+00 0.  1.
<scales pt_clust_5="13000.00000" pt_clust_6="13000.00000" pt_clust_7="13000.00000" pt_clust_8="13000.00000" pt_clust_9="27.33936"></scales>
<clustering>
<clus scale="   27.339">  2  9  1 -1</clus>
<clus scale="   88.315">  5  6 -1 -1</clus>
<clus scale="   96.032">  7  8 -1 -1</clus>
<clus scale="  100.907">  2  5  1 -1</clus>
<clus scale="  107.726">  1  5  2 -1</clus>
</clustering>
</event>
<event>
 9    1  0.1484717E-005  0.9229440E+02  0.7546771E-02  0.1297695E+00
         -2   -1    0    0    0  501 -0.00000000000E+00  0.00000000000E+00  0.96604467782E+02  0.96604467782E+02  0.00000000000E+00 0.  1.
          2   -1    0    0  502    0  0.00000000000E+00 -0.00000000000E+00 -0.25880331544E+03  0.25880331544E+03  0.00000000000E+00 0. -1.
         23    2    1    2    0    0  0.16151481988E+02 -0.18735822539E+02 -0.55683118593E+02  0.10908481424E+03  0.90481962763E+02 0.  0.
         23    2    1    2    0    0 -0.14600801450E+02 -0.45409718205E+01 -0.16182778524E+03  0.18629266561E+03  0.91010556288E+02 0.  0.
        -13    1    3    3    0    0 -0.63725428993E+01 -0.22106932368E+02 -0.75479953943E+02  0.78908486293E+02  0.00000000000E+00 0. -1.
         13    1    3    3    0    0  0.22524024887E+02  0.33711098293E+01  0.19796835351E+02  0.30176327949E+02  0.00000000000E+00 0.  1.
        -13    1    4    4    0    0  0.37686572113E+02  0.58080051800E+01 -0.55273309036E+02  0.67150199803E+02  0.00000000000E+00 0.  1.
         13    1    4    4    0    0 -0.52287373563E+02 -0.10348977000E+02 -0.10655447620E+03  0.11914246580E+03  0.00000000000E+00 0. -1.
         21    1    1    2  502  501 -0.15506805379E+01  0.23276794359E+02  0.55312056169E+02  0.60030303376E+02  0.00000000000E+00 0.  1.
<scales pt_clust_5="13000.00000" pt_clust_6="13000.00000" pt_clust_7="13000.00000" pt_clust_8="13000.00000" pt_clust_9="23.32839"></scales>
<clustering>
<clus scale="   23.328">  1  9  2 -1</clus>
<clus scale="   90.482">  5  6 -1 -1</clus>
<clus scale="   91.011">  7  8 -1 -1</clus>
<clus scale="   91.773">  1  5  2 -1</clus>
<clus scale="   92.294">  2  5  1 -1</clus>
</clustering>
</event>
<event>
 9    1  0.1484717E-005  0.1120959E+03  0.7546771E-02  0.1257702E+00
          1   -1    0    0  502    0  0.00000000000E+00  0.00000000000E+00  0.64236585891E+03  0.64236585891E+03  0.00000000000E+00 0. -1.
         -1   -1    0    0    0  501 -0.00000000000E+00 -0.00000000000E+00 -0.26461396984E+03  0.26461396984E+03  0.00000000000E+00 0.  1.
         23    2    1    2    0    0 -0.88600369505E+02 -0.34904510446E+02  0.35285998097E+03  0.37634883756E+03  0.89777118642E+02 0.  0.
         23    2    1    2    0    0  0.41569059859E+02 -0.75384122113E+01  0.26421679144E+03  0.28306333266E+03  0.92355416869E+02 0.  0.
        -11    1    4    4    0    0 -0.15899269043E+02  0.20067418881E+02  0.15077834492E+03  0.15293657951E+03  0.00000000000E+00 0. -1.
         11    1    4    4    0    0  0.57468328903E+02 -0.27605831092E+02  0.11343844652E+03  0.13012675315E+03  0.00000000000E+00 0.  1.
        -13    1    3    3    0    0 -0.17757731315E+02  0.29943758001E+02  0.90978601454E+02  0.97411865741E+02  0.00000000000E+00 0.  1.
         13    1    3    3    0    0 -0.70842638191E+02 -0.64848268447E+02  0.26188137952E+03  0.27893697181E+03  0.00000000000E+00 0. -1.
         21    1    1    2  502  501  0.47031309646E+02  0.42442922657E+02 -0.23932488333E+03  0.24756765853E+03  0.00000000000E+00 0.  1.
<scales pt_clust_5="13000.00000" pt_clust_6="13000.00000" pt_clust_7="13000.00000" pt_clust_8="13000.00000" pt_clust_9="63.35097"></scales>
<clustering>
<clus scale="   63.351">  2  9  1 -1</clus>
<clus scale="   89.777">  7  8 -1 -1</clus>
<clus scale="   92.355">  5  6 -1 -1</clus>
<clus scale="  109.981">  2  7  1 -1</clus>
<clus scale="  112.096">  1  5  2 -1</clus>
</clustering>
</event>
<event>
 9    1  0.1630769E-005  0.1010019E+03  0.7546771E-02  0.1278829E+00
          2   -1    0    0  502    0  0.00000000000E+00  0.00000000000E+00  0.52027046193E+03  0.52027046193E+03  0.00000000000E+00 0. -1.
         -2   -1    0    0    0  501 -0.00000000000E+00 -0.00000000000E+00 -0.38909352110E+02  0.38909352110E+02  0.00000000000E+00 0.  1.
         23    2    1    2    0    0 -0.67015344099E+01 -0.25694533961E+02  0.48708155460E+02  0.10586022323E+03  0.90159762722E+02 0.  0.
         23    2    1    2    0    0  0.25534416940E+01  0.46442994703E+02  0.40856547689E+03  0.42125852616E+03  0.91485108782E+02 0.  0.
        -11    1    4    4    0    0 -0.20934747403E+01  0.71462037555E+02  0.35266493548E+03  0.35983852235E+03  0.00000000000E+00 0. -1.
         11    1    4    4    0    0  0.46469164343E+01 -0.25019042852E+02  0.55900541413E+02  0.61420003808E+02  0.00000000000E+00 0.  1.
        -13    1    3    3    0    0  0.26270787242E+02  0.76088088713E+01 -0.11408867719E+02  0.29634616538E+02  0.00000000000E+00 0. -1.
         13    1    3    3    0    0 -0.32972321652E+02 -0.33303342832E+02  0.60117023179E+02  0.76225606687E+02  0.00000000000E+00 0.  1.
         21    1    1    2  502  501  0.41480927159E+01 -0.20748460741E+02  0.24087477465E+02  0.32061064657E+02  0.00000000000E+00 0. -1.
<scales pt_clust_5="13000.00000" pt_clust_6="13000.00000" pt_clust_7="13000.00000" pt_clust_8="13000.00000" pt_clust_9="21.15905"></scales>
<clustering>
<clus scale="   21.159">  2  9  1 -1</clus>
<clus scale="   90.160">  7  8 -1 -1</clus>
<clus scale="   91.485">  5  6 -1 -1</clus>
<clus scale="   99.803">  2  7  1 -1</clus>
<clus scale="  101.002">  1  5  2 -1</clus>
</clustering>
</event>
<event>
 9    1  0.1484717E-005  0.1004828E+03  0.7546771E-02  0.1279620E+00
          3   -1    0    0  502    0  0.00000000000E+00  0.00000000000E+00  0.79855450297E+03  0.79855450297E+03  0.00000000000E+00 0. -1.
         -3   -1    0    0    0  501 -0.00000000000E+00 -0.00000000000E+00 -0.18775801620E+02  0.18775801620E+02  0.00000000000E+00 0.  1.
         23    2    1    2    0    0 -0.46065632567E+02 -0.19408650927E+02  0.36737121418E+03  0.38188924549E+03  0.91537143178E+02 0.  0.
         23    2    1    2    0    0  0.19516673211E+02  0.32610693616E+02  0.37498314710E+03  0.38769462044E+03  0.90831713870E+02 0.  0.
        -11    1    4    4    0    0  0.39453513024E+02  0.45826196058E+02  0.33987691567E+03  0.34521433594E+03  0.00000000000E+00 0.  1.
         11    1    4    4    0    0 -0.19936839813E+02 -0.13215502442E+02  0.35106231430E+02  0.42480284506E+02  0.00000000000E+00 0. -1.
        -13    1    3    3    0    0 -0.33202678498E+02 -0.50507367924E+02  0.30584414801E+03  0.31175961084E+03  0.00000000000E+00 0. -1.
         13    1    3    3    0    0 -0.12862954069E+02  0.31098716997E+02  0.61527066162E+02  0.70129634655E+02  0.00000000000E+00 0.  1.
         21    1    1    2  502  501  0.26548959356E+02 -0.13202042689E+02  0.37424340080E+02  0.47746438657E+02  0.00000000000E+00 0.  1.
<scales pt_clust_5="13000.00000" pt_clust_6="13000.00000" pt_clust_7="13000.00000" pt_clust_8="13000.00000" pt_clust_9="29.65031"></scales>
<clustering>
<clus scale="   29.650">  2  9  1 -1</clus>
<clus scale="   90.832">  5  6 -1 -1</clus>
<clus scale="   91.537">  7  8 -1 -1</clus>
<clus scale="   99.841">  1  5  2 -1</clus>
<clus scale="   99.841">  1  5  2 -1</clus>
</clustering>
</event>
<event>
 9    1  0.1484717E-005  0.2053321E+03  0.7546771E-02  0.1145547E+00
         -1   -1    0    0    0  501 -0.00000000000E+00  0.00000000000E+00  0.22041259713E+03  0.22041259713E+03  0.00000000000E+00 0.  1.
          1   -1    0    0  502    0  0.00000000000E+00 -0.00000000000E+00 -0.21720221194E+03  0.21720221194E+03  0.00000000000E+00 0. -1.
         23    2    1    2    0    0 -0.17559943595E+03 -0.38653751039E+02  0.38792446310E+02  0.20479833747E+03  0.90045714854E+02 0.  0.
         23    2    1    2    0    0  0.18502638663E+03  0.20468909527E+02 -0.40361291349E+02  0.21178323834E+03  0.92570871194E+02 0.  0.
        -11    1    3    3    0    0 -0.15227291710E+03 -0.52466819475E+02  0.45485988405E+01  0.16112261846E+03  0.00000000000E+00 0. -1.
         11    1    3    3    0    0 -0.23326518846E+02  0.13813068436E+02  0.34243847469E+02  0.43675719005E+02  0.00000000000E+00 0.  1.
        -13    1    4    4    0    0  0.10464178088E+03 -0.31661733086E+02 -0.38655208274E+02  0.11595944452E+03  0.00000000000E+00 0.  1.
         13    1    4    4    0    0  0.80384605755E+02  0.52130642613E+02 -0.17060830748E+01  0.95823793814E+02  0.00000000000E+00 0. -1.
         21    1    1    2  502  501 -0.94269506844E+01  0.18184841512E+02  0.47792302264E+01  0.21033233265E+02  0.00000000000E+00 0.  1.
<scales pt_clust_5="13000.00000" pt_clust_6="13000.00000" pt_clust_7="13000.00000" pt_clust_8="13000.00000" pt_clust_9="20.48306"></scales>
<clustering>
<clus scale="   20.483">  1  9  2 -1</clus>
<clus scale="   90.046">  5  6 -1 -1</clus>
<clus scale="   92.571">  7  8 -1 -1</clus>
<clus scale="  204.206">  1  5  2 -1</clus>
<clus scale="  205.332">  2  5  1 -1</clus>
</clustering>
</event>
<event>
 9    1  0.1484717E-005  0.1090587E+03  0.7546771E-02  0.1263306E+00
         -1   -1    0    0    0  501 -0.00000000000E+00  0.00000000000E+00  0.71508292789E+02  0.71508292789E+02  0.00000000000E+00 0.  1.
          1   -1    0    0  502    0  0.00000000000E+00 -0.00000000000E+00 -0.27914459279E+03  0.27914459279E+03  0.00000000000E+00 0. -1.
         23    2    1    2    0    0  0.59440315937E+02  0.49755112625E+01 -0.43159334695E+02  0.11462493845E+03  0.87853522820E+02 0.  0.
         23    2    1    2    0    0 -0.60781884680E+02  0.15083701937E+02 -0.17979758965E+03  0.21075160698E+03  0.90372069987E+02 0.  0.
        -13    1    3    3    0    0  0.52252517845E+02 -0.36289203202E+02 -0.19604324067E+02  0.66569973804E+02  0.00000000000E+00 0.  1.
         13    1    3    3    0    0  0.71877980924E+01  0.41264714464E+02 -0.23555010628E+02  0.48054964644E+02  0.00000000000E+00 0. -1.
        -13    1    4    4    0    0 -0.75195728769E+02 -0.14114477378E+02 -0.11335268187E+03  0.13675688861E+03  0.00000000000E+00 0.  1.
         13    1    4    4    0    0  0.14413844089E+02  0.29198179315E+02 -0.66444907781E+02  0.73994718370E+02  0.00000000000E+00 0. -1.
         21    1    1    2  502  501  0.13415687435E+01 -0.20059213200E+02  0.15320624343E+02  0.25276340145E+02  0.00000000000E+00 0.  1.
<scales pt_clust_5="13000.00000" pt_clust_6="13000.00000" pt_clust_7="13000.00000" pt_clust_8="13000.00000" pt_clust_9="20.10403"></scales>
<clustering>
<clus scale="   20.104">  1  9  2 -1</clus>
<clus scale="   87.854">  5  6 -1 -1</clus>
<clus scale="   90.372">  7  8 -1 -1</clus>
<clus scale="  106.981">  1  5  2 -1</clus>
<clus scale="  109.059">  2  5  1 -1</clus>
</clustering>
</event>
<event>
 9    1  0.1484717E-005  0.9837615E+02  0.7546771E-02  0.1285094E+00
          1   -1    0    0  502    0  0.00000000000E+00  0.00000000000E+00  0.11118482180E+03  0.11118482180E+03  0.00000000000E+00 0. -1.
         -1   -1    0    0    0  501 -0.00000000000E+00 -0.00000000000E+00 -0.11956846133E+03  0.11956846133E+03  0.00000000000E+00 0.  1.
         23    2    1    2    0    0  0.18276138069E+02 -0.10463150337E+02 -0.16815571449E+02  0.93221588367E+02  0.89241281685E+02 0.  0.
         23    2    1    2    0    0 -0.46520450150E+02  0.48369107620E+01  0.22413986662E+02  0.10551773544E+03  0.91891554050E+02 0.  0.
        -11    1    4    4    0    0 -0.54505135232E+02  0.31273603542E+02  0.38365351444E+02  0.73625730805E+02  0.00000000000E+00 0.  1.
         11    1    4    4    0    0  0.79846850821E+01 -0.26436692780E+02 -0.15951364782E+02  0.31892004632E+02  0.00000000000E+00 0. -1.
        -13    1    3    3    0    0  0.45117711937E+02  0.20905605859E+02 -0.35280219888E+01  0.49850769563E+02  0.00000000000E+00 0.  1.
         13    1    3    3    0    0 -0.26841573869E+02 -0.31368756197E+02 -0.13287549461E+02  0.43370818804E+02  0.00000000000E+00 0. -1.
         21    1    1    2  502  501  0.28244312081E+02  0.56262395754E+01 -0.13982054752E+02  0.32013959327E+02  0.00000000000E+00 0.  1.
<scales pt_clust_5="13000.00000" pt_clust_6="13000.00000" pt_clust_7="13000.00000" pt_clust_8="13000.00000" pt_clust_9="28.79923"></scales>
<clustering>
<clus scale="   28.799">  2  9  1 -1</clus>
<clus scale="   89.241">  7  8 -1 -1</clus>
<clus scale="   91.892">  5  6 -1 -1</clus>
<clus scale="   95.905">  2  7  1 -1</clus>
<clus scale="   98.376">  1  5  2 -1</clus>
</clustering>
</event>
<event>
 9    1  0.1484717E-005  0.9633451E+02  0.7546771E-02  0.1288281E+00
          1   -1    0    0  502    0  0.00000000000E+00  0.00000000000E+00  0.69541109076E+02  0.69541109076E+02  0.00000000000E+00 0. -1.
         -1   -1    0    0    0  501 -0.00000000000E+00 -0.00000000000E+00 -0.19789641770E+03  0.19789641770E+03  0.00000000000E+00 0.  1.
         23    2    1    2    0    0  0.45553584029E+01 -0.23854211900E+02 -0.10366745117E+03  0.14095470222E+03  0.92366189332E+02 0.  0.
         23    2    1    2    0    0  0.17342888973E+02  0.33338265593E+02 -0.16278805757E+02  0.10118079572E+03  0.92522095494E+02 0.  0.
        -11    1    3    3    0    0  0.34078653453E+02 -0.38741072850E+02 -0.28751458548E+02  0.59066671781E+02  0.00000000000E+00 0. -1.
         11    1    3    3    0    0 -0.29523295050E+02  0.14886860950E+02 -0.74915992618E+02  0.81888030441E+02  0.00000000000E+00 0.  1.
        -13    1    4    4    0    0 -0.24144256516E+02  0.38215097953E+02 -0.33226308675E+02  0.56101037624E+02  0.00000000000E+00 0.  1.
         13    1    4    4    0    0  0.41487145489E+02 -0.48768323598E+01  0.16947502919E+02  0.45079758095E+02  0.00000000000E+00 0. -1.
         21    1    1    2  502  501 -0.21898247376E+02 -0.94840536936E+01 -0.84090516996E+01  0.25302028833E+02  0.00000000000E+00 0.  1.
<scales pt_clust_5="13000.00000" pt_clust_6="13000.00000" pt_clust_7="13000.00000" pt_clust_8="13000.00000" pt_clust_9="23.86379"></scales>
<clustering>
<clus scale="   23.864">  1  9  2 -1</clus>
<clus scale="   92.366">  5  6 -1 -1</clus>
<clus scale="   92.522">  7  8 -1 -1</clus>
<clus scale="   96.185">  2  5  1 -1</clus>
<clus scale="   23.864">  1  5  2 -1</clus>
</clustering>
</event>
<event>
 9    1  0.1484717E-005  0.2750824E+03  0.7546771E-02  0.1098509E+00
          1   -1    0    0  502    0  0.00000000000E+00  0.00000000000E+00  0.88703053358E+03  0.88703053358E+03  0.00000000000E+00 0. -1.
         -1   -1    0    0    0  501 -0.00000000000E+00 -0.00000000000E+00 -0.22932226494E+03  0.22932226494E+03  0.00000000000E+00 0.  1.
         23    2    1    2    0    0 -0.23509766117E+03 -0.13063676181E+03 -0.10180314035E+03  0.30181165886E+03  0.91594346002E+02 0.  0.
         23    2    1    2    0    0  0.18097497209E+03  0.10220269666E+03  0.51495039791E+03  0.56245415134E+03  0.89350032605E+02 0.  0.
        -11    1    4    4    0    0  0.12176013571E+03  0.42348678446E+02  0.39793960719E+03  0.41829997870E+03  0.00000000000E+00 0. -1.
         11    1    4    4    0    0  0.59214836380E+02  0.59854018213E+02  0.11701079072E+03  0.14415417264E+03  0.00000000000E+00 0.  1.
        -13    1    3    3    0    0 -0.22535429691E+03 -0.95334634409E+02 -0.73387308340E+02  0.25545831104E+03  0.00000000000E+00 0.  1.
         13    1    3    3    0    0 -0.97433642580E+01 -0.35302127398E+02 -0.28415832006E+02  0.46353347824E+02  0.00000000000E+00 0. -1.
         21    1    1    2  502  501  0.54122689081E+02  0.28434065147E+02  0.24456101108E+03  0.25208698831E+03  0.00000000000E+00 0. -1.
<scales pt_clust_5="13000.00000" pt_clust_6="13000.00000" pt_clust_7="13000.00000" pt_clust_8="13000.00000" pt_clust_9="61.13724"></scales>
<clustering>
<clus scale="   61.137">  1  9  2 -1</clus>
<clus scale="   89.350">  5  6 -1 -1</clus>
<clus scale="   91.594">  7  8 -1 -1</clus>
<clus scale="  274.343">  1  5  2 -1</clus>
<clus scale="   61.137">  1  5  2 -1</clus>
</clustering>
</event>
<event>
 9    1  0.1484717E-005  0.1340291E+03  0.7546771E-02  0.1221708E+00
          1   -1    0    0  502    0  0.00000000000E+00  0.00000000000E+00  0.88501794617E+03  0.88501794617E+03  0.00000000000E+00 0. -1.
         -1   -1    0    0    0  501 -0.00000000000E+00 -0.00000000000E+00 -0.30112573130E+02  0.30112573130E+02  0.00000000000E+00 0.  1.
         23    2    1    2    0    0 -0.11409779674E+02  0.85296851602E+02  0.30183011244E+03  0.32663645780E+03  0.90466694542E+02 0.  0.
         23    2    1    2    0    0 -0.28342679462E+01 -0.10800304790E+03  0.54094548798E+03  0.55907305494E+03  0.90928369426E+02 0.  0.
        -11    1    4    4    0    0  0.21538603303E+02 -0.28177776602E+02  0.51309118230E+02  0.62374066246E+02  0.00000000000E+00 0.  1.
         11    1    4    4    0    0 -0.24372871249E+02 -0.79825271299E+02  0.48963636975E+03  0.49669898870E+03  0.00000000000E+00 0. -1.
        -13    1    3    3    0    0  0.36665519830E+02  0.14834488833E+02  0.94078529205E+02  0.10205484830E+03  0.00000000000E+00 0.  1.
         13    1    3    3    0    0 -0.48075299504E+02  0.70462362769E+02  0.20775158324E+03  0.22458160950E+03  0.00000000000E+00 0. -1.
         21    1    1    2  502  501  0.14244047620E+02  0.22706196299E+02  0.12129772613E+02  0.29421006553E+02  0.00000000000E+00 0. -1.
<scales pt_clust_5="13000.00000" pt_clust_6="13000.00000" pt_clust_7="13000.00000" pt_clust_8="13000.00000" pt_clust_9="26.80418"></scales>
<clustering>
<clus scale="   26.804">  2  9  1 -1</clus>
<clus scale="   90.467">  7  8 -1 -1</clus>
<clus scale="   90.928">  5  6 -1 -1</clus>
<clus scale="  133.716">  2  7  1 -1</clus>
<clus scale="  134.029">  1  5  2 -1</clus>
</clustering>
</event>
<event>
 9    1  0.1484717E-005  0.2477184E+03  0.7546771E-02  0.1115079E+00
          1   -1    0    0  502    0  0.00000000000E+00  0.00000000000E+00  0.61537635756E+03  0.61537635756E+03  0.00000000000E+00 0. -1.
         -1   -1    0    0    0  501 -0.00000000000E+00 -0.00000000000E+00 -0.25659878340E+03  0.25659878340E+03  0.00000000000E+00 0.  1.
         23    2    1    2    0    0 -0.19069734659E+03  0.16123443948E+03 -0.10503704272E+03  0.28572652010E+03  0.90801109439E+02 0.  0.
         23    2    1    2    0    0  0.19709983168E+03 -0.10984761162E+03  0.47379284640E+03  0.53351188834E+03  0.96127167141E+02 0.  0.
        -11    1    4    4    0    0  0.12095791392E+03 -0.15198925269E+02  0.20432629341E+03  0.23793078500E+03  0.00000000000E+00 0.  1.
         11    1    4    4    0    0  0.76141917758E+02 -0.94648686356E+02  0.26946655299E+03  0.29558110334E+03  0.00000000000E+00 0. -1.
        -13    1    3    3    0    0 -0.70172648964E+02  0.61398582639E+02  0.66178710732E+01  0.93476108340E+02  0.00000000000E+00 0. -1.
         13    1    3    3    0    0 -0.12052469763E+03  0.99835856838E+02 -0.11165491379E+03  0.19225041176E+03  0.00000000000E+00 0.  1.
         21    1    1    2  502  501 -0.64024850882E+01 -0.51386827852E+02 -0.99782295281E+01  0.52736732516E+02  0.00000000000E+00 0. -1.
<scales pt_clust_5="13000.00000" pt_clust_6="13000.00000" pt_clust_7="13000.00000" pt_clust_8="13000.00000" pt_clust_9="51.78415"></scales>
<clustering>
<clus scale="   51.784">  2  9  1 -1</clus>
<clus scale="   90.801">  7  8 -1 -1</clus>
<clus scale="   96.127">  5  6 -1 -1</clus>
<clus scale="  245.701">  2  7  1 -1</clus>
<clus scale="  247.718">  1  5  2 -1</clus>
</clustering>
</event>
<event>
 9    1  0.1484717E-005  0.1239870E+03  0.7546771E-02  0.1236724E+00
          1   -1    0    0  502    0  0.00000000000E+00  0.00000000000E+00  0.28845162560E+03  0.28845162560E+03  0.00000000000E+00 0. -1.
         -1   -1    0    0    0  501 -0.00000000000E+00 -0.00000000000E+00 -0.76050069273E+02  0.76050069273E+02  0.00000000000E+00 0.  1.
         23    2    1    2    0    0  0.61984644011E+02 -0.40987304460E+02  0.80415706878E+02  0.14191521043E+03  0.90283917832E+02 0.  0.
         23    2    1    2    0    0 -0.83846654510E+02  0.42034865582E+02  0.14683601819E+03  0.19613705346E+03  0.90065176979E+02 0.  0.
        -11    1    3    3    0    0 -0.18188895502E+02 -0.17823083756E+02  0.44054020350E+02  0.50884722099E+02  0.00000000000E+00 0.  1.
         11    1    3    3    0    0  0.80173539513E+02 -0.23164220704E+02  0.36361686528E+02  0.91030488332E+02  0.00000000000E+00 0. -1.
        -11    1    4    4    0    0 -0.36870627266E+02  0.23344992209E+02  0.30782509205E+01  0.43748227907E+02  0.00000000000E+00 0.  1.
         11    1    4    4    0    0 -0.46976027244E+02  0.18689873373E+02  0.14375776727E+03  0.15238882555E+03  0.00000000000E+00 0. -1.
         21    1    1    2  502  501  0.21862010499E+02 -0.10475611221E+01 -0.14850168746E+02  0.26449430980E+02  0.00000000000E+00 0.  1.
<scales pt_clust_5="13000.00000" pt_clust_6="13000.00000" pt_clust_7="13000.00000" pt_clust_8="13000.00000" pt_clust_9="21.88709"></scales>
<clustering>
<clus scale="   21.887">  2  9  1 -1</clus>
<clus scale="   90.065">  7  8 -1 -1</clus>
<clus scale="   90.284">  5  6 -1 -1</clus>
<clus scale="  123.828">  1  7  2 -1</clus>
<clus scale="  123.828">  1  5  2 -1</clus>
</clustering>
</event>
<event>
 9    1  0.1484717E-005  0.1541545E+03  0.7546771E-02  0.1195734E+00
          1   -1    0    0  502    0  0.00000000000E+00  0.00000000000E+00  0.74726583261E+03  0.74726583261E+03  0.00000000000E+00 0. -1.
         -1   -1    0    0    0  501 -0.00000000000E+00 -0.00000000000E+00 -0.56432784464E+02  0.56432784464E+02  0.00000000000E+00 0.  1.
         23    2    1    2    0    0 -0.72928271769E+02  0.11982598101E+03  0.19041278680E+03  0.25296552737E+03  0.89764860111E+02 0.  0.
         23    2    1    2    0    0  0.73422476015E+02 -0.93402395839E+02  0.50235896379E+03  0.52423386975E+03  0.91333204004E+02 0.  0.
        -11    1    3    3    0    0 -0.15512826505E+02  0.68232412632E+02  0.32409348636E+02  0.77114692496E+02  0.00000000000E+00 0.  1.
         11    1    3    3    0    0 -0.57415445265E+02  0.51593568377E+02  0.15800343817E+03  0.17585083487E+03  0.00000000000E+00 0. -1.
        -13    1    4    4    0    0  0.92745326108E+02 -0.80219052631E+02  0.45742059009E+03  0.47357194612E+03  0.00000000000E+00 0.  1.
         13    1    4    4    0    0 -0.19322850092E+02 -0.13183343208E+02  0.44938373706E+02  0.50661923623E+02  0.00000000000E+00 0. -1.
         21    1    1    2  502  501 -0.49420424589E+00 -0.26423585171E+02 -0.19387024507E+01  0.26499219957E+02  0.00000000000E+00 0.  1.
<scales pt_clust_5="13000.00000" pt_clust_6="13000.00000" pt_clust_7="13000.00000" pt_clust_8="13000.00000" pt_clust_9="26.42821"></scales>
<clustering>
<clus scale="   26.428">  2  9  1 -1</clus>
<clus scale="   89.765">  5  6 -1 -1</clus>
<clus scale="   91.333">  7  8 -1 -1</clus>
<clus scale="  153.231">  2  5  1 -1</clus>
<clus scale="  154.155">  1  5  2 -1</clus>
</clustering>
</event>
<event>
 9    1  0.1484717E-005  0.1046752E+03  0.7546771E-02  0.1271364E+00
          4   -1    0    0  502    0  0.00000000000E+00  0.00000000000E+00  0.11352550774E+03  0.11352550774E+03  0.00000000000E+00 0. -1.
         -4   -1    0    0    0  501 -0.00000000000E+00 -0.00000000000E+00 -0.20075482140E+03  0.20075482140E+03  0.00000000000E+00 0.  1.
         23    2    1    2    0    0  0.34616415303E+02  0.24699766794E+02 -0.38798732722E+01  0.10162758992E+03  0.92221141436E+02 0.  0.
         23    2    1    2    0    0 -0.25039027874E+02 -0.53097705536E+02  0.15585324390E+02  0.10927838574E+03  0.90843513828E+02 0.  0.
        -13    1    4    4    0    0 -0.46159909517E+02 -0.43843544648E+02 -0.20126512901E+02  0.66768781443E+02  0.00000000000E+00 0.  1.
         13    1    4    4    0    0  0.21120881643E+02 -0.92541608879E+01  0.35711837291E+02  0.42509604301E+02  0.00000000000E+00 0. -1.
        -13    1    3    3    0    0  0.14440772687E+02 -0.35094277100E+02 -0.63318279754E+01  0.38473838469E+02  0.00000000000E+00 0. -1.
         13    1    3    3    0    0  0.20175642615E+02  0.59794043894E+02  0.24519547032E+01  0.63153751449E+02  0.00000000000E+00 0.  1.
         21    1    1    2  502  501 -0.95773874285E+01  0.28397938741E+02 -0.98934764780E+02  0.10337435348E+03  0.00000000000E+00 0.  1.
<scales pt_clust_5="13000.00000" pt_clust_6="13000.00000" pt_clust_7="13000.00000" pt_clust_8="13000.00000" pt_clust_9="29.96947"></scales>
<clustering>
<clus scale="   29.969">  2  9  1 -1</clus>
<clus scale="   90.844">  5  6 -1 -1</clus>
<clus scale="   92.221">  7  8 -1 -1</clus>
<clus scale="  103.464">  1  5  2 -1</clus>
<clus scale="  103.464">  1  5  2 -1</clus>
</clustering>
</event>
<event>
 9    1  0.1484717E-005  0.9603853E+02  0.7546771E-02  0.1291575E+00
         -2   -1    0    0    0  501 -0.00000000000E+00  0.00000000000E+00  0.59822316831E+02  0.59822316831E+02  0.00000000000E+00 0.  1.
          2   -1    0    0  502    0  0.00000000000E+00 -0.00000000000E+00 -0.30728167544E+03  0.30728167544E+03  0.00000000000E+00 0. -1.
         23    2    1    2    0    0  0.16947836039E+02 -0.12456606987E+02 -0.96854942958E+02  0.13560315522E+03  0.92546958493E+02 0.  0.
         23    2    1    2    0    0 -0.30918684375E+02 -0.88785850142E+01 -0.17364854118E+03  0.19712923915E+03  0.87586110541E+02 0.  0.
        -11    1    3    3    0    0 -0.43171604868E+01  0.19765783561E+02  0.95780924454E+01  0.22384457316E+02  0.00000000000E+00 0.  1.
         11    1    3    3    0    0  0.21264996526E+02 -0.32222390548E+02 -0.10643303540E+03  0.11321869790E+03  0.00000000000E+00 0. -1.
        -11    1    4    4    0    0  0.33855316274E+01  0.36187683779E+02 -0.59998952674E+02  0.70149017126E+02  0.00000000000E+00 0.  1.
         11    1    4    4    0    0 -0.34304216002E+02 -0.45066268793E+02 -0.11364958851E+03  0.12698022203E+03  0.00000000000E+00 0. -1.
         21    1    1    2  502  501  0.13970848335E+02  0.21335192001E+02  0.23044125527E+02  0.34371597900E+02  0.00000000000E+00 0.  1.
<scales pt_clust_5="13000.00000" pt_clust_6="13000.00000" pt_clust_7="13000.00000" pt_clust_8="13000.00000" pt_clust_9="25.50245"></scales>
<clustering>
<clus scale="   25.502">  1  9  2 -1</clus>
<clus scale="   87.586">  7  8 -1 -1</clus>
<clus scale="   91.268">  2  7  1 -1</clus>
<clus scale="   92.547">  5  6 -1 -1</clus>
<clus scale="   91.268">  2  5  1 -1</clus>
</clustering>
</event>
<event>
 9    1  0.1484717E-005  0.1240725E+03  0.7546771E-02  0.1239101E+00
         -2   -1    0    0    0  501 -0.00000000000E+00  0.00000000000E+00  0.21763795808E+02  0.21763795808E+02  0.00000000000E+00 0.  1.
          2   -1    0    0  502    0  0.00000000000E+00 -0.00000000000E+00 -0.90821197699E+03  0.90821197699E+03  0.00000000000E+00 0. -1.
         23    2    1    2    0    0 -0.69495274088E+02 -0.30218830572E+02 -0.31219675470E+03  0.33318026492E+03  0.88314803108E+02 0.  0.
         23    2    1    2    0    0  0.79784273995E+02  0.10504040356E+02 -0.54870135850E+03  0.56292306411E+03  0.96609161332E+02 0.  0.
        -11    1    4    4    0    0  0.74871135049E+02  0.44024535856E+02 -0.45661962550E+03  0.46480676524E+03  0.00000000000E+00 0. -1.
         11    1    4    4    0    0  0.49131389452E+01 -0.33520495500E+02 -0.92081732997E+02  0.98116298873E+02  0.00000000000E+00 0.  1.
        -13    1    3    3    0    0 -0.23415610408E+02 -0.57390744362E+02 -0.18794346866E+03  0.19790082304E+03  0.00000000000E+00 0. -1.
         13    1    3    3    0    0 -0.46079663680E+02  0.27171913790E+02 -0.12425328604E+03  0.13527944188E+03  0.00000000000E+00 0.  1.
         21    1    1    2  502  501 -0.10288999907E+02  0.19714790215E+02 -0.25550067988E+02  0.33872443763E+02  0.00000000000E+00 0. -1.
<scales pt_clust_5="13000.00000" pt_clust_6="13000.00000" pt_clust_7="13000.00000" pt_clust_8="13000.00000" pt_clust_9="22.23818"></scales>
<clustering>
<clus scale="   22.238">  1  9  2 -1</clus>
<clus scale="   88.315">  7  8 -1 -1</clus>
<clus scale="   96.609">  5  6 -1 -1</clus>
<clus scale="  117.729">  1  7  2 -1</clus>
<clus scale="  124.072">  2  5  1 -1</clus>
</clustering>
</event>
<event>
 9    1  0.1484717E-005  0.1024044E+03  0.7546771E-02  0.1276943E+00
         -1   -1    0    0    0  501 -0.00000000000E+00  0.00000000000E+00  0.11469392501E+03  0.11469392501E+03  0.00000000000E+00 0.  1.
          1   -1    0    0  502    0  0.00000000000E+00 -0.00000000000E+00 -0.20144964291E+03  0.20144964291E+03  0.00000000000E+00 0. -1.
         23    2    1    2    0    0 -0.21413281956E+02  0.20655767689E+02  0.59484759726E+02  0.11038137919E+03  0.88093262225E+02 0.  0.
         23    2    1    2    0    0  0.28439793917E+02 -0.39727932597E+02 -0.15250563210E+03  0.18449316184E+03  0.91611289897E+02 0.  0.
        -11    1    3    3    0    0  0.30055460308E+02  0.92746921152E+01  0.75179000546E+00  0.31462927333E+02  0.00000000000E+00 0. -1.
         11    1    3    3    0    0 -0.51468742264E+02  0.11381075574E+02  0.58732969721E+02  0.78918451858E+02  0.00000000000E+00 0.  1.
        -13    1    4    4    0    0  0.30710963647E+02  0.24532201071E+02 -0.52123372861E+02  0.65282755578E+02  0.00000000000E+00 0.  1.
         13    1    4    4    0    0 -0.22711697299E+01 -0.64260133667E+02 -0.10038225924E+03  0.11921040626E+03  0.00000000000E+00 0. -1.
         21    1    1    2  502  501 -0.70265119613E+01  0.19072164908E+02  0.62651544722E+01  0.21269026898E+02  0.00000000000E+00 0.  1.
<scales pt_clust_5="13000.00000" pt_clust_6="13000.00000" pt_clust_7="13000.00000" pt_clust_8="13000.00000" pt_clust_9="20.32534"></scales>
<clustering>
<clus scale="   20.325">  1  9  2 -1</clus>
<clus scale="   88.093">  5  6 -1 -1</clus>
<clus scale="   91.611">  7  8 -1 -1</clus>
<clus scale="   99.270">  1  5  2 -1</clus>
<clus scale="  102.404">  2  5  1 -1</clus>
</clustering>
</event>
<event>
 9    1  0.1484717E-005  0.2466957E+03  0.7546771E-02  0.1115462E+00
         -2   -1    0    0    0  501 -0.00000000000E+00  0.00000000000E+00  0.42951432671E+02  0.42951432671E+02  0.00000000000E+00 0.  1.
          2   -1    0    0  502    0  0.00000000000E+00 -0.00000000000E+00 -0.18974536961E+04  0.18974536961E+04  0.00000000000E+00 0. -1.
         23    2    1    2    0    0 -0.54705384063E+02  0.21514178506E+03 -0.55357913891E+03  0.60324822189E+03  0.90442730230E+02 0.  0.
         23    2    1    2    0    0  0.87446075026E+02 -0.21644147169E+03 -0.12602105265E+04  0.12848964279E+04  0.91293660960E+02 0.  0.
        -11    1    3    3    0    0 -0.63239399301E+02  0.11173235757E+03 -0.22958931163E+03  0.26304865209E+03  0.00000000000E+00 0.  1.
         11    1    3    3    0    0  0.85340152381E+01  0.10340942749E+03 -0.32398982728E+03  0.34019956980E+03  0.00000000000E+00 0. -1.
        -13    1    4    4    0    0 -0.90086938573E+01 -0.90983078425E+02 -0.40816650463E+03  0.41828097330E+03  0.00000000000E+00 0.  1.
         13    1    4    4    0    0  0.96454768883E+02 -0.12545839326E+03 -0.85204402188E+03  0.86661545458E+03  0.00000000000E+00 0. -1.
         21    1    1    2  502  501 -0.32740690963E+02  0.12996866250E+01 -0.40712598032E+02  0.52260479031E+02  0.00000000000E+00 0.  1.
<scales pt_clust_5="13000.00000" pt_clust_6="13000.00000" pt_clust_7="13000.00000" pt_clust_8="13000.00000" pt_clust_9="32.76648"></scales>
<clustering>
<clus scale="   32.766">  1  9  2 -1</clus>
<clus scale="   90.443">  5  6 -1 -1</clus>
<clus scale="   91.294">  7  8 -1 -1</clus>
<clus scale="  246.382">  1  5  2 -1</clus>
<clus scale="  246.696">  2  5  1 -1</clus>
</clustering>
</event>
<event>
 9    1  0.1484717E-005  0.1016785E+03  0.7546771E-02  0.1276873E+00
          2   -1    0    0  502    0  0.00000000000E+00  0.00000000000E+00  0.53297467569E+03  0.53297467569E+03  0.00000000000E+00 0. -1.
         -2   -1    0    0    0  501 -0.00000000000E+00 -0.00000000000E+00 -0.65278867122E+02  0.65278867122E+02  0.00000000000E+00 0.  1.
         23    2    1    2    0    0  0.14138239840E+02  0.16271184322E+02  0.89618656235E+02  0.13006000092E+03  0.91757610204E+02 0.  0.
         23    2    1    2    0    0  0.24342566713E+02 -0.50191623840E+02  0.39872311650E+03  0.41289775067E+03  0.91611512466E+02 0.  0.
        -11    1    3    3    0    0  0.46486105451E+02  0.22826582229E+02  0.80670463896E+02  0.95863103442E+02  0.00000000000E+00 0. -1.
         11    1    3    3    0    0 -0.32347865611E+02 -0.65553979076E+01  0.89481923386E+01  0.34196897483E+02  0.00000000000E+00 0.  1.
        -13    1    4    4    0    0 -0.24345273022E+02 -0.47600551893E+02  0.27016409264E+03  0.27540359804E+03  0.00000000000E+00 0. -1.
         13    1    4    4    0    0  0.48687839735E+02 -0.25910719472E+01  0.12855902386E+03  0.13749415263E+03  0.00000000000E+00 0.  1.
         21    1    1    2  502  501 -0.38480806552E+02  0.33920439518E+02 -0.20645964169E+02  0.55295791219E+02  0.00000000000E+00 0.  1.
<scales pt_clust_5="13000.00000" pt_clust_6="13000.00000" pt_clust_7="13000.00000" pt_clust_8="13000.00000" pt_clust_9="51.29687"></scales>
<clustering>
<clus scale="   51.297">  2  9  1 -1</clus>
<clus scale="   91.612">  7  8 -1 -1</clus>
<clus scale="   91.758">  5  6 -1 -1</clus>
<clus scale="  101.547">  1  7  2 -1</clus>
<clus scale="  101.547">  1  5  2 -1</clus>
</clustering>
</event>
<event>
 9    1  0.1484717E-005  0.1048258E+03  0.7546771E-02  0.1270629E+00
          1   -1    0    0  502    0  0.00000000000E+00  0.00000000000E+00  0.84407906402E+02  0.84407906402E+02  0.00000000000E+00 0. -1.
         -1   -1    0    0    0  501 -0.00000000000E+00 -0.00000000000E+00 -0.26803131680E+03  0.26803131680E+03  0.00000000000E+00 0.  1.
         23    2    1    2    0    0 -0.26715752290E+02  0.28608352618E+02 -0.15597716700E+03  0.18540964515E+03  0.92280499736E+02 0.  0.
         23    2    1    2    0    0  0.49969229793E+02 -0.16189243558E+02  0.23875489189E+02  0.10915516734E+03  0.92659570688E+02 0.  0.
        -11    1    3    3    0    0 -0.61226668182E+02  0.14728498880E+02 -0.10133434681E+03  0.11930751619E+03  0.00000000000E+00 0.  1.
         11    1    3    3    0    0  0.34510915892E+02  0.13879853739E+02 -0.54642820188E+02  0.66102128964E+02  0.00000000000E+00 0. -1.
        -13    1    4    4    0    0  0.21577959428E+01  0.30815073653E+02 -0.11968397716E+02  0.33128045392E+02  0.00000000000E+00 0.  1.
         13    1    4    4    0    0  0.47811433850E+02 -0.47004317211E+02  0.35843886906E+02  0.76027121949E+02  0.00000000000E+00 0. -1.
         21    1    1    2  502  501 -0.23253477503E+02 -0.12419109060E+02 -0.51521732592E+02  0.57874410710E+02  0.00000000000E+00 0.  1.
<scales pt_clust_5="13000.00000" pt_clust_6="13000.00000" pt_clust_7="13000.00000" pt_clust_8="13000.00000" pt_clust_9="26.36207"></scales>
<clustering>
<clus scale="   26.362">  2  9  1 -1</clus>
<clus scale="   92.280">  5  6 -1 -1</clus>
<clus scale="   92.660">  7  8 -1 -1</clus>
<clus scale="  104.491">  2  5  1 -1</clus>
<clus scale="  104.826">  1  5  2 -1</clus>
</clustering>
</event>
<event>
 9    1  0.1484717E-005  0.1028716E+03  0.7546771E-02  0.1275022E+00
         -2   -1    0    0    0  501 -0.00000000000E+00  0.00000000000E+00  0.10520164148E+03  0.10520164148E+03  0.00000000000E+00 0.  1.
          2   -1    0    0  502    0  0.00000000000E+00 -0.00000000000E+00 -0.12908072615E+03  0.12908072615E+03  0.00000000000E+00 0. -1.
         23    2    1    2    0    0 -0.26455946849E+02  0.16711298498E+02 -0.33208871380E+01  0.96655806050E+02  0.91389999073E+02 0.  0.
         23    2    1    2    0    0  0.47065809949E+02 -0.30852592328E+02 -0.26936530066E+02  0.11183071358E+03  0.92808722269E+02 0.  0.
        -11    1    4    4    0    0  0.12139237725E+02 -0.46708691438E+02  0.19105458417E+02  0.51904542091E+02  0.00000000000E+00 0.  1.
         11    1    4    4    0    0  0.34926572224E+02  0.15856099110E+02 -0.46041988483E+02  0.59926171493E+02  0.00000000000E+00 0. -1.
        -13    1    3    3    0    0 -0.30290956288E+02  0.37043246128E+02  0.30688901178E+02  0.56846748122E+02  0.00000000000E+00 0.  1.
         13    1    3    3    0    0  0.38350094382E+01 -0.20331947631E+02 -0.34009788316E+02  0.39809057928E+02  0.00000000000E+00 0. -1.
         21    1    1    2  502  501 -0.20609863100E+02  0.14141293830E+02  0.63783325290E+01  0.25795848000E+02  0.00000000000E+00 0.  1.
<scales pt_clust_5="13000.00000" pt_clust_6="13000.00000" pt_clust_7="13000.00000" pt_clust_8="13000.00000" pt_clust_9="24.99485"></scales>
<clustering>
<clus scale="   24.995">  1  9  2 -1</clus>
<clus scale="   91.390">  7  8 -1 -1</clus>
<clus scale="   92.809">  5  6 -1 -1</clus>
<clus scale="  101.593">  1  7  2 -1</clus>
<clus scale="  102.872">  2  5  1 -1</clus>
</clustering>
</event>
<event>
 9    1  0.1484717E-005  0.1094340E+03  0.7546771E-02  0.1261953E+00
         -3   -1    0    0    0  501 -0.00000000000E+00  0.00000000000E+00  0.31680559670E+03  0.31680559670E+03  0.00000000000E+00 0.  1.
          3   -1    0    0  502    0  0.00000000000E+00 -0.00000000000E+00 -0.86458777909E+02  0.86458777909E+02  0.00000000000E+00 0. -1.
         23    2    1    2    0    0 -0.30835275701E+01 -0.74610775658E+02  0.99303122273E+02  0.15363676222E+03  0.90370728812E+02 0.  0.
         23    2    1    2    0    0  0.93386003246E+01  0.54350846444E+02 -0.99403295505E+01  0.10705802842E+03  0.91221638507E+02 0.  0.
        -13    1    3    3    0    0  0.38651958601E+02 -0.42160308543E+02  0.77804287792E+02  0.96565898323E+02  0.00000000000E+00 0.  1.
         13    1    3    3    0    0 -0.41735486172E+02 -0.32450467115E+02  0.21498834481E+02  0.57070863898E+02  0.00000000000E+00 0. -1.
        -13    1    4    4    0    0 -0.15121183659E+02  0.69922432866E+02  0.94732690802E+01  0.72163284572E+02  0.00000000000E+00 0. -1.
         13    1    4    4    0    0  0.24459783984E+02 -0.15571586423E+02 -0.19413598631E+02  0.34894743845E+02  0.00000000000E+00 0.  1.
         21    1    1    2  502  501 -0.62550727545E+01  0.20259929214E+02  0.14098402607E+03  0.14256958397E+03  0.00000000000E+00 0. -1.
<scales pt_clust_5="13000.00000" pt_clust_6="13000.00000" pt_clust_7="13000.00000" pt_clust_8="13000.00000" pt_clust_9="21.20355"></scales>
<clustering>
<clus scale="   21.204">  1  9  2 -1</clus>
<clus scale="   90.371">  5  6 -1 -1</clus>
<clus scale="   91.222">  7  8 -1 -1</clus>
<clus scale="  108.726">  1  5  2 -1</clus>
<clus scale="  109.434">  2  5  1 -1</clus>
</clustering>
</event>
<event>
 9    1  0.1484717E-005  0.1047842E+03  0.7546771E-02  0.1271248E+00
          2   -1    0    0  502    0  0.00000000000E+00  0.00000000000E+00  0.77086268386E+02  0.77086268386E+02  0.00000000000E+00 0. -1.
         -2   -1    0    0    0  501 -0.00000000000E+00 -0.00000000000E+00 -0.34257186328E+03  0.34257186328E+03  0.00000000000E+00 0.  1.
         23    2    1    2    0    0  0.61732015482E+02 -0.32666854207E+02 -0.76590173849E+02  0.13767190045E+03  0.90606469662E+02 0.  0.
         23    2    1    2    0    0 -0.40349438799E+02  0.17577435077E+02 -0.84136155882E+01  0.99616860824E+02  0.88970144418E+02 0.  0.
        -11    1    3    3    0    0  0.19251398185E+02 -0.70417608484E+01 -0.84926512151E+02  0.87365411886E+02  0.00000000000E+00 0.  1.
         11    1    3    3    0    0  0.42480617297E+02 -0.25625093359E+02  0.83363383019E+01  0.50306488567E+02  0.00000000000E+00 0. -1.
        -13    1    4    4    0    0 -0.12886756812E+02  0.51287889588E+02 -0.16487337546E+02  0.55392674776E+02  0.00000000000E+00 0.  1.
         13    1    4    4    0    0 -0.27462681988E+02 -0.33710454511E+02  0.80737219581E+01  0.44224186047E+02  0.00000000000E+00 0. -1.
         21    1    1    2  502  501 -0.21382576683E+02  0.15089419131E+02 -0.18048180546E+03  0.18236937039E+03  0.00000000000E+00 0.  1.
<scales pt_clust_5="13000.00000" pt_clust_6="13000.00000" pt_clust_7="13000.00000" pt_clust_8="13000.00000" pt_clust_9="26.17069"></scales>
<clustering>
<clus scale="   26.171">  2  9  1 -1</clus>
<clus scale="   88.970">  7  8 -1 -1</clus>
<clus scale="   90.606">  5  6 -1 -1</clus>
<clus scale="  103.373">  1  7  2 -1</clus>
<clus scale="  103.373">  1  5  2 -1</clus>
</clustering>
</event>
<event>
 9    1  0.1484717E-005  0.9966913E+02  0.7546771E-02  0.1282625E+00
          1   -1    0    0  502    0  0.00000000000E+00  0.00000000000E+00  0.12548755872E+03  0.12548755872E+03  0.00000000000E+00 0. -1.
         -1   -1    0    0    0  501 -0.00000000000E+00 -0.00000000000E+00 -0.15206264637E+03  0.15206264637E+03  0.00000000000E+00 0.  1.
         23    2    1    2    0    0  0.57012983028E+02  0.33676567360E+01 -0.40989197520E+02  0.11240787016E+03  0.87713132514E+02 0.  0.
         23    2    1    2    0    0 -0.34320486796E+02  0.70946886439E+01  0.59011738948E+02  0.11402131600E+03  0.91050781148E+02 0.  0.
        -11    1    3    3    0    0  0.51790199808E+02  0.28964644269E+02  0.49651645531E+01  0.59546857791E+02  0.00000000000E+00 0. -1.
         11    1    3    3    0    0  0.52227832198E+01 -0.25596987533E+02 -0.45954362073E+02  0.52861012370E+02  0.00000000000E+00 0.  1.
        -13    1    4    4    0    0 -0.56104502565E+02  0.33100121013E+01  0.69639572929E+02  0.89489337387E+02  0.00000000000E+00 0. -1.
         13    1    4    4    0    0  0.21784015769E+02  0.37846765425E+01 -0.10627833980E+02  0.24531978613E+02  0.00000000000E+00 0.  1.
         21    1    1    2  502  501 -0.22692496232E+02 -0.10462345380E+02 -0.44597629088E+02  0.51121018929E+02  0.00000000000E+00 0.  1.
<scales pt_clust_5="13000.00000" pt_clust_6="13000.00000" pt_clust_7="13000.00000" pt_clust_8="13000.00000" pt_clust_9="24.98820"></scales>
<clustering>
<clus scale="   24.988">  2  9  1 -1</clus>
<clus scale="   87.713">  5  6 -1 -1</clus>
<clus scale="   91.051">  7  8 -1 -1</clus>
<clus scale="   96.630">  2  5  1 -1</clus>
<clus scale="   99.669">  1  5  2 -1</clus>
</clustering>
</event>
<event>
 9    1  0.1484717E-005  0.9332787E+02  0.7546771E-02  0.1295236E+00
          3   -1    0    0  502    0  0.00000000000E+00  0.00000000000E+00  0.19863421572E+03  0.19863421572E+03  0.00000000000E+00 0. -1.
         -3   -1    0    0    0  501 -0.00000000000E+00 -0.00000000000E+00 -0.14281786013E+03  0.14281786013E+03  0.00000000000E+00 0.  1.
         23    2    1    2    0    0 -0.83429693475E+01 -0.14824649217E+02 -0.33218303671E+02  0.97541178104E+02  0.90119089904E+02 0.  0.
         23    2    1    2    0    0  0.27497861336E+02 -0.16976568691E+01  0.15055689785E+03  0.17739110877E+03  0.89672802825E+02 0.  0.
        -13    1    4    4    0    0  0.22586070224E+02  0.42023915488E+02  0.59525644499E+02  0.76285269837E+02  0.00000000000E+00 0.  1.
         13    1    4    4    0    0  0.49117911117E+01 -0.43721572357E+02  0.91031253347E+02  0.10110583894E+03  0.00000000000E+00 0. -1.
        -13    1    3    3    0    0 -0.36350966901E+02 -0.37683898960E+02 -0.32009993896E+02  0.61368629973E+02  0.00000000000E+00 0. -1.
         13    1    3    3    0    0  0.28007997553E+02  0.22859249743E+02 -0.12083097748E+01  0.36172548131E+02  0.00000000000E+00 0.  1.
         21    1    1    2  502  501 -0.19154891989E+02  0.16522306086E+02 -0.61522238579E+02  0.66519788975E+02  0.00000000000E+00 0.  1.
<scales pt_clust_5="13000.00000" pt_clust_6="13000.00000" pt_clust_7="13000.00000" pt_clust_8="13000.00000" pt_clust_9="25.29618"></scales>
<clustering>
<clus scale="   25.296">  2  9  1 -1</clus>
<clus scale="   89.673">  5  6 -1 -1</clus>
<clus scale="   90.119">  7  8 -1 -1</clus>
<clus scale="   92.897">  1  5  2 -1</clus>
<clus scale="   92.897">  1  5  2 -1</clus>
</clustering>
</event>
<event>
 9    1  0.1484717E-005  0.1070207E+03  0.7546771E-02  0.1273451E+00
          1   -1    0    0  502    0  0.00000000000E+00  0.00000000000E+00  0.17632646422E+03  0.17632646422E+03  0.00000000000E+00 0. -1.
         -1   -1    0    0    0  501 -0.00000000000E+00 -0.00000000000E+00 -0.74690243011E+02  0.74690243011E+02  0.00000000000E+00 0.  1.
         23    2    1    2    0    0 -0.45005863047E+01 -0.31597232104E+01  0.49571924155E+02  0.11742689797E+03  0.10630833258E+03 0.  0.
         23    2    1    2    0    0  0.61752153867E+01 -0.23436873246E+02  0.47732397023E+02  0.10659075958E+03  0.92172598911E+02 0.  0.
        -11    1    4    4    0    0  0.35441954458E+02 -0.41548715976E+02  0.47179180044E+02  0.72168573248E+02  0.00000000000E+00 0. -1.
         11    1    4    4    0    0 -0.29266739071E+02  0.18111842730E+02  0.55321697821E+00  0.34422186333E+02  0.00000000000E+00 0.  1.
        -13    1    3    3    0    0  0.18139421702E+02 -0.36687437831E+02 -0.12977035171E+02  0.42934952616E+02  0.00000000000E+00 0.  1.
         13    1    3    3    0    0 -0.22640008007E+02  0.33527714621E+02  0.62548959326E+02  0.74491945357E+02  0.00000000000E+00 0. -1.
         21    1    1    2  502  501 -0.16746290820E+01  0.26596596456E+02  0.43319000328E+01  0.26999049678E+02  0.00000000000E+00 0. -1.
<scales pt_clust_5="13000.00000" pt_clust_6="13000.00000" pt_clust_7="13000.00000" pt_clust_8="13000.00000" pt_clust_9="26.64927"></scales>
<clustering>
<clus scale="   26.649">  2  9  1 -1</clus>
<clus scale="   92.173">  5  6 -1 -1</clus>
<clus scale="   92.993">  1  5  2 -1</clus>
<clus scale="  106.308">  7  8 -1 -1</clus>
<clus scale="   92.993">  1  5  2 -1</clus>
</clustering>
</event>
<event>
 9    1  0.1484717E-005  0.1113079E+03  0.7546771E-02  0.1258712E+00
          1   -1    0    0  502    0  0.00000000000E+00  0.00000000000E+00  0.16322067917E+03  0.16322067917E+03  0.00000000000E+00 0. -1.
         -1   -1    0    0    0  501 -0.00000000000E+00 -0.00000000000E+00 -0.11677003348E+03  0.11677003348E+03  0.00000000000E+00 0.  1.
         23    2    1    2    0    0 -0.60336389207E+02 -0.47924875798E+02  0.15753081147E+02  0.12002270358E+03  0.90664305145E+02 0.  0.
         23    2    1    2    0    0  0.33931484402E+02  0.42322145456E+02  0.57967005321E+02  0.12159833373E+03  0.92105762197E+02 0.  0.
        -11    1    4    4    0    0 -0.24062545589E+02 -0.81280002218E+01  0.31140660746E+02  0.40184714003E+02  0.00000000000E+00 0.  1.
         11    1    4    4    0    0  0.57994029991E+02  0.50450145678E+02  0.26826344575E+02  0.81413619725E+02  0.00000000000E+00 0. -1.
        -11    1    3    3    0    0 -0.90107058434E+01 -0.39233257871E+02  0.44947740212E+02  0.60338550639E+02  0.00000000000E+00 0. -1.
         11    1    3    3    0    0 -0.51325683364E+02 -0.86916179266E+01 -0.29194659066E+02  0.59684152946E+02  0.00000000000E+00 0.  1.
         21    1    1    2  502  501  0.26404904805E+02  0.56027303420E+01 -0.27269440781E+02  0.38369675339E+02  0.00000000000E+00 0. -1.
<scales pt_clust_5="13000.00000" pt_clust_6="13000.00000" pt_clust_7="13000.00000" pt_clust_8="13000.00000" pt_clust_9="26.99277"></scales>
<clustering>
<clus scale="   26.993">  2  9  1 -1</clus>
<clus scale="   90.664">  7  8 -1 -1</clus>
<clus scale="   92.106">  5  6 -1 -1</clus>
<clus scale="  110.118">  2  7  1 -1</clus>
<clus scale="  111.308">  1  5  2 -1</clus>
</clustering>
</event>
<event>
 9    1  0.1484717E-005  0.1032915E+03  0.7546771E-02  0.1275357E+00
         -2   -1    0    0    0  501 -0.00000000000E+00  0.00000000000E+00  0.40025699918E+02  0.40025699918E+02  0.00000000000E+00 0.  1.
          2   -1    0    0  502    0  0.00000000000E+00 -0.00000000000E+00 -0.48642785837E+03  0.48642785837E+03  0.00000000000E+00 0. -1.
         23    2    1    2    0    0  0.25855625563E+02  0.37267030610E+02 -0.83820951142E+02  0.13271372523E+03  0.92356028883E+02 0.  0.
         23    2    1    2    0    0  0.13552691011E+02 -0.59963656032E+02 -0.24133696751E+03  0.26424729310E+03  0.88339031821E+02 0.  0.
        -13    1    4    4    0    0  0.49517454252E+02 -0.47837249661E+02 -0.17064141061E+03  0.18400780350E+03  0.00000000000E+00 0.  1.
         13    1    4    4    0    0 -0.35964763241E+02 -0.12126406370E+02 -0.70695556897E+02  0.80239489601E+02  0.00000000000E+00 0. -1.
        -13    1    3    3    0    0  0.27347623620E+02  0.14023149606E+01  0.12366641503E+02  0.30046511061E+02  0.00000000000E+00 0.  1.
         13    1    3    3    0    0 -0.14919980567E+01  0.35864715650E+02 -0.96187592646E+02  0.10266721417E+03  0.00000000000E+00 0. -1.
         21    1    1    2  502  501 -0.39408316574E+02  0.22696625421E+02 -0.12124423980E+03  0.12949253996E+03  0.00000000000E+00 0. -1.
<scales pt_clust_5="13000.00000" pt_clust_6="13000.00000" pt_clust_7="13000.00000" pt_clust_8="13000.00000" pt_clust_9="45.47694"></scales>
<clustering>
<clus scale="   45.477">  2  9  1 -1</clus>
<clus scale="   88.339">  5  6 -1 -1</clus>
<clus scale="   92.356">  7  8 -1 -1</clus>
<clus scale="   99.716">  2  5  1 -1</clus>
<clus scale="   45.477">  2  5  1 -1</clus>
</clustering>
</event>
<event>
 9    1  0.1484717E-005  0.1242394E+03  0.7546771E-02  0.1237241E+00
          4   -1    0    0  502    0  0.00000000000E+00  0.00000000000E+00  0.10227442073E+03  0.10227442073E+03  0.00000000000E+00 0. -1.
         -4   -1    0    0    0  501 -0.00000000000E+00 -0.00000000000E+00 -0.23944520368E+03  0.23944520368E+03  0.00000000000E+00 0.  1.
         23    2    1    2    0    0  0.16209230600E+02  0.70231947154E+02 -0.52486609453E+02  0.12832423661E+03  0.92287593814E+02 0.  0.
         23    2    1    2    0    0  0.26250022350E+02 -0.93779013996E+02 -0.21378012327E+02  0.13361492302E+03  0.88951453630E+02 0.  0.
        -13    1    4    4    0    0 -0.20781611336E+02 -0.75189799630E+02  0.16968566926E+01  0.78027307148E+02  0.00000000000E+00 0. -1.
         13    1    4    4    0    0  0.47031633686E+02 -0.18589214366E+02 -0.23074869019E+02  0.55587615871E+02  0.00000000000E+00 0.  1.
        -13    1    3    3    0    0 -0.36324000847E+02  0.40455519987E+02 -0.12164739379E+02  0.55714118670E+02  0.00000000000E+00 0.  1.
         13    1    3    3    0    0  0.52533231447E+02  0.29776427166E+02 -0.40321870074E+02  0.72610117940E+02  0.00000000000E+00 0. -1.
         21    1    1    2  502  501 -0.42459252950E+02  0.23547066842E+02 -0.63306161175E+02  0.79780464780E+02  0.00000000000E+00 0.  1.
<scales pt_clust_5="13000.00000" pt_clust_6="13000.00000" pt_clust_7="13000.00000" pt_clust_8="13000.00000" pt_clust_9="48.55154"></scales>
<clustering>
<clus scale="   48.552">  2  9  1 -1</clus>
<clus scale="   88.951">  5  6 -1 -1</clus>
<clus scale="   92.288">  7  8 -1 -1</clus>
<clus scale="  121.782">  1  5  2 -1</clus>
<clus scale="  121.782">  1  5  2 -1</clus>
</clustering>
</event>
<event>
 9    1  0.1484717E-005  0.1005267E+03  0.7546771E-02  0.1287295E+00
         -2   -1    0    0    0  501 -0.00000000000E+00  0.00000000000E+00  0.19219501073E+03  0.19219501073E+03  0.00000000000E+00 0.  1.
          2   -1    0    0  502    0  0.00000000000E+00 -0.00000000000E+00 -0.57789166913E+02  0.57789166913E+02  0.00000000000E+00 0. -1.
         23    2    1    2    0    0 -0.30830765083E+02 -0.20168843983E+01  0.62511892974E+02  0.10274417765E+03  0.75458766093E+02 0.  0.
         23    2    1    2    0    0  0.53327227016E+02  0.17081219565E+01  0.56879151848E+02  0.12019133417E+03  0.91454951055E+02 0.  0.
        -11    1    3    3    0    0 -0.48601354911E+02 -0.22905535205E+02  0.36567604241E+02  0.64991883509E+02  0.00000000000E+00 0. -1.
         11    1    3    3    0    0  0.17770589827E+02  0.20888650807E+02  0.25944288733E+02  0.37752294145E+02  0.00000000000E+00 0.  1.
        -13    1    4    4    0    0 -0.24170270002E+02 -0.18748554033E+01  0.42846221010E+00  0.24246661928E+02  0.00000000000E+00 0. -1.
         13    1    4    4    0    0  0.77497497018E+02  0.35829773598E+01  0.56450689638E+02  0.95944672241E+02  0.00000000000E+00 0.  1.
         21    1    1    2  502  501 -0.22496461933E+02  0.30876244184E+00  0.15014798991E+02  0.27048665817E+02  0.00000000000E+00 0. -1.
<scales pt_clust_5="13000.00000" pt_clust_6="13000.00000" pt_clust_7="13000.00000" pt_clust_8="13000.00000" pt_clust_9="22.49858"></scales>
<clustering>
<clus scale="   22.499">  1  9  2 -1</clus>
<clus scale="   75.459">  5  6 -1 -1</clus>
<clus scale="   86.230">  1  5  2 -1</clus>
<clus scale="   91.455">  7  8 -1 -1</clus>
<clus scale="  100.527">  2  5  1 -1</clus>
</clustering>
</event>
<event>
 9    1  0.1484717E-005  0.1404011E+03  0.7546771E-02  0.1214213E+00
         -1   -1    0    0    0  501 -0.00000000000E+00  0.00000000000E+00  0.36293705228E+02  0.36293705228E+02  0.00000000000E+00 0.  1.
          1   -1    0    0  502    0  0.00000000000E+00 -0.00000000000E+00 -0.72851995774E+03  0.72851995774E+03  0.00000000000E+00 0. -1.
         23    2    1    2    0    0 -0.11094155860E+03  0.36622630758E+01 -0.17557171207E+03  0.22770525011E+03  0.93288869940E+02 0.  0.
         23    2    1    2    0    0  0.90796721697E+02 -0.43665814337E+00 -0.46144493225E+03  0.47824994007E+03  0.86875453047E+02 0.  0.
        -11    1    4    4    0    0  0.74841314544E+02 -0.25630254343E+02 -0.41884043141E+03  0.42624574987E+03  0.00000000000E+00 0. -1.
         11    1    4    4    0    0  0.15955407153E+02  0.25193596200E+02 -0.42604500839E+02  0.52004190203E+02  0.00000000000E+00 0.  1.
        -13    1    3    3    0    0 -0.39161693965E+01 -0.29056544532E+02 -0.60258411415E+02  0.67012650367E+02  0.00000000000E+00 0. -1.
         13    1    3    3    0    0 -0.10702538920E+03  0.32718807607E+02 -0.11531330065E+03  0.16069259975E+03  0.00000000000E+00 0.  1.
         21    1    1    2  502  501  0.20144836904E+02 -0.32256049325E+01 -0.55209608197E+02  0.58858472783E+02  0.00000000000E+00 0. -1.
<scales pt_clust_5="13000.00000" pt_clust_6="13000.00000" pt_clust_7="13000.00000" pt_clust_8="13000.00000" pt_clust_9="20.40145"></scales>
<clustering>
<clus scale="   20.401">  2  9  1 -1</clus>
<clus scale="   86.875">  5  6 -1 -1</clus>
<clus scale="   93.289">  7  8 -1 -1</clus>
<clus scale="  136.224">  2  5  1 -1</clus>
<clus scale="   20.401">  2  5  1 -1</clus>
</clustering>
</event>
<event>
 9    1  0.1484717E-005  0.2643314E+03  0.7546771E-02  0.1104572E+00
         -1   -1    0    0    0  501 -0.00000000000E+00  0.00000000000E+00  0.23501468659E+03  0.23501468659E+03  0.00000000000E+00 0.  1.
          1   -1    0    0  502    0  0.00000000000E+00 -0.00000000000E+00 -0.50432916062E+03  0.50432916062E+03  0.00000000000E+00 0. -1.
         23    2    1    2    0    0  0.11748176269E+03  0.16291310627E+03  0.26623491410E+02  0.22154671842E+03  0.89618599568E+02 0.  0.
         23    2    1    2    0    0 -0.13644487094E+03 -0.23187271964E+03 -0.33287647405E+03  0.43730190427E+03  0.89688614573E+02 0.  0.
        -13    1    4    4    0    0  0.11984758268E+02 -0.23605909847E+02 -0.19879049343E+02  0.33106646058E+02  0.00000000000E+00 0.  1.
         13    1    4    4    0    0 -0.14842962921E+03 -0.20826680979E+03 -0.31299742471E+03  0.40419525822E+03  0.00000000000E+00 0. -1.
        -13    1    3    3    0    0  0.77271501787E+02  0.13083076000E+03  0.56439800237E+02  0.16208955488E+03  0.00000000000E+00 0.  1.
         13    1    3    3    0    0  0.40210260905E+02  0.32082346269E+02 -0.29816308827E+02  0.59457163541E+02  0.00000000000E+00 0. -1.
         21    1    1    2  502  501  0.18963108251E+02  0.68959613376E+02  0.36938508616E+02  0.80495224519E+02  0.00000000000E+00 0.  1.
<scales pt_clust_5="13000.00000" pt_clust_6="13000.00000" pt_clust_7="13000.00000" pt_clust_8="13000.00000" pt_clust_9="71.51942"></scales>
<clustering>
<clus scale="   71.519">  1  9  2 -1</clus>
<clus scale="   89.619">  7  8 -1 -1</clus>
<clus scale="   89.689">  5  6 -1 -1</clus>
<clus scale="  264.308">  1  7  2 -1</clus>
<clus scale="  264.331">  2  5  1 -1</clus>
</clustering>
</event>
<event>
 9    1  0.1484717E-005  0.1085954E+03  0.7546771E-02  0.1264456E+00
         -1   -1    0    0    0  501 -0.00000000000E+00  0.00000000000E+00  0.16705221305E+03  0.16705221305E+03  0.00000000000E+00 0.  1.
          1   -1    0    0  502    0  0.00000000000E+00 -0.00000000000E+00 -0.16246227584E+03  0.16246227584E+03  0.00000000000E+00 0. -1.
         23    2    1    2    0    0  0.31683421443E+02 -0.44011800651E+02  0.58648751644E+02  0.12039250964E+03  0.90076648013E+02 0.  0.
         23    2    1    2    0    0  0.81741767005E+00  0.58524723507E+02 -0.10157710805E+03  0.14975096190E+03  0.93175266454E+02 0.  0.
        -13    1    4    4    0    0 -0.43691990989E+02  0.22486276481E+02 -0.28150533948E+02  0.56631045092E+02  0.00000000000E+00 0. -1.
         13    1    4    4    0    0  0.44509408659E+02  0.36038447027E+02 -0.73426574099E+02  0.93119916813E+02  0.00000000000E+00 0.  1.
        -13    1    3    3    0    0  0.26367487489E+02  0.24704263240E+02  0.22520307448E+02  0.42575923552E+02  0.00000000000E+00 0. -1.
         13    1    3    3    0    0  0.53159339540E+01 -0.68716063891E+02  0.36128444196E+02  0.77816586089E+02  0.00000000000E+00 0.  1.
         21    1    1    2  502  501 -0.32500839113E+02 -0.14512922857E+02  0.47518293616E+02  0.59371017349E+02  0.00000000000E+00 0. -1.
<scales pt_clust_5="13000.00000" pt_clust_6="13000.00000" pt_clust_7="13000.00000" pt_clust_8="13000.00000" pt_clust_9="35.59395"></scales>
<clustering>
<clus scale="   35.594">  1  9  2 -1</clus>
<clus scale="   90.077">  7  8 -1 -1</clus>
<clus scale="   93.175">  5  6 -1 -1</clus>
<clus scale="  105.949">  1  7  2 -1</clus>
<clus scale="  108.595">  2  5  1 -1</clus>
</clustering>
</event>
<event>
 9    1  0.1484717E-005  0.1307966E+03  0.7546771E-02  0.1226905E+00
          1   -1    0    0  502    0  0.00000000000E+00  0.00000000000E+00  0.71314792332E+03  0.71314792332E+03  0.00000000000E+00 0. -1.
         -1   -1    0    0    0  501 -0.00000000000E+00 -0.00000000000E+00 -0.39558934155E+02  0.39558934155E+02  0.00000000000E+00 0.  1.
         23    2    1    2    0    0 -0.62836010015E+02  0.60753788898E+02  0.18895278992E+03  0.22697008001E+03  0.90403945589E+02 0.  0.
         23    2    1    2    0    0  0.80425903921E+02 -0.50583327121E+02  0.48745428850E+03  0.50522375020E+03  0.92802776814E+02 0.  0.
        -13    1    3    3    0    0 -0.26007069451E+02  0.78474017342E+02  0.10537456009E+03  0.13393407697E+03  0.00000000000E+00 0. -1.
         13    1    3    3    0    0 -0.36828940563E+02 -0.17720228444E+02  0.83578229832E+02  0.93036003037E+02  0.00000000000E+00 0.  1.
        -13    1    4    4    0    0  0.52399062807E+02  0.20606217167E+02  0.20629831610E+03  0.21384403942E+03  0.00000000000E+00 0. -1.
         13    1    4    4    0    0  0.28026841114E+02 -0.71189544288E+02  0.28115597240E+03  0.29137971078E+03  0.00000000000E+00 0.  1.
         21    1    1    2  502  501 -0.17589893906E+02 -0.10170461777E+02 -0.28180892654E+01  0.20513027263E+02  0.00000000000E+00 0. -1.
<scales pt_clust_5="13000.00000" pt_clust_6="13000.00000" pt_clust_7="13000.00000" pt_clust_8="13000.00000" pt_clust_9="20.31853"></scales>
<clustering>
<clus scale="   20.319">  2  9  1 -1</clus>
<clus scale="   90.404">  5  6 -1 -1</clus>
<clus scale="   92.803">  7  8 -1 -1</clus>
<clus scale="  129.106">  2  5  1 -1</clus>
<clus scale="  130.797">  1  5  2 -1</clus>
</clustering>
</event>
<event>
 9    1  0.1484717E-005  0.1111558E+03  0.7546771E-02  0.1263784E+00
         -2   -1    0    0    0  501 -0.00000000000E+00  0.00000000000E+00  0.94724300344E+02  0.94724300344E+02  0.00000000000E+00 0.  1.
          2   -1    0    0  502    0  0.00000000000E+00 -0.00000000000E+00 -0.18102825710E+03  0.18102825710E+03  0.00000000000E+00 0. -1.
         23    2    1    2    0    0 -0.37861251801E+02 -0.59093990085E+01 -0.88220328971E+01  0.10462956434E+03  0.96959383682E+02 0.  0.
         23    2    1    2    0    0  0.63561998379E+01 -0.16935959409E+02 -0.39440108926E+02  0.11670187236E+03  0.10833548275E+03 0.  0.
        -11    1    4    4    0    0 -0.44646128239E+01  0.20087079441E+02  0.30522486645E+02  0.36810945642E+02  0.00000000000E+00 0. -1.
         11    1    4    4    0    0  0.10820812662E+02 -0.37023038849E+02 -0.69962595571E+02  0.79890926715E+02  0.00000000000E+00 0.  1.
        -13    1    3    3    0    0 -0.24185373526E+02  0.36805786346E+02 -0.31716810269E+02  0.54272960623E+02  0.00000000000E+00 0. -1.
         13    1    3    3    0    0 -0.13675878275E+02 -0.42715185355E+02  0.22894777372E+02  0.50356603712E+02  0.00000000000E+00 0.  1.
         21    1    1    2  502  501  0.31505051963E+02  0.22845358417E+02 -0.38041814932E+02  0.54421120750E+02  0.00000000000E+00 0. -1.
<scales pt_clust_5="13000.00000" pt_clust_6="13000.00000" pt_clust_7="13000.00000" pt_clust_8="13000.00000" pt_clust_9="38.91630"></scales>
<clustering>
<clus scale="   38.916">  2  9  1 -1</clus>
<clus scale="   96.959">  7  8 -1 -1</clus>
<clus scale="  100.101">  1  7  2 -1</clus>
<clus scale="  108.335">  5  6 -1 -1</clus>
<clus scale="   38.916">  2  5  1 -1</clus>
</clustering>
</event>
<event>
 9    1  0.1484717E-005  0.9439356E+02  0.7546771E-02  0.1296352E+00
         -1   -1    0    0    0  501 -0.00000000000E+00  0.00000000000E+00  0.30676642931E+03  0.30676642931E+03  0.00000000000E+00 0.  1.
          1   -1    0    0  502    0  0.00000000000E+00 -0.00000000000E+00 -0.14064527902E+03  0.14064527902E+03  0.00000000000E+00 0. -1.
         23    2    1    2    0    0  0.27751256195E+02  0.22953761386E+02  0.23901152722E+03  0.25591836284E+03  0.84087400454E+02 0.  0.
         23    2    1    2    0    0 -0.25618556168E+02  0.21619986121E+01 -0.11106418767E+03  0.14574851369E+03  0.90809640467E+02 0.  0.
        -13    1    4    4    0    0  0.99667993455E+00  0.44342332660E+02 -0.48188245309E+02  0.65493074615E+02  0.00000000000E+00 0.  1.
         13    1    4    4    0    0 -0.26615236103E+02 -0.42180334048E+02 -0.62875942361E+02  0.80255439074E+02  0.00000000000E+00 0. -1.
        -13    1    3    3    0    0 -0.26849644199E+02 -0.38741282388E+01  0.10980210999E+03  0.11310356149E+03  0.00000000000E+00 0.  1.
         13    1    3    3    0    0  0.54600900394E+02  0.26827889625E+02  0.12920941723E+03  0.14281480136E+03  0.00000000000E+00 0. -1.
         21    1    1    2  502  501 -0.21327000275E+01 -0.25115759998E+02  0.38173810736E+02  0.45744831793E+02  0.00000000000E+00 0. -1.
<scales pt_clust_5="13000.00000" pt_clust_6="13000.00000" pt_clust_7="13000.00000" pt_clust_8="13000.00000" pt_clust_9="25.20615"></scales>
<clustering>
<clus scale="   25.206">  1  9  2 -1</clus>
<clus scale="   84.087">  7  8 -1 -1</clus>
<clus scale="   87.946">  1  7  2 -1</clus>
<clus scale="   90.810">  5  6 -1 -1</clus>
<clus scale="   94.394">  2  5  1 -1</clus>
</clustering>
</event>
<event>
 9    1  0.1484717E-005  0.1075450E+03  0.7546771E-02  0.1265295E+00
          2   -1    0    0  502    0  0.00000000000E+00  0.00000000000E+00  0.55529659648E+03  0.55529659648E+03  0.00000000000E+00 0. -1.
         -2   -1    0    0    0  501 -0.00000000000E+00 -0.00000000000E+00 -0.41435607623E+02  0.41435607623E+02  0.00000000000E+00 0.  1.
         23    2    1    2    0    0 -0.69949526751E+02  0.12803353747E+02  0.24840116855E+03  0.27511628401E+03  0.94493211564E+02 0.  0.
         23    2    1    2    0    0  0.30707066096E+02 -0.23523664047E+02  0.26141425647E+03  0.28073484429E+03  0.94754169482E+02 0.  0.
        -13    1    4    4    0    0  0.42435875559E+02  0.19986481504E+02  0.71250906734E+02  0.85305068359E+02  0.00000000000E+00 0.  1.
         13    1    4    4    0    0 -0.11728809463E+02 -0.43510145551E+02  0.19016334974E+03  0.19542977593E+03  0.00000000000E+00 0. -1.
        -13    1    3    3    0    0 -0.39701979808E+02 -0.29866818978E+02  0.19145190924E+03  0.19779309297E+03  0.00000000000E+00 0.  1.
         13    1    3    3    0    0 -0.30247546943E+02  0.42670172725E+02  0.56949259314E+02  0.77323191042E+02  0.00000000000E+00 0. -1.
         21    1    1    2  502  501  0.39242460655E+02  0.10720310300E+02  0.40455638262E+01  0.40881075791E+02  0.00000000000E+00 0.  1.
<scales pt_clust_5="13000.00000" pt_clust_6="13000.00000" pt_clust_7="13000.00000" pt_clust_8="13000.00000" pt_clust_9="40.68041"></scales>
<clustering>
<clus scale="   40.680">  2  9  1 -1</clus>
<clus scale="   94.493">  7  8 -1 -1</clus>
<clus scale="   94.754">  5  6 -1 -1</clus>
<clus scale="  107.315">  2  7  1 -1</clus>
<clus scale="  107.545">  1  5  2 -1</clus>
</clustering>
</event>
<event>
 9    1  0.1484717E-005  0.1121611E+03  0.7546771E-02  0.1258717E+00
          1   -1    0    0  502    0  0.00000000000E+00  0.00000000000E+00  0.32746689476E+03  0.32746689476E+03  0.00000000000E+00 0. -1.
         -1   -1    0    0    0  501 -0.00000000000E+00 -0.00000000000E+00 -0.83609271555E+02  0.83609271555E+02  0.00000000000E+00 0.  1.
         23    2    1    2    0    0  0.35104439652E+01 -0.80410089992E+01 -0.85814669444E+01  0.91869313257E+02  0.91045857132E+02 0.  0.
         23    2    1    2    0    0 -0.36968478448E+02  0.63052460070E+02  0.20918893495E+03  0.24164219780E+03  0.96377695210E+02 0.  0.
        -13    1    3    3    0    0  0.10844331581E+02 -0.36872785159E+02 -0.35074519130E+02  0.52032909827E+02  0.00000000000E+00 0.  1.
         13    1    3    3    0    0 -0.73338876159E+01  0.28831776160E+02  0.26493052186E+02  0.39836403430E+02  0.00000000000E+00 0. -1.
        -13    1    4    4    0    0 -0.55951200255E+02  0.40763425809E+02  0.66539101717E+02  0.96018986409E+02  0.00000000000E+00 0. -1.
         13    1    4    4    0    0  0.18982721807E+02  0.22289034262E+02  0.14264983323E+03  0.14562321139E+03  0.00000000000E+00 0.  1.
         21    1    1    2  502  501  0.33458034483E+02 -0.55011451071E+02  0.43250155205E+02  0.77564655260E+02  0.00000000000E+00 0.  1.
<scales pt_clust_5="13000.00000" pt_clust_6="13000.00000" pt_clust_7="13000.00000" pt_clust_8="13000.00000" pt_clust_9="64.38711"></scales>
<clustering>
<clus scale="   64.387">  2  9  1 -1</clus>
<clus scale="   91.046">  5  6 -1 -1</clus>
<clus scale="   96.378">  7  8 -1 -1</clus>
<clus scale="  107.614">  2  5  1 -1</clus>
<clus scale="  112.161">  1  5  2 -1</clus>
</clustering>
</event>
<event>
 9    1  0.1484717E-005  0.1224267E+03  0.7546771E-02  0.1239432E+00
          4   -1    0    0  502    0  0.00000000000E+00  0.00000000000E+00  0.41823909023E+03  0.41823909023E+03  0.00000000000E+00 0. -1.
         -4   -1    0    0    0  501 -0.00000000000E+00 -0.00000000000E+00 -0.14053437013E+03  0.14053437013E+03  0.00000000000E+00 0.  1.
         23    2    1    2    0    0  0.35726289440E+02 -0.42970417607E+02 -0.92958809523E+02  0.14198686980E+03  0.91630270000E+02 0.  0.
         23    2    1    2    0    0 -0.49864811077E+02  0.66794189046E+02  0.36902113248E+03  0.38903470148E+03  0.90683182907E+02 0.  0.
        -11    1    3    3    0    0 -0.20799786703E+02 -0.10892140769E+02 -0.68719851659E+02  0.72620161591E+02  0.00000000000E+00 0. -1.
         11    1    3    3    0    0  0.56526076143E+02 -0.32078276838E+02 -0.24238957864E+02  0.69366708206E+02  0.00000000000E+00 0.  1.
        -13    1    4    4    0    0  0.23199572687E+02  0.28496174586E+02  0.72894339356E+02  0.81632327230E+02  0.00000000000E+00 0.  1.
         13    1    4    4    0    0 -0.73064383764E+02  0.38298014460E+02  0.29612679313E+03  0.30740237425E+03  0.00000000000E+00 0. -1.
         21    1    1    2  502  501  0.14138521636E+02 -0.23823771439E+02  0.16423971389E+01  0.27751889089E+02  0.00000000000E+00 0.  1.
<scales pt_clust_5="13000.00000" pt_clust_6="13000.00000" pt_clust_7="13000.00000" pt_clust_8="13000.00000" pt_clust_9="27.70325"></scales>
<clustering>
<clus scale="   27.703">  2  9  1 -1</clus>
<clus scale="   90.683">  7  8 -1 -1</clus>
<clus scale="   91.630">  5  6 -1 -1</clus>
<clus scale="  121.719">  1  7  2 -1</clus>
<clus scale="  121.719">  1  5  2 -1</clus>
</clustering>
</event>
<event>
 9    1  0.1484717E-005  0.1240156E+03  0.7546771E-02  0.1239933E+00
          2   -1    0    0  502    0  0.00000000000E+00  0.00000000000E+00  0.32676663895E+03  0.32676663895E+03  0.00000000000E+00 0. -1.
         -2   -1    0    0    0  501 -0.00000000000E+00 -0.00000000000E+00 -0.12714745786E+03  0.12714745786E+03  0.00000000000E+00 0.  1.
         23    2    1    2    0    0  0.84835871268E+02  0.43423309199E+01  0.12987668510E+00  0.12451550853E+03  0.91039080096E+02 0.  0.
         23    2    1    2    0    0 -0.66637033579E+02  0.19989575912E+02  0.24536955601E+03  0.27436917006E+03  0.10115406604E+03 0.  0.
        -11    1    4    4    0    0 -0.20482232295E+02  0.34065040979E+02  0.21167823516E+02  0.45033605331E+02  0.00000000000E+00 0.  1.
         11    1    4    4    0    0 -0.46154801284E+02 -0.14075465067E+02  0.22420173249E+03  0.22933556473E+03  0.00000000000E+00 0. -1.
        -11    1    3    3    0    0  0.20582954545E+02 -0.32555788983E+02  0.25506365578E+02  0.46196451153E+02  0.00000000000E+00 0. -1.
         11    1    3    3    0    0  0.64252916723E+02  0.36898119903E+02 -0.25376488893E+02  0.78319057376E+02  0.00000000000E+00 0.  1.
         21    1    1    2  502  501 -0.18198837689E+02 -0.24331906832E+02 -0.45880251593E+02  0.55029418220E+02  0.00000000000E+00 0. -1.
<scales pt_clust_5="13000.00000" pt_clust_6="13000.00000" pt_clust_7="13000.00000" pt_clust_8="13000.00000" pt_clust_9="30.38485"></scales>
<clustering>
<clus scale="   30.385">  2  9  1 -1</clus>
<clus scale="   91.039">  7  8 -1 -1</clus>
<clus scale="  101.154">  5  6 -1 -1</clus>
<clus scale="  115.913">  2  7  1 -1</clus>
<clus scale="  124.016">  1  5  2 -1</clus>
</clustering>
</event>
<event>
 9    1  0.1484717E-005  0.1153487E+03  0.7546771E-02  0.1251453E+00
          1   -1    0    0  502    0  0.00000000000E+00  0.00000000000E+00  0.42994264453E+02  0.42994264453E+02  0.00000000000E+00 0. -1.
         -1   -1    0    0    0  501 -0.00000000000E+00 -0.00000000000E+00 -0.39743866736E+03  0.39743866736E+03  0.00000000000E+00 0.  1.
         23    2    1    2    0    0 -0.28978063410E+02 -0.70283998666E+02 -0.20951108160E+03  0.24078677450E+03  0.91125237088E+02 0.  0.
         23    2    1    2    0    0  0.41167580609E+02  0.51300152458E+02 -0.10997494760E+03  0.15804016449E+03  0.92497184590E+02 0.  0.
        -13    1    3    3    0    0 -0.51058803506E+02 -0.69024777351E+01 -0.93787828050E+02  0.10700842165E+03  0.00000000000E+00 0.  1.
         13    1    3    3    0    0  0.22080740097E+02 -0.63381520931E+02 -0.11572325355E+03  0.13377835285E+03  0.00000000000E+00 0. -1.
        -13    1    4    4    0    0  0.29330253697E+02 -0.16013175944E+02 -0.65188692828E+01  0.34046750836E+02  0.00000000000E+00 0. -1.
         13    1    4    4    0    0  0.11837326912E+02  0.67313328402E+02 -0.10345607832E+03  0.12399341366E+03  0.00000000000E+00 0.  1.
         21    1    1    2  502  501 -0.12189517200E+02  0.18983846208E+02 -0.34958373703E+02  0.41605992818E+02  0.00000000000E+00 0.  1.
<scales pt_clust_5="13000.00000" pt_clust_6="13000.00000" pt_clust_7="13000.00000" pt_clust_8="13000.00000" pt_clust_9="22.56038"></scales>
<clustering>
<clus scale="   22.560">  2  9  1 -1</clus>
<clus scale="   91.125">  5  6 -1 -1</clus>
<clus scale="   92.497">  7  8 -1 -1</clus>
<clus scale="  114.252">  2  5  1 -1</clus>
<clus scale="  115.349">  1  5  2 -1</clus>
</clustering>
</event>
<event>
 9    1  0.1484717E-005  0.1201377E+03  0.7546771E-02  0.1246972E+00
         -2   -1    0    0    0  501 -0.00000000000E+00  0.00000000000E+00  0.38063385433E+02  0.38063385433E+02  0.00000000000E+00 0.  1.
          2   -1    0    0  502    0  0.00000000000E+00 -0.00000000000E+00 -0.48741643875E+03  0.48741643875E+03  0.00000000000E+00 0. -1.
         23    2    1    2    0    0  0.42346429179E+02 -0.55485356591E+02 -0.13441358951E+03  0.17869549748E+03  0.94832604702E+02 0.  0.
         23    2    1    2    0    0 -0.40359344768E+02  0.31012463845E+02 -0.28384062731E+03  0.30716099248E+03  0.10579094461E+03 0.  0.
        -11    1    3    3    0    0  0.72194012778E+02 -0.32416527774E+02 -0.10092318979E+03  0.12825091419E+03  0.00000000000E+00 0.  1.
         11    1    3    3    0    0 -0.29847583599E+02 -0.23068828817E+02 -0.33490399724E+02  0.50444583291E+02  0.00000000000E+00 0. -1.
        -13    1    4    4    0    0  0.35678750373E+02  0.30215316787E+01 -0.73624417215E+02  0.81869760548E+02  0.00000000000E+00 0.  1.
         13    1    4    4    0    0 -0.76038095142E+02  0.27990932166E+02 -0.21021621010E+03  0.22529123193E+03  0.00000000000E+00 0. -1.
         21    1    1    2  502  501 -0.19870844107E+01  0.24472892746E+02 -0.31098836492E+02  0.39623334223E+02  0.00000000000E+00 0.  1.
<scales pt_clust_5="13000.00000" pt_clust_6="13000.00000" pt_clust_7="13000.00000" pt_clust_8="13000.00000" pt_clust_9="24.55343"></scales>
<clustering>
<clus scale="   24.553">  1  9  2 -1</clus>
<clus scale="   94.833">  5  6 -1 -1</clus>
<clus scale="  105.791">  7  8 -1 -1</clus>
<clus scale="  110.610">  1  5  2 -1</clus>
<clus scale="  120.138">  2  5  1 -1</clus>
</clustering>
</event>
<event>
 9    1  0.1484717E-005  0.1079262E+03  0.7546771E-02  0.1265529E+00
         -1   -1    0    0    0  501 -0.00000000000E+00  0.00000000000E+00  0.25809463279E+02  0.25809463279E+02  0.00000000000E+00 0.  1.
          1   -1    0    0  502    0  0.00000000000E+00 -0.00000000000E+00 -0.64203147001E+03  0.64203147001E+03  0.00000000000E+00 0. -1.
         23    2    1    2    0    0  0.17181058169E+01  0.48480041429E+02 -0.17765983995E+03  0.20482277956E+03  0.89644218953E+02 0.  0.
         23    2    1    2    0    0  0.20466653189E+02 -0.57778426941E+02 -0.41430414459E+03  0.42885567217E+03  0.92260678623E+02 0.  0.
        -13    1    4    4    0    0  0.54476353829E+02 -0.20823194444E+02 -0.26462322679E+03  0.27097367162E+03  0.00000000000E+00 0. -1.
         13    1    4    4    0    0 -0.34009700640E+02 -0.36955232497E+02 -0.14968091780E+03  0.15788200056E+03  0.00000000000E+00 0.  1.
        -13    1    3    3    0    0  0.33252473902E+02 -0.73502545286E+00 -0.11237960854E+03  0.11719830928E+03  0.00000000000E+00 0. -1.
         13    1    3    3    0    0 -0.31534368085E+02  0.49215066882E+02 -0.65280231408E+02  0.87624470278E+02  0.00000000000E+00 0.  1.
         21    1    1    2  502  501 -0.22184759006E+02  0.92983855119E+01 -0.24258022196E+02  0.34162481557E+02  0.00000000000E+00 0.  1.
<scales pt_clust_5="13000.00000" pt_clust_6="13000.00000" pt_clust_7="13000.00000" pt_clust_8="13000.00000" pt_clust_9="24.05459"></scales>
<clustering>
<clus scale="   24.055">  1  9  2 -1</clus>
<clus scale="   89.644">  7  8 -1 -1</clus>
<clus scale="   92.261">  5  6 -1 -1</clus>
<clus scale="  105.698">  1  7  2 -1</clus>
<clus scale="  107.926">  2  5  1 -1</clus>
</clustering>
</event>
<event>
 9    1  0.1484717E-005  0.1902963E+03  0.7546771E-02  0.1159588E+00
          1   -1    0    0  502    0  0.00000000000E+00  0.00000000000E+00  0.80268897115E+03  0.80268897115E+03  0.00000000000E+00 0. -1.
         -1   -1    0    0    0  501 -0.00000000000E+00 -0.00000000000E+00 -0.99598303430E+02  0.99598303430E+02  0.00000000000E+00 0.  1.
         23    2    1    2    0    0  0.12521389812E+03 -0.12042631464E+02  0.63511682502E+02  0.16780086126E+03  0.91103512380E+02 0.  0.
         23    2    1    2    0    0 -0.16848971531E+03  0.20697503569E+02  0.65753572591E+03  0.68684034632E+03  0.10285552809E+03 0.  0.
        -11    1    3    3    0    0  0.11958126922E+03  0.87974032371E+01  0.76856024381E+02  0.14242163718E+03  0.00000000000E+00 0.  1.
         11    1    3    3    0    0  0.56326289020E+01 -0.20840034701E+02 -0.13344341879E+02  0.25379224079E+02  0.00000000000E+00 0. -1.
        -13    1    4    4    0    0  0.37910413851E+01  0.24981250002E+02  0.64510740972E+02  0.69282541431E+02  0.00000000000E+00 0.  1.
         13    1    4    4    0    0 -0.17228075670E+03 -0.42837464332E+01  0.59302498494E+03  0.61755780489E+03  0.00000000000E+00 0. -1.
         21    1    1    2  502  501  0.43275817188E+02 -0.86548721051E+01 -0.17956740697E+02  0.47646067004E+02  0.00000000000E+00 0.  1.
<scales pt_clust_5="13000.00000" pt_clust_6="13000.00000" pt_clust_7="13000.00000" pt_clust_8="13000.00000" pt_clust_9="44.13279"></scales>
<clustering>
<clus scale="   44.133">  2  9  1 -1</clus>
<clus scale="   91.104">  5  6 -1 -1</clus>
<clus scale="  102.856">  7  8 -1 -1</clus>
<clus scale="  184.210">  2  5  1 -1</clus>
<clus scale="  190.296">  1  5  2 -1</clus>
</clustering>
</event>
<event>
 9    1  0.1484717E-005  0.1395149E+03  0.7546771E-02  0.1226185E+00
          3   -1    0    0  502    0  0.00000000000E+00  0.00000000000E+00  0.10182129615E+04  0.10182129615E+04  0.00000000000E+00 0. -1.
         -3   -1    0    0    0  501 -0.00000000000E+00 -0.00000000000E+00 -0.41528375549E+02  0.41528375549E+02  0.00000000000E+00 0.  1.
         23    2    1    2    0    0  0.28247548861E+02  0.41830339713E+02  0.24653642532E+03  0.26914893970E+03  0.95463298673E+02 0.  0.
         23    2    1    2    0    0  0.17254491633E+02  0.90528468146E+02  0.53327095842E+03  0.54903511127E+03  0.92566285934E+02 0.  0.
        -11    1    4    4    0    0 -0.29483167129E+02  0.65286132787E+02  0.22220756849E+03  0.23346892679E+03  0.00000000000E+00 0.  1.
         11    1    4    4    0    0  0.46737658762E+02  0.25242335359E+02  0.31106338992E+03  0.31556618448E+03  0.00000000000E+00 0. -1.
        -13    1    3    3    0    0 -0.34873846327E+02  0.97858245968E+01  0.67065873716E+02  0.76221905893E+02  0.00000000000E+00 0.  1.
         13    1    3    3    0    0  0.63121395187E+02  0.32044515116E+02  0.17947055161E+03  0.19292703381E+03  0.00000000000E+00 0. -1.
         21    1    1    2  502  501 -0.45502040493E+02 -0.13235880786E+03  0.19687720222E+03  0.24155728609E+03  0.00000000000E+00 0.  1.
<scales pt_clust_5="13000.00000" pt_clust_6="13000.00000" pt_clust_7="13000.00000" pt_clust_8="13000.00000" pt_clust_9="104.38341"></scales>
<clustering>
<clus scale="   92.566">  5  6 -1 -1</clus>
<clus scale="   95.463">  7  8 -1 -1</clus>
<clus scale="  107.986">  2  7  1 -1</clus>
<clus scale="  104.383">  2  9  1 -1</clus>
<clus scale="  139.515">  1  5  2 -1</clus>
</clustering>
</event>
<event>
 9    1  0.1484717E-005  0.1373011E+03  0.7546771E-02  0.1227503E+00
         -1   -1    0    0    0  501 -0.00000000000E+00  0.00000000000E+00  0.25888857751E+03  0.25888857751E+03  0.00000000000E+00 0.  1.
          1   -1    0    0  502    0  0.00000000000E+00 -0.00000000000E+00 -0.11379757839E+03  0.11379757839E+03  0.00000000000E+00 0. -1.
         23    2    1    2    0    0  0.71690147085E+02  0.30856524586E+02  0.12128013557E+03  0.17047196385E+03  0.90885735281E+02 0.  0.
         23    2    1    2    0    0 -0.53940452324E+02 -0.17972275255E+02 -0.35085262683E+02  0.13936668430E+03  0.12230912459E+03 0.  0.
        -11    1    3    3    0    0  0.81938521842E+02 -0.49836762000E+01  0.76531107648E+02  0.11223087288E+03  0.00000000000E+00 0. -1.
         11    1    3    3    0    0 -0.10248374757E+02  0.35840200786E+02  0.44749027922E+02  0.58241090971E+02  0.00000000000E+00 0.  1.
        -11    1    4    4    0    0 -0.69422522647E+01 -0.43982320318E+02 -0.64306488400E+02  0.78217413773E+02  0.00000000000E+00 0. -1.
         11    1    4    4    0    0 -0.46998200060E+02  0.26010045063E+02  0.29221225717E+02  0.61149270522E+02  0.00000000000E+00 0.  1.
         21    1    1    2  502  501 -0.17749694761E+02 -0.12884249332E+02  0.58896126231E+02  0.62847507746E+02  0.00000000000E+00 0. -1.
<scales pt_clust_5="13000.00000" pt_clust_6="13000.00000" pt_clust_7="13000.00000" pt_clust_8="13000.00000" pt_clust_9="21.93298"></scales>
<clustering>
<clus scale="   21.933">  1  9  2 -1</clus>
<clus scale="   90.886">  5  6 -1 -1</clus>
<clus scale="  110.237">  1  5  2 -1</clus>
<clus scale="  122.309">  7  8 -1 -1</clus>
<clus scale="  137.301">  2  5  1 -1</clus>
</clustering>
</event>
<event>
 9    1  0.1484717E-005  0.9711684E+02  0.7546771E-02  0.1288383E+00
          1   -1    0    0  502    0  0.00000000000E+00  0.00000000000E+00  0.18171074792E+03  0.18171074792E+03  0.00000000000E+00 0. -1.
         -1   -1    0    0    0  501 -0.00000000000E+00 -0.00000000000E+00 -0.64674638092E+02  0.64674638092E+02  0.00000000000E+00 0.  1.
         23    2    1    2    0    0  0.20959564974E+02 -0.14233268378E+02  0.39506317627E+02  0.10392697448E+03  0.92726358707E+02 0.  0.
         23    2    1    2    0    0  0.64742219774E+00  0.69099511433E+01  0.66362905244E+02  0.11705777701E+03  0.96178591097E+02 0.  0.
        -11    1    3    3    0    0  0.13453849575E+02  0.39160602467E+02  0.23833363462E+02  0.47776438418E+02  0.00000000000E+00 0.  1.
         11    1    3    3    0    0  0.75057153987E+01 -0.53393870846E+02  0.15672954165E+02  0.56150536060E+02  0.00000000000E+00 0. -1.
        -11    1    4    4    0    0 -0.24848404458E+02  0.99131298015E+01 -0.15736706457E+02  0.31037997305E+02  0.00000000000E+00 0. -1.
         11    1    4    4    0    0  0.25495826656E+02 -0.30031786582E+01  0.82099611701E+02  0.86019779704E+02  0.00000000000E+00 0.  1.
         21    1    1    2  502  501 -0.21606987172E+02  0.73233172352E+01  0.11166886955E+02  0.25400634524E+02  0.00000000000E+00 0.  1.
<scales pt_clust_5="13000.00000" pt_clust_6="13000.00000" pt_clust_7="13000.00000" pt_clust_8="13000.00000" pt_clust_9="22.81431"></scales>
<clustering>
<clus scale="   22.814">  2  9  1 -1</clus>
<clus scale="   92.726">  5  6 -1 -1</clus>
<clus scale="   93.699">  2  5  1 -1</clus>
<clus scale="   96.179">  7  8 -1 -1</clus>
<clus scale="   97.117">  1  5  2 -1</clus>
</clustering>
</event>
<event>
 9    1  0.1484717E-005  0.1006569E+03  0.7546771E-02  0.1279055E+00
          2   -1    0    0  502    0  0.00000000000E+00  0.00000000000E+00  0.60223824230E+03  0.60223824230E+03  0.00000000000E+00 0. -1.
         -2   -1    0    0    0  501 -0.00000000000E+00 -0.00000000000E+00 -0.42861404264E+02  0.42861404264E+02  0.00000000000E+00 0.  1.
         23    2    1    2    0    0  0.48112011197E+02  0.27255512834E+02  0.54348427245E+02  0.11956579476E+03  0.91019773300E+02 0.  0.
         23    2    1    2    0    0 -0.42542906695E+01 -0.23159230131E+01  0.26157956176E+03  0.27691200062E+03  0.90735475250E+02 0.  0.
        -13    1    4    4    0    0  0.11202291641E+02  0.37690847799E+02  0.18507372649E+03  0.18920458658E+03  0.00000000000E+00 0. -1.
         13    1    4    4    0    0 -0.15456582311E+02 -0.40006770812E+02  0.76505835274E+02  0.87707414045E+02  0.00000000000E+00 0.  1.
        -13    1    3    3    0    0  0.68843736231E+02 -0.36136419067E+01  0.30453189999E+02  0.75365212181E+02  0.00000000000E+00 0.  1.
         13    1    3    3    0    0 -0.20731725034E+02  0.30869154741E+02  0.23895237246E+02  0.44200582579E+02  0.00000000000E+00 0. -1.
         21    1    1    2  502  501 -0.43857720527E+02 -0.24939589821E+02  0.24344884903E+03  0.24862185118E+03  0.00000000000E+00 0. -1.
<scales pt_clust_5="13000.00000" pt_clust_6="13000.00000" pt_clust_7="13000.00000" pt_clust_8="13000.00000" pt_clust_9="50.45278"></scales>
<clustering>
<clus scale="   50.453">  1  9  2 -1</clus>
<clus scale="   90.735">  5  6 -1 -1</clus>
<clus scale="   91.020">  7  8 -1 -1</clus>
<clus scale="  100.400">  1  5  2 -1</clus>
<clus scale="   50.453">  1  5  2 -1</clus>
</clustering>
</event>
<event>
 9    1  0.1484717E-005  0.9552895E+02  0.7546771E-02  0.1291515E+00
         -1   -1    0    0    0  501 -0.00000000000E+00  0.00000000000E+00  0.47395524878E+03  0.47395524878E+03  0.00000000000E+00 0.  1.
          1   -1    0    0  502    0  0.00000000000E+00 -0.00000000000E+00 -0.33288841809E+03  0.33288841809E+03  0.00000000000E+00 0. -1.
         23    2    1    2    0    0 -0.24501546934E+01 -0.56544806006E+02  0.24743796890E+03  0.26916005195E+03  0.89544775204E+02 0.  0.
         23    2    1    2    0    0 -0.27915594337E+01  0.23491499454E+02 -0.31360296480E+03  0.32776690144E+03  0.92329187142E+02 0.  0.
        -11    1    3    3    0    0  0.31221237254E+02 -0.33759699006E+02  0.20614553745E+03  0.21121189726E+03  0.00000000000E+00 0.  1.
         11    1    3    3    0    0 -0.33671391948E+02 -0.22785107001E+02  0.41292431448E+02  0.57948154687E+02  0.00000000000E+00 0. -1.
        -13    1    4    4    0    0  0.37772694719E+02 -0.13576190284E+02 -0.12140887797E+03  0.12787183059E+03  0.00000000000E+00 0.  1.
         13    1    4    4    0    0 -0.40564254152E+02  0.37067689738E+02 -0.19219408684E+03  0.19989507086E+03  0.00000000000E+00 0. -1.
         21    1    1    2  502  501  0.52417141271E+01  0.33053306552E+02  0.20723182659E+03  0.20991671347E+03  0.00000000000E+00 0. -1.
<scales pt_clust_5="13000.00000" pt_clust_6="13000.00000" pt_clust_7="13000.00000" pt_clust_8="13000.00000" pt_clust_9="33.46635"></scales>
<clustering>
<clus scale="   33.466">  1  9  2 -1</clus>
<clus scale="   89.545">  5  6 -1 -1</clus>
<clus scale="   92.329">  7  8 -1 -1</clus>
<clus scale="   92.841">  1  5  2 -1</clus>
<clus scale="   95.529">  2  5  1 -1</clus>
</clustering>
</event>
<event>
 9    1  0.1484717E-005  0.1058160E+03  0.7546771E-02  0.1268982E+00
         -1   -1    0    0    0  501 -0.00000000000E+00  0.00000000000E+00  0.42685155691E+02  0.42685155691E+02  0.00000000000E+00 0.  1.
          1   -1    0    0  502    0  0.00000000000E+00 -0.00000000000E+00 -0.49804088500E+03  0.49804088500E+03  0.00000000000E+00 0. -1.
         23    2    1    2    0    0 -0.11697682404E+02  0.41005139816E+02 -0.14328320758E+03  0.17549219638E+03  0.91919400305E+02 0.  0.
         23    2    1    2    0    0 -0.14290800471E+02 -0.58551915974E+02 -0.31539386342E+03  0.33370097406E+03  0.90832247342E+02 0.  0.
        -11    1    3    3    0    0 -0.28041715597E+02 -0.22123332196E+02 -0.43417237901E+02  0.56221314357E+02  0.00000000000E+00 0. -1.
         11    1    3    3    0    0  0.16344033193E+02  0.63128472012E+02 -0.99865969678E+02  0.11927088203E+03  0.00000000000E+00 0.  1.
        -13    1    4    4    0    0 -0.13966149554E+02 -0.83169551592E+02 -0.24849572088E+03  0.26241636942E+03  0.00000000000E+00 0. -1.
         13    1    4    4    0    0 -0.32465091699E+00  0.24617635618E+02 -0.66898142544E+02  0.71284604632E+02  0.00000000000E+00 0.  1.
         21    1    1    2  502  501  0.25988482875E+02  0.17546776158E+02  0.33213416945E+01  0.31532870252E+02  0.00000000000E+00 0.  1.
<scales pt_clust_5="13000.00000" pt_clust_6="13000.00000" pt_clust_7="13000.00000" pt_clust_8="13000.00000" pt_clust_9="31.35746"></scales>
<clustering>
<clus scale="   31.357">  1  9  2 -1</clus>
<clus scale="   90.832">  7  8 -1 -1</clus>
<clus scale="   91.919">  5  6 -1 -1</clus>
<clus scale="  104.873">  2  7  1 -1</clus>
<clus scale="  104.873">  2  5  1 -1</clus>
</clustering>
</event>
<event>
 9    1  0.1484717E-005  0.1516066E+03  0.7546771E-02  0.1198842E+00
          1   -1    0    0  502    0  0.00000000000E+00  0.00000000000E+00  0.27306484283E+03  0.27306484283E+03  0.00000000000E+00 0. -1.
         -1   -1    0    0    0  501 -0.00000000000E+00 -0.00000000000E+00 -0.29508576891E+03  0.29508576891E+03  0.00000000000E+00 0.  1.
         23    2    1    2    0    0 -0.66400840706E+02  0.12624540982E+03 -0.10489218246E+03  0.19981373964E+03  0.92607696563E+02 0.  0.
         23    2    1    2    0    0  0.14188671303E+02 -0.11673174157E+03  0.19448522050E+03  0.24474764319E+03  0.90825601960E+02 0.  0.
        -11    1    3    3    0    0 -0.32475017564E+02  0.60956023574E+02  0.31023281404E+01  0.69136734199E+02  0.00000000000E+00 0. -1.
         11    1    3    3    0    0 -0.33925823142E+02  0.65289386241E+02 -0.10799451060E+03  0.13067700545E+03  0.00000000000E+00 0.  1.
        -13    1    4    4    0    0 -0.85263249637E+01 -0.83845374686E+02  0.57434050568E+02  0.10198732881E+03  0.00000000000E+00 0.  1.
         13    1    4    4    0    0  0.22714996266E+02 -0.32886366886E+02  0.13705116993E+03  0.14276031438E+03  0.00000000000E+00 0. -1.
         21    1    1    2  502  501  0.52212169403E+02 -0.95136682432E+01 -0.11161396411E+03  0.12358922891E+03  0.00000000000E+00 0.  1.
<scales pt_clust_5="13000.00000" pt_clust_6="13000.00000" pt_clust_7="13000.00000" pt_clust_8="13000.00000" pt_clust_9="53.07184"></scales>
<clustering>
<clus scale="   53.072">  2  9  1 -1</clus>
<clus scale="   90.826">  7  8 -1 -1</clus>
<clus scale="   92.608">  5  6 -1 -1</clus>
<clus scale="  150.525">  1  7  2 -1</clus>
<clus scale="  150.525">  1  5  2 -1</clus>
</clustering>
</event>
<event>
 9    1  0.1484717E-005  0.1076644E+03  0.7546771E-02  0.1265921E+00
          1   -1    0    0  502    0  0.00000000000E+00  0.00000000000E+00  0.25088654748E+02  0.25088654748E+02  0.00000000000E+00 0. -1.
         -1   -1    0    0    0  501 -0.00000000000E+00 -0.00000000000E+00 -0.60844514871E+03  0.60844514871E+03  0.00000000000E+00 0.  1.
         23    2    1    2    0    0 -0.43177355948E+02 -0.19925779667E+02 -0.27673807740E+03  0.29483230351E+03  0.89893286430E+02 0.  0.
         23    2    1    2    0    0  0.61224154418E+02  0.99555862189E+01 -0.18878719890E+03  0.21908006564E+03  0.92238592300E+02 0.  0.
        -11    1    4    4    0    0  0.84845711990E+02  0.16928924842E+02 -0.14587631505E+03  0.16960330962E+03  0.00000000000E+00 0. -1.
         11    1    4    4    0    0 -0.23621557572E+02 -0.69733386226E+01 -0.42910883850E+02  0.49476756022E+02  0.00000000000E+00 0.  1.
        -13    1    3    3    0    0 -0.62684923649E+02 -0.31320425248E+02 -0.25094117467E+03  0.26054143977E+03  0.00000000000E+00 0.  1.
         13    1    3    3    0    0  0.19507567701E+02  0.11394645582E+02 -0.25796902730E+02  0.34290863740E+02  0.00000000000E+00 0. -1.
         21    1    1    2  502  501 -0.18046798470E+02  0.99701934476E+01 -0.11783121765E+03  0.11962143431E+03  0.00000000000E+00 0.  1.
<scales pt_clust_5="13000.00000" pt_clust_6="13000.00000" pt_clust_7="13000.00000" pt_clust_8="13000.00000" pt_clust_9="20.61775"></scales>
<clustering>
<clus scale="   20.618">  2  9  1 -1</clus>
<clus scale="   89.893">  7  8 -1 -1</clus>
<clus scale="   92.239">  5  6 -1 -1</clus>
<clus scale="  105.662">  2  7  1 -1</clus>
<clus scale="  107.664">  1  5  2 -1</clus>
</clustering>
</event>
<event>
 9    1  0.1484717E-005  0.1004984E+03  0.7546771E-02  0.1279485E+00
         -1   -1    0    0    0  501 -0.00000000000E+00  0.00000000000E+00  0.49032432609E+03  0.49032432609E+03  0.00000000000E+00 0.  1.
          1   -1    0    0  502    0  0.00000000000E+00 -0.00000000000E+00 -0.28835438949E+02  0.28835438949E+02  0.00000000000E+00 0. -1.
         23    2    1    2    0    0  0.55677921801E+02  0.54323078315E+01  0.21890691105E+03  0.24340721564E+03  0.90538919677E+02 0.  0.
         23    2    1    2    0    0 -0.33049147243E+02  0.10601838260E+02  0.14799635898E+03  0.17718483539E+03  0.91032403655E+02 0.  0.
        -11    1    4    4    0    0  0.52130326332E+01  0.43592932138E+02  0.90890564671E+02  0.10093866547E+03  0.00000000000E+00 0.  1.
         11    1    4    4    0    0 -0.38262179876E+02 -0.32991093877E+02  0.57105794305E+02  0.76246169919E+02  0.00000000000E+00 0. -1.
        -13    1    3    3    0    0 -0.18753381735E+02  0.17025004191E+02  0.95715435249E+02  0.99010022923E+02  0.00000000000E+00 0. -1.
         13    1    3    3    0    0  0.74431303537E+02 -0.11592696359E+02  0.12319147580E+03  0.14439719272E+03  0.00000000000E+00 0.  1.
         21    1    1    2  502  501 -0.22628774558E+02 -0.16034146092E+02  0.94585617116E+02  0.98567714005E+02  0.00000000000E+00 0. -1.
<scales pt_clust_5="13000.00000" pt_clust_6="13000.00000" pt_clust_7="13000.00000" pt_clust_8="13000.00000" pt_clust_9="27.73365"></scales>
<clustering>
<clus scale="   27.734">  1  9  2 -1</clus>
<clus scale="   90.539">  7  8 -1 -1</clus>
<clus scale="   91.032">  5  6 -1 -1</clus>
<clus scale="  100.052">  1  7  2 -1</clus>
<clus scale="  100.498">  2  5  1 -1</clus>
</clustering>
</event>
<event>
 9    1  0.1484717E-005  0.1070658E+03  0.7546771E-02  0.1267732E+00
          1   -1    0    0  502    0  0.00000000000E+00  0.00000000000E+00  0.37107840088E+02  0.37107840088E+02  0.00000000000E+00 0. -1.
         -1   -1    0    0    0  501 -0.00000000000E+00 -0.00000000000E+00 -0.65476822822E+03  0.65476822822E+03  0.00000000000E+00 0.  1.
         23    2    1    2    0    0  0.51196861220E+02 -0.53434594299E+02 -0.16980085025E+03  0.20560746253E+03  0.89250912799E+02 0.  0.
         23    2    1    2    0    0  0.21714845301E+01  0.43455760201E+02 -0.14008712630E+03  0.17374402308E+03  0.93109957376E+02 0.  0.
        -11    1    4    4    0    0 -0.29727591229E+02  0.50629940238E+02 -0.12423103696E+03  0.13740622647E+03  0.00000000000E+00 0.  1.
         11    1    4    4    0    0  0.31899075759E+02 -0.71741800375E+01 -0.15856089338E+02  0.36337796611E+02  0.00000000000E+00 0. -1.
        -13    1    3    3    0    0  0.74495166472E+02 -0.54889877372E+02 -0.13825736394E+03  0.16636564293E+03  0.00000000000E+00 0. -1.
         13    1    3    3    0    0 -0.23298305253E+02  0.14552830725E+01 -0.31543486318E+02  0.39241819600E+02  0.00000000000E+00 0.  1.
         21    1    1    2  502  501 -0.53368345750E+02  0.99788340986E+01 -0.30777241158E+03  0.31252458269E+03  0.00000000000E+00 0.  1.
<scales pt_clust_5="13000.00000" pt_clust_6="13000.00000" pt_clust_7="13000.00000" pt_clust_8="13000.00000" pt_clust_9="54.29325"></scales>
<clustering>
<clus scale="   54.293">  2  9  1 -1</clus>
<clus scale="   89.251">  7  8 -1 -1</clus>
<clus scale="   93.110">  5  6 -1 -1</clus>
<clus scale="  103.727">  2  7  1 -1</clus>
<clus scale="  107.066">  1  5  2 -1</clus>
</clustering>
</event>
<event>
 9    1  0.1484717E-005  0.9411091E+02  0.7546771E-02  0.1293239E+00
          2   -1    0    0  502    0  0.00000000000E+00  0.00000000000E+00  0.97142431911E+02  0.97142431911E+02  0.00000000000E+00 0. -1.
         -2   -1    0    0    0  501 -0.00000000000E+00 -0.00000000000E+00 -0.30350057602E+03  0.30350057602E+03  0.00000000000E+00 0.  1.
         23    2    1    2    0    0  0.67593880960E+02  0.80366026658E+01 -0.81457619778E+02  0.13923779221E+03  0.90101605053E+02 0.  0.
         23    2    1    2    0    0 -0.67007180745E+01 -0.19254903130E+02  0.27862572148E+02  0.96570780009E+02  0.90188367917E+02 0.  0.
        -13    1    3    3    0    0 -0.17912400228E+02  0.18884977978E+02 -0.12598762968E+02  0.28917560469E+02  0.00000000000E+00 0.  1.
         13    1    3    3    0    0  0.85506281188E+02 -0.10848375313E+02 -0.68858856810E+02  0.11032023174E+03  0.00000000000E+00 0. -1.
        -13    1    4    4    0    0 -0.35312407325E+01  0.36115037668E+02  0.51972264423E+01  0.36657560879E+02  0.00000000000E+00 0.  1.
         13    1    4    4    0    0 -0.31694773420E+01 -0.55369940798E+02  0.22665345706E+02  0.59913219130E+02  0.00000000000E+00 0. -1.
         21    1    1    2  502  501 -0.60893162885E+02  0.11218300464E+02 -0.15276309648E+03  0.16483443572E+03  0.00000000000E+00 0.  1.
<scales pt_clust_5="13000.00000" pt_clust_6="13000.00000" pt_clust_7="13000.00000" pt_clust_8="13000.00000" pt_clust_9="61.91791"></scales>
<clustering>
<clus scale="   61.918">  2  9  1 -1</clus>
<clus scale="   90.102">  5  6 -1 -1</clus>
<clus scale="   90.188">  7  8 -1 -1</clus>
<clus scale="   94.028">  2  5  1 -1</clus>
<clus scale="   94.111">  1  5  2 -1</clus>
</clustering>
</event>
<event>
 9    1  0.1484717E-005  0.1965386E+03  0.7546771E-02  0.1153126E+00
          1   -1    0    0  502    0  0.00000000000E+00  0.00000000000E+00  0.43616785381E+03  0.43616785381E+03  0.00000000000E+00 0. -1.
         -1   -1    0    0    0  501 -0.00000000000E+00 -0.00000000000E+00 -0.11236610198E+03  0.11236610198E+03  0.00000000000E+00 0.  1.
         23    2    1    2    0    0 -0.14587300108E+03 -0.11484158837E+03  0.90812621850E+02  0.22469414950E+03  0.88164650887E+02 0.  0.
         23    2    1    2    0    0  0.12448205156E+03  0.11179717251E+03  0.23405336223E+03  0.30220710467E+03  0.92486587138E+02 0.  0.
        -11    1    3    3    0    0 -0.64218300375E+02 -0.20872112157E+02  0.72139261124E+02  0.98811477899E+02  0.00000000000E+00 0.  1.
         11    1    3    3    0    0 -0.81654700706E+02 -0.93969476216E+02  0.18673360726E+02  0.12588267160E+03  0.00000000000E+00 0. -1.
        -13    1    4    4    0    0  0.53551465685E+02  0.10697444020E+03  0.15670656293E+03  0.19715029089E+03  0.00000000000E+00 0. -1.
         13    1    4    4    0    0  0.70930585872E+02  0.48227323066E+01  0.77346799297E+02  0.10505681377E+03  0.00000000000E+00 0.  1.
         21    1    1    2  502  501  0.21390949524E+02  0.30444158670E+01 -0.10642322557E+01  0.21632701630E+02  0.00000000000E+00 0. -1.
<scales pt_clust_5="13000.00000" pt_clust_6="13000.00000" pt_clust_7="13000.00000" pt_clust_8="13000.00000" pt_clust_9="21.60651"></scales>
<clustering>
<clus scale="   21.607">  2  9  1 -1</clus>
<clus scale="   88.165">  5  6 -1 -1</clus>
<clus scale="   92.487">  7  8 -1 -1</clus>
<clus scale="  194.542">  2  5  1 -1</clus>
<clus scale="  196.539">  1  5  2 -1</clus>
</clustering>
</event>
<event>
 9    1  0.1484717E-005  0.9130863E+02  0.7546771E-02  0.1302205E+00
         -1   -1    0    0    0  501 -0.00000000000E+00  0.00000000000E+00  0.10793313721E+03  0.10793313721E+03  0.00000000000E+00 0.  1.
          1   -1    0    0  502    0  0.00000000000E+00 -0.00000000000E+00 -0.16883020448E+03  0.16883020448E+03  0.00000000000E+00 0. -1.
         23    2    1    2    0    0 -0.11329745699E+02  0.16647286925E+02  0.50652892009E+02  0.10191085205E+03  0.86108135486E+02 0.  0.
         23    2    1    2    0    0  0.10906075882E+02  0.13875505240E+02 -0.11123283282E+03  0.14432511002E+03  0.90252546490E+02 0.  0.
        -11    1    3    3    0    0 -0.45183047668E+02 -0.22927255615E+01  0.42910383833E+02  0.62354353720E+02  0.00000000000E+00 0.  1.
         11    1    3    3    0    0  0.33853301969E+02  0.18940012487E+02  0.77425081751E+01  0.39556498329E+02  0.00000000000E+00 0. -1.
        -13    1    4    4    0    0  0.33887809771E+02 -0.17384917166E+02 -0.94845707082E+02  0.10220727542E+03  0.00000000000E+00 0. -1.
         13    1    4    4    0    0 -0.22981733889E+02  0.31260422407E+02 -0.16387125735E+02  0.42117834600E+02  0.00000000000E+00 0.  1.
         21    1    1    2  502  501  0.42366981705E+00 -0.30522792166E+02 -0.31712646322E+00  0.30527379627E+02  0.00000000000E+00 0. -1.
<scales pt_clust_5="13000.00000" pt_clust_6="13000.00000" pt_clust_7="13000.00000" pt_clust_8="13000.00000" pt_clust_9="30.52573"></scales>
<clustering>
<clus scale="   30.526">  1  9  2 -1</clus>
<clus scale="   86.108">  5  6 -1 -1</clus>
<clus scale="   87.214">  1  5  2 -1</clus>
<clus scale="   90.253">  7  8 -1 -1</clus>
<clus scale="   91.309">  2  5  1 -1</clus>
</clustering>
</event>
<event>
 9    1  0.1484717E-005  0.1153736E+03  0.7546771E-02  0.1253747E+00
          1   -1    0    0  502    0  0.00000000000E+00  0.00000000000E+00  0.29137463441E+03  0.29137463441E+03  0.00000000000E+00 0. -1.
         -1   -1    0    0    0  501 -0.00000000000E+00 -0.00000000000E+00 -0.68894292112E+02  0.68894292112E+02  0.00000000000E+00 0.  1.
         23    2    1    2    0    0  0.64461995252E+02  0.43032908243E+02  0.10447425772E+03  0.15659496506E+03  0.87177591912E+02 0.  0.
         23    2    1    2    0    0 -0.44075732381E+02 -0.35676646519E+02  0.13615886847E+03  0.17540316622E+03  0.94929131279E+02 0.  0.
        -13    1    3    3    0    0  0.23081836427E+02 -0.59909955250E+01 -0.96098114040E+01  0.25710147324E+02  0.00000000000E+00 0. -1.
         13    1    3    3    0    0  0.41380158825E+02  0.49023903768E+02  0.11408406913E+03  0.13088481774E+03  0.00000000000E+00 0.  1.
        -13    1    4    4    0    0  0.22150771443E+02  0.10469249551E+02  0.11921383745E+02  0.27246674147E+02  0.00000000000E+00 0.  1.
         13    1    4    4    0    0 -0.66226503824E+02 -0.46145896070E+02  0.12423748472E+03  0.14815649207E+03  0.00000000000E+00 0. -1.
         21    1    1    2  502  501 -0.20386262870E+02 -0.73562617235E+01 -0.18152783895E+02  0.28270795240E+02  0.00000000000E+00 0. -1.
<scales pt_clust_5="13000.00000" pt_clust_6="13000.00000" pt_clust_7="13000.00000" pt_clust_8="13000.00000" pt_clust_9="21.67289"></scales>
<clustering>
<clus scale="   21.673">  2  9  1 -1</clus>
<clus scale="   87.178">  5  6 -1 -1</clus>
<clus scale="   94.929">  7  8 -1 -1</clus>
<clus scale="  109.085">  2  5  1 -1</clus>
<clus scale="  115.374">  1  5  2 -1</clus>
</clustering>
</event>
<event>
 9    1  0.1484717E-005  0.1344766E+03  0.7546771E-02  0.1221181E+00
         -1   -1    0    0    0  501 -0.00000000000E+00  0.00000000000E+00  0.23180831161E+03  0.23180831161E+03  0.00000000000E+00 0.  1.
          1   -1    0    0  502    0  0.00000000000E+00 -0.00000000000E+00 -0.31217045327E+03  0.31217045327E+03  0.00000000000E+00 0. -1.
         23    2    1    2    0    0  0.14138233901E+03  0.20167057333E+02  0.14428213916E+03  0.22227919126E+03  0.90526389526E+02 0.  0.
         23    2    1    2    0    0 -0.93656729198E+02  0.15127190190E+02 -0.22680551978E+03  0.26230185739E+03  0.91439082338E+02 0.  0.
        -11    1    3    3    0    0  0.86833923464E+02 -0.30438693755E+02  0.59983406496E+02  0.10983921611E+03  0.00000000000E+00 0.  1.
         11    1    3    3    0    0  0.54548415549E+02  0.50605751089E+02  0.84298732664E+02  0.11243997515E+03  0.00000000000E+00 0. -1.
        -13    1    4    4    0    0 -0.19348605494E+02 -0.35203586432E+02 -0.91586068029E+02  0.10000834410E+03  0.00000000000E+00 0. -1.
         13    1    4    4    0    0 -0.74308123704E+02  0.50330776622E+02 -0.13521945175E+03  0.16229351329E+03  0.00000000000E+00 0.  1.
         21    1    1    2  502  501 -0.47725609815E+02 -0.35294247524E+02  0.21612389625E+01  0.59397716238E+02  0.00000000000E+00 0.  1.
<scales pt_clust_5="13000.00000" pt_clust_6="13000.00000" pt_clust_7="13000.00000" pt_clust_8="13000.00000" pt_clust_9="59.35838"></scales>
<clustering>
<clus scale="   59.358">  1  9  2 -1</clus>
<clus scale="   90.526">  5  6 -1 -1</clus>
<clus scale="   91.439">  7  8 -1 -1</clus>
<clus scale="  133.858">  1  5  2 -1</clus>
<clus scale="  134.477">  2  5  1 -1</clus>
</clustering>
</event>
<event>
 9    1  0.1484717E-005  0.9989743E+02  0.7546771E-02  0.1280734E+00
          1   -1    0    0  502    0  0.00000000000E+00  0.00000000000E+00  0.11653787729E+03  0.11653787729E+03  0.00000000000E+00 0. -1.
         -1   -1    0    0    0  501 -0.00000000000E+00 -0.00000000000E+00 -0.13258809242E+03  0.13258809242E+03  0.00000000000E+00 0.  1.
         23    2    1    2    0    0 -0.44589559331E+02  0.31900176565E+02 -0.43628853835E+02  0.11439150766E+03  0.90421734512E+02 0.  0.
         23    2    1    2    0    0  0.37323057822E+02 -0.41505067871E+01  0.36189092549E+02  0.10478473530E+03  0.90884283458E+02 0.  0.
        -13    1    4    4    0    0  0.62152119936E+02  0.12091039496E+02  0.79316577119E+01  0.63812149647E+02  0.00000000000E+00 0. -1.
         13    1    4    4    0    0 -0.24829062114E+02 -0.16241546283E+02  0.28257434837E+02  0.40972585648E+02  0.00000000000E+00 0.  1.
        -13    1    3    3    0    0 -0.65080267153E+02  0.46993102255E+02 -0.32120170527E+02  0.86460963370E+02  0.00000000000E+00 0.  1.
         13    1    3    3    0    0  0.20490707822E+02 -0.15092925690E+02 -0.11508683308E+02  0.27930544292E+02  0.00000000000E+00 0. -1.
         21    1    1    2  502  501  0.72665015090E+01 -0.27749669778E+02 -0.86104538514E+01  0.29949726751E+02  0.00000000000E+00 0. -1.
<scales pt_clust_5="13000.00000" pt_clust_6="13000.00000" pt_clust_7="13000.00000" pt_clust_8="13000.00000" pt_clust_9="28.68530"></scales>
<clustering>
<clus scale="   28.685">  2  9  1 -1</clus>
<clus scale="   90.422">  7  8 -1 -1</clus>
<clus scale="   90.884">  5  6 -1 -1</clus>
<clus scale="   99.477">  2  7  1 -1</clus>
<clus scale="   99.897">  1  5  2 -1</clus>
</clustering>
</event>
<event>
 9    1  0.1484717E-005  0.1165090E+03  0.7546771E-02  0.1251155E+00
         -1   -1    0    0    0  501 -0.00000000000E+00  0.00000000000E+00  0.46552886444E+02  0.46552886444E+02  0.00000000000E+00 0.  1.
          1   -1    0    0  502    0  0.00000000000E+00 -0.00000000000E+00 -0.45905340001E+03  0.45905340001E+03  0.00000000000E+00 0. -1.
         23    2    1    2    0    0 -0.73992892867E+02  0.24416476528E+02 -0.23966299108E+03  0.26952279516E+03  0.95567124561E+02 0.  0.
         23    2    1    2    0    0  0.52734347394E+02 -0.18880570791E+02 -0.18348928739E+03  0.21166972257E+03  0.89433581591E+02 0.  0.
        -11    1    4    4    0    0  0.17064698735E+02 -0.27950194025E+02 -0.16895462316E+03  0.17209904700E+03  0.00000000000E+00 0. -1.
         11    1    4    4    0    0  0.35669648659E+02  0.90696232342E+01 -0.14534664231E+02  0.39570675574E+02  0.00000000000E+00 0.  1.
        -13    1    3    3    0    0 -0.97103102456E+02  0.15144681491E+02 -0.19599027433E+03  0.21924999776E+03  0.00000000000E+00 0. -1.
         13    1    3    3    0    0  0.23110209590E+02  0.92717950375E+01 -0.43672716747E+02  0.50272797401E+02  0.00000000000E+00 0.  1.
         21    1    1    2  502  501  0.21258545473E+02 -0.55359057372E+01  0.10651764903E+02  0.24413768728E+02  0.00000000000E+00 0.  1.
<scales pt_clust_5="13000.00000" pt_clust_6="13000.00000" pt_clust_7="13000.00000" pt_clust_8="13000.00000" pt_clust_9="21.96752"></scales>
<clustering>
<clus scale="   21.968">  1  9  2 -1</clus>
<clus scale="   89.434">  5  6 -1 -1</clus>
<clus scale="   95.567">  7  8 -1 -1</clus>
<clus scale="  111.533">  2  5  1 -1</clus>
<clus scale="  111.533">  2  5  1 -1</clus>
</clustering>
</event>
<event>
 9    1  0.1484717E-005  0.9690512E+02  0.7546771E-02  0.1287265E+00
         -1   -1    0    0    0  501 -0.00000000000E+00  0.00000000000E+00  0.86088409525E+02  0.86088409525E+02  0.00000000000E+00 0.  1.
          1   -1    0    0  502    0  0.00000000000E+00 -0.00000000000E+00 -0.19277802846E+03  0.19277802846E+03  0.00000000000E+00 0. -1.
         23    2    1    2    0    0 -0.25128221762E+01 -0.19973630353E+02 -0.43644215512E+02  0.10335214765E+03  0.91496386223E+02 0.  0.
         23    2    1    2    0    0 -0.15416462334E+02  0.39000583558E+02 -0.92393098232E+02  0.13621071057E+03  0.90874420184E+02 0.  0.
        -11    1    3    3    0    0 -0.22813566361E+02  0.21985181549E+02  0.90992700022E+01  0.32963672921E+02  0.00000000000E+00 0.  1.
         11    1    3    3    0    0  0.20300744185E+02 -0.41958811902E+02 -0.52743485515E+02  0.70388474731E+02  0.00000000000E+00 0. -1.
        -13    1    4    4    0    0 -0.49652845313E+02  0.33800221713E+01 -0.37196120646E+02  0.62131964308E+02  0.00000000000E+00 0.  1.
         13    1    4    4    0    0  0.34236382979E+02  0.35620561387E+02 -0.55196977585E+02  0.74078746261E+02  0.00000000000E+00 0. -1.
         21    1    1    2  502  501  0.17929284510E+02 -0.19026953205E+02  0.29347694812E+02  0.39303579762E+02  0.00000000000E+00 0. -1.
<scales pt_clust_5="13000.00000" pt_clust_6="13000.00000" pt_clust_7="13000.00000" pt_clust_8="13000.00000" pt_clust_9="26.14353"></scales>
<clustering>
<clus scale="   26.144">  1  9  2 -1</clus>
<clus scale="   90.874">  7  8 -1 -1</clus>
<clus scale="   91.496">  5  6 -1 -1</clus>
<clus scale="   96.318">  2  7  1 -1</clus>
<clus scale="   96.318">  2  5  1 -1</clus>
</clustering>
</event>
<event>
 9    1  0.1484717E-005  0.1082387E+03  0.7546771E-02  0.1264140E+00
         -3   -1    0    0    0  501 -0.00000000000E+00  0.00000000000E+00  0.24196298051E+03  0.24196298051E+03  0.00000000000E+00 0.  1.
          3   -1    0    0  502    0  0.00000000000E+00 -0.00000000000E+00 -0.69523558857E+02  0.69523558857E+02  0.00000000000E+00 0. -1.
         23    2    1    2    0    0 -0.28986474552E+01 -0.49662461012E+02  0.68779043265E+02  0.12465257270E+03  0.91284965339E+02 0.  0.
         23    2    1    2    0    0  0.20190598117E+02  0.60597262581E+02  0.38288208974E+02  0.11833504714E+03  0.91964710353E+02 0.  0.
        -11    1    3    3    0    0 -0.29590120215E+02 -0.60949196594E+02  0.25137168553E+02  0.72265185412E+02  0.00000000000E+00 0.  1.
         11    1    3    3    0    0  0.26691472760E+02  0.11286735583E+02  0.43641874712E+02  0.52387387285E+02  0.00000000000E+00 0. -1.
        -13    1    4    4    0    0  0.24444312374E+02 -0.19676433443E+02  0.13987044720E+02  0.34355841722E+02  0.00000000000E+00 0. -1.
         13    1    4    4    0    0 -0.42537142573E+01  0.80273696024E+02  0.24301164255E+02  0.83979205417E+02  0.00000000000E+00 0.  1.
         21    1    1    2  502  501 -0.17291950661E+02 -0.10934801570E+02  0.65372169414E+02  0.68498919532E+02  0.00000000000E+00 0.  1.
<scales pt_clust_5="13000.00000" pt_clust_6="13000.00000" pt_clust_7="13000.00000" pt_clust_8="13000.00000" pt_clust_9="20.45926"></scales>
<clustering>
<clus scale="   20.459">  1  9  2 -1</clus>
<clus scale="   91.285">  5  6 -1 -1</clus>
<clus scale="   91.965">  7  8 -1 -1</clus>
<clus scale="  107.662">  1  5  2 -1</clus>
<clus scale="  108.239">  2  5  1 -1</clus>
</clustering>
</event>
<event>
 9    1  0.1484717E-005  0.9680274E+02  0.7546771E-02  0.1289551E+00
          2   -1    0    0  502    0  0.00000000000E+00  0.00000000000E+00  0.44021803659E+03  0.44021803659E+03  0.00000000000E+00 0. -1.
         -2   -1    0    0    0  501 -0.00000000000E+00 -0.00000000000E+00 -0.70561172772E+02  0.70561172772E+02  0.00000000000E+00 0.  1.
         23    2    1    2    0    0  0.11485837719E+02 -0.44293809292E+00 -0.17542023104E+02  0.89461657485E+02  0.86968643333E+02 0.  0.
         23    2    1    2    0    0 -0.19937059077E+02 -0.28333037650E+02  0.37724422022E+03  0.38971730961E+03  0.91466564229E+02 0.  0.
        -11    1    4    4    0    0 -0.29253024446E+02  0.25850498139E+02  0.21207952526E+03  0.21564255779E+03  0.00000000000E+00 0. -1.
         11    1    4    4    0    0  0.93159653690E+01 -0.54183535789E+02  0.16516469496E+03  0.17407475182E+03  0.00000000000E+00 0.  1.
        -13    1    3    3    0    0 -0.35936245985E+02  0.12135512537E+02 -0.19434563813E+01  0.37979750694E+02  0.00000000000E+00 0. -1.
         13    1    3    3    0    0  0.47422083704E+02 -0.12578450630E+02 -0.15598566723E+02  0.51481906792E+02  0.00000000000E+00 0.  1.
         21    1    1    2  502  501  0.84512213582E+01  0.28775975743E+02  0.99546667052E+01  0.31600242271E+02  0.00000000000E+00 0. -1.
<scales pt_clust_5="13000.00000" pt_clust_6="13000.00000" pt_clust_7="13000.00000" pt_clust_8="13000.00000" pt_clust_9="29.99133"></scales>
<clustering>
<clus scale="   29.991">  2  9  1 -1</clus>
<clus scale="   86.969">  7  8 -1 -1</clus>
<clus scale="   91.467">  5  6 -1 -1</clus>
<clus scale="   92.564">  2  7  1 -1</clus>
<clus scale="   96.803">  1  5  2 -1</clus>
</clustering>
</event>
<event>
 9    1  0.1484717E-005  0.1935386E+03  0.7546771E-02  0.1155316E+00
         -1   -1    0    0    0  501 -0.00000000000E+00  0.00000000000E+00  0.70617530447E+02  0.70617530447E+02  0.00000000000E+00 0.  1.
          1   -1    0    0  502    0  0.00000000000E+00 -0.00000000000E+00 -0.10114993414E+04  0.10114993414E+04  0.00000000000E+00 0. -1.
         23    2    1    2    0    0  0.17859710111E+02  0.13132749223E+03 -0.15043415372E+03  0.22044621339E+03  0.91652708266E+02 0.  0.
         23    2    1    2    0    0 -0.74802403935E+02 -0.17170308197E+03 -0.75521126099E+03  0.78347691032E+03  0.91731522857E+02 0.  0.
        -11    1    4    4    0    0 -0.32409025864E+02 -0.32886129581E+01 -0.16771889022E+03  0.17085311255E+03  0.00000000000E+00 0.  1.
         11    1    4    4    0    0 -0.42393378072E+02 -0.16841446901E+03 -0.58749237078E+03  0.61262379777E+03  0.00000000000E+00 0. -1.
        -13    1    3    3    0    0  0.46113220398E+02  0.31602626125E+02 -0.38411060374E+02  0.67827462229E+02  0.00000000000E+00 0. -1.
         13    1    3    3    0    0 -0.28253510287E+02  0.99724866106E+02 -0.11202309335E+03  0.15261875116E+03  0.00000000000E+00 0.  1.
         21    1    1    2  502  501  0.56942693825E+02  0.40375589737E+02 -0.35236396232E+02  0.78193748126E+02  0.00000000000E+00 0.  1.
<scales pt_clust_5="13000.00000" pt_clust_6="13000.00000" pt_clust_7="13000.00000" pt_clust_8="13000.00000" pt_clust_9="69.80443"></scales>
<clustering>
<clus scale="   69.804">  1  9  2 -1</clus>
<clus scale="   91.653">  7  8 -1 -1</clus>
<clus scale="   91.732">  5  6 -1 -1</clus>
<clus scale="  193.501">  1  7  2 -1</clus>
<clus scale="  193.539">  2  5  1 -1</clus>
</clustering>
</event>
<event>
 9    1  0.1484717E-005  0.9820306E+02  0.7546771E-02  0.1284970E+00
          2   -1    0    0  502    0  0.00000000000E+00  0.00000000000E+00  0.31789746335E+03  0.31789746335E+03  0.00000000000E+00 0. -1.
         -2   -1    0    0    0  501 -0.00000000000E+00 -0.00000000000E+00 -0.65813031945E+02  0.65813031945E+02  0.00000000000E+00 0.  1.
         23    2    1    2    0    0  0.12610566131E+01 -0.15685744024E+02  0.24138529222E+02  0.93398987500E+02  0.88842948193E+02 0.  0.
         23    2    1    2    0    0 -0.35551228157E+02  0.29543881271E+02  0.23181429397E+03  0.25312510857E+03  0.90541277617E+02 0.  0.
        -11    1    3    3    0    0  0.28895329116E+02  0.18118786962E+02  0.34512070180E+02  0.48521268263E+02  0.00000000000E+00 0. -1.
         11    1    3    3    0    0 -0.27634272503E+02 -0.33804530986E+02 -0.10373540959E+02  0.44877719237E+02  0.00000000000E+00 0.  1.
        -11    1    4    4    0    0 -0.49336036431E+02 -0.53723150836E+01  0.63061421997E+02  0.80247424907E+02  0.00000000000E+00 0.  1.
         11    1    4    4    0    0  0.13784808273E+02  0.34916196354E+02  0.16875287198E+03  0.17287768366E+03  0.00000000000E+00 0. -1.
         21    1    1    2  502  501  0.34290171544E+02 -0.13858137247E+02 -0.38683917912E+01  0.37186399228E+02  0.00000000000E+00 0. -1.
<scales pt_clust_5="13000.00000" pt_clust_6="13000.00000" pt_clust_7="13000.00000" pt_clust_8="13000.00000" pt_clust_9="36.98464"></scales>
<clustering>
<clus scale="   36.985">  2  9  1 -1</clus>
<clus scale="   88.843">  5  6 -1 -1</clus>
<clus scale="   90.541">  7  8 -1 -1</clus>
<clus scale="   96.639">  2  5  1 -1</clus>
<clus scale="   98.203">  1  5  2 -1</clus>
</clustering>
</event>
<event>
 9    1  0.1484717E-005  0.9985165E+02  0.7546771E-02  0.1282555E+00
         -3   -1    0    0    0  501 -0.00000000000E+00  0.00000000000E+00  0.69824079781E+02  0.69824079781E+02  0.00000000000E+00 0.  1.
          3   -1    0    0  502    0  0.00000000000E+00 -0.00000000000E+00 -0.31968832066E+03  0.31968832066E+03  0.00000000000E+00 0. -1.
         23    2    1    2    0    0  0.40989115745E+02 -0.24517302646E+02 -0.25148363847E+02  0.10881221276E+03  0.94479901054E+02 0.  0.
         23    2    1    2    0    0 -0.14288857021E+02 -0.37627983591E+02 -0.11552168391E+03  0.15225443170E+03  0.90642793067E+02 0.  0.
        -11    1    3    3    0    0  0.67338084464E+02 -0.36745406350E+02 -0.20409764297E+02  0.79380104471E+02  0.00000000000E+00 0.  1.
         11    1    3    3    0    0 -0.26348968719E+02  0.12228103703E+02 -0.47385995491E+01  0.29432108290E+02  0.00000000000E+00 0. -1.
        -13    1    4    4    0    0  0.37630405078E+02 -0.26375422614E+02 -0.56986434861E+02  0.73206311631E+02  0.00000000000E+00 0.  1.
         13    1    4    4    0    0 -0.51919262098E+02 -0.11252560977E+02 -0.58535249049E+02  0.79048120070E+02  0.00000000000E+00 0. -1.
         21    1    1    2  502  501 -0.26700258725E+02  0.62145286238E+02 -0.10919419312E+03  0.12844575598E+03  0.00000000000E+00 0. -1.
<scales pt_clust_5="13000.00000" pt_clust_6="13000.00000" pt_clust_7="13000.00000" pt_clust_8="13000.00000" pt_clust_9="67.63831"></scales>
<clustering>
<clus scale="   67.638">  2  9  1 -1</clus>
<clus scale="   90.643">  7  8 -1 -1</clus>
<clus scale="   94.480">  5  6 -1 -1</clus>
<clus scale="   96.229">  2  7  1 -1</clus>
<clus scale="   67.638">  2  5  1 -1</clus>
</clustering>
</event>
<event>
 9    1  0.1484717E-005  0.9403239E+02  0.7546771E-02  0.1293642E+00
          1   -1    0    0  502    0  0.00000000000E+00  0.00000000000E+00  0.20369394694E+03  0.20369394694E+03  0.00000000000E+00 0. -1.
         -1   -1    0    0    0  501 -0.00000000000E+00 -0.00000000000E+00 -0.95244455841E+02  0.95244455841E+02  0.00000000000E+00 0.  1.
         23    2    1    2    0    0 -0.72213411424E+01  0.12403954095E+02 -0.31992853462E+02  0.98243144026E+02  0.91772364198E+02 0.  0.
         23    2    1    2    0    0  0.30914051295E+02 -0.22512726331E+02  0.58881872199E+02  0.11516372982E+03  0.91285860775E+02 0.  0.
        -11    1    3    3    0    0  0.10386532757E+02  0.47591904970E+02 -0.33076649929E+02  0.58880678086E+02  0.00000000000E+00 0.  1.
         11    1    3    3    0    0 -0.17607873899E+02 -0.35187950875E+02  0.10837964664E+01  0.39362465940E+02  0.00000000000E+00 0. -1.
        -11    1    4    4    0    0 -0.25169461142E+02  0.14568246700E+02  0.61668788551E+01  0.29728201777E+02  0.00000000000E+00 0.  1.
         11    1    4    4    0    0  0.56083512437E+02 -0.37080973031E+02  0.52714993344E+02  0.85435528040E+02  0.00000000000E+00 0. -1.
         21    1    1    2  502  501 -0.23692710152E+02  0.10108772236E+02  0.81560472360E+02  0.85531528936E+02  0.00000000000E+00 0. -1.
<scales pt_clust_5="13000.00000" pt_clust_6="13000.00000" pt_clust_7="13000.00000" pt_clust_8="13000.00000" pt_clust_9="25.75911"></scales>
<clustering>
<clus scale="   25.759">  1  9  2 -1</clus>
<clus scale="   91.286">  7  8 -1 -1</clus>
<clus scale="   91.772">  5  6 -1 -1</clus>
<clus scale="   93.558">  1  7  2 -1</clus>
<clus scale="   25.759">  1  5  2 -1</clus>
</clustering>
</event>
<event>
 9    1  0.1484717E-005  0.1026507E+03  0.7546771E-02  0.1275193E+00
          1   -1    0    0  502    0  0.00000000000E+00  0.00000000000E+00  0.94872891431E+03  0.94872891431E+03  0.00000000000E+00 0. -1.
         -1   -1    0    0    0  501 -0.00000000000E+00 -0.00000000000E+00 -0.15477156980E+02  0.15477156980E+02  0.00000000000E+00 0.  1.
         23    2    1    2    0    0  0.20222388805E+02  0.27864668930E+02  0.32755366014E+03  0.34149093667E+03  0.90217929353E+02 0.  0.
         23    2    1    2    0    0 -0.35678159758E+02 -0.55822008698E+02  0.47767863043E+03  0.49077015528E+03  0.91046381609E+02 0.  0.
        -11    1    4    4    0    0 -0.34295162483E+02  0.16048224301E+02  0.11620214881E+03  0.12221555982E+03  0.00000000000E+00 0.  1.
         11    1    4    4    0    0 -0.13829972749E+01 -0.71870232999E+02  0.36147648162E+03  0.36855459546E+03  0.00000000000E+00 0. -1.
        -11    1    3    3    0    0 -0.26904235541E+02  0.30318805562E+02  0.22471702743E+03  0.22834362325E+03  0.00000000000E+00 0. -1.
         11    1    3    3    0    0  0.47126624346E+02 -0.24541366325E+01  0.10283663271E+03  0.11314731343E+03  0.00000000000E+00 0.  1.
         21    1    1    2  502  501  0.15455770953E+02  0.27957339768E+02  0.12801946676E+03  0.13194497933E+03  0.00000000000E+00 0.  1.
<scales pt_clust_5="13000.00000" pt_clust_6="13000.00000" pt_clust_7="13000.00000" pt_clust_8="13000.00000" pt_clust_9="31.94517"></scales>
<clustering>
<clus scale="   31.945">  1  9  2 -1</clus>
<clus scale="   90.218">  7  8 -1 -1</clus>
<clus scale="   91.046">  5  6 -1 -1</clus>
<clus scale="  101.917">  2  7  1 -1</clus>
<clus scale="   31.945">  1  5  2 -1</clus>
</clustering>
</event>
<event>
 9    1  0.1484717E-005  0.1210881E+03  0.7546771E-02  0.1241773E+00
          1   -1    0    0  502    0  0.00000000000E+00  0.00000000000E+00  0.43555590302E+03  0.43555590302E+03  0.00000000000E+00 0. -1.
         -1   -1    0    0    0  501 -0.00000000000E+00 -0.00000000000E+00 -0.76835198181E+02  0.76835198181E+02  0.00000000000E+00 0.  1.
         23    2    1    2    0    0  0.93974333254E+02  0.20679900990E+02  0.20827179605E+02  0.13245690653E+03  0.88612792883E+02 0.  0.
         23    2    1    2    0    0 -0.79603890757E+02  0.15467195300E+02  0.31004925163E+03  0.33209670142E+03  0.87072769014E+02 0.  0.
        -11    1    3    3    0    0  0.62243308965E+02 -0.18253174962E+01 -0.29453276759E+02  0.68884372733E+02  0.00000000000E+00 0.  1.
         11    1    3    3    0    0  0.31731024288E+02  0.22505218486E+02  0.50280456365E+02  0.63572533800E+02  0.00000000000E+00 0. -1.
        -13    1    4    4    0    0 -0.12753255027E-01  0.27959044880E+02  0.31443804129E+02  0.42076373077E+02  0.00000000000E+00 0.  1.
         13    1    4    4    0    0 -0.79591137502E+02 -0.12491849580E+02  0.27860544750E+03  0.29002032834E+03  0.00000000000E+00 0. -1.
         21    1    1    2  502  501 -0.14370442497E+02 -0.36147096290E+02  0.27844273606E+02  0.47837493250E+02  0.00000000000E+00 0.  1.
<scales pt_clust_5="13000.00000" pt_clust_6="13000.00000" pt_clust_7="13000.00000" pt_clust_8="13000.00000" pt_clust_9="38.89887"></scales>
<clustering>
<clus scale="   38.899">  2  9  1 -1</clus>
<clus scale="   87.073">  7  8 -1 -1</clus>
<clus scale="   88.613">  5  6 -1 -1</clus>
<clus scale="  119.966">  1  7  2 -1</clus>
<clus scale="  119.966">  1  5  2 -1</clus>
</clustering>
</event>
<event>
 9    1  0.1484717E-005  0.1081393E+03  0.7546771E-02  0.1279418E+00
         -2   -1    0    0    0  501 -0.00000000000E+00  0.00000000000E+00  0.18039756350E+03  0.18039756350E+03  0.00000000000E+00 0. -1.
          2   -1    0    0  502    0  0.00000000000E+00 -0.00000000000E+00 -0.21153264766E+03  0.21153264766E+03  0.00000000000E+00 0.  1.
         23    2    1    2    0    0  0.68343519824E+02 -0.32553108558E+01 -0.21848283597E+02  0.91454244339E+02  0.56613581063E+02 0.  0.
         23    2    1    2    0    0 -0.50684667305E+02 -0.11622479319E+02 -0.13573612056E+03  0.17193564537E+03  0.91834384633E+02 0.  0.
        -11    1    3    3    0    0  0.19878716811E+02  0.16177284547E+02  0.12940388480E+02  0.28711000877E+02  0.00000000000E+00 0.  1.
         11    1    3    3    0    0  0.48464803013E+02 -0.19432595403E+02 -0.34788672077E+02  0.62743243462E+02  0.00000000000E+00 0. -1.
        -13    1    4    4    0    0 -0.29757179101E+01 -0.45024647970E+02 -0.42388591062E+02  0.61910148393E+02  0.00000000000E+00 0. -1.
         13    1    4    4    0    0 -0.47708949395E+02  0.33402168651E+02 -0.93347529495E+02  0.11002549698E+03  0.00000000000E+00 0.  1.
         21    1    1    2  502  501 -0.17658852519E+02  0.14877790174E+02  0.12644931999E+03  0.12854032145E+03  0.00000000000E+00 0. -1.
<scales pt_clust_5="13000.00000" pt_clust_6="13000.00000" pt_clust_7="13000.00000" pt_clust_8="13000.00000" pt_clust_9="23.09077"></scales>
<clustering>
<clus scale="   23.091">  1  9  2 -1</clus>
<clus scale="   56.614">  5  6 -1 -1</clus>
<clus scale="   80.409">  1  5  2 -1</clus>
<clus scale="   91.834">  7  8 -1 -1</clus>
<clus scale="  108.139">  2  5  1 -1</clus>
</clustering>
</event>
<event>
 9    1  0.1484717E-005  0.9762962E+02  0.7546771E-02  0.1287392E+00
          1   -1    0    0  502    0  0.00000000000E+00  0.00000000000E+00  0.73507360819E+02  0.73507360819E+02  0.00000000000E+00 0. -1.
         -1   -1    0    0    0  501 -0.00000000000E+00 -0.00000000000E+00 -0.20036460086E+03  0.20036460086E+03  0.00000000000E+00 0.  1.
         23    2    1    2    0    0 -0.12386832814E+02 -0.26199961446E+02 -0.53126265782E+02  0.10985576938E+03  0.91684340777E+02 0.  0.
         23    2    1    2    0    0 -0.13594506391E+02  0.16297620916E+02 -0.14835568773E+02  0.98887434268E+02  0.95436929454E+02 0.  0.
        -11    1    3    3    0    0 -0.92629319958E+01  0.34062684963E+02 -0.25148572612E+02  0.43341886443E+02  0.00000000000E+00 0. -1.
         11    1    3    3    0    0 -0.31239008182E+01 -0.60262646409E+02 -0.27977693171E+02  0.66513882939E+02  0.00000000000E+00 0.  1.
        -13    1    4    4    0    0  0.23843975395E+02 -0.28570448621E+02 -0.15836881268E+02  0.40442706454E+02  0.00000000000E+00 0.  1.
         13    1    4    4    0    0 -0.37438481786E+02  0.44868069537E+02  0.10013124950E+01  0.58444727813E+02  0.00000000000E+00 0. -1.
         21    1    1    2  502  501  0.25981339205E+02  0.99023405291E+01 -0.58895405483E+02  0.65128758024E+02  0.00000000000E+00 0.  1.
<scales pt_clust_5="13000.00000" pt_clust_6="13000.00000" pt_clust_7="13000.00000" pt_clust_8="13000.00000" pt_clust_9="27.80443"></scales>
<clustering>
<clus scale="   27.804">  2  9  1 -1</clus>
<clus scale="   91.684">  5  6 -1 -1</clus>
<clus scale="   93.965">  2  5  1 -1</clus>
<clus scale="   95.437">  7  8 -1 -1</clus>
<clus scale="   97.630">  1  5  2 -1</clus>
</clustering>
</event>
<event>
 9    1  0.1484717E-005  0.1972152E+03  0.7546771E-02  0.1152172E+00
         -4   -1    0    0    0  501 -0.00000000000E+00  0.00000000000E+00  0.89726214744E+02  0.89726214744E+02  0.00000000000E+00 0.  1.
          4   -1    0    0  502    0  0.00000000000E+00 -0.00000000000E+00 -0.10362963420E+04  0.10362963420E+04  0.00000000000E+00 0. -1.
         23    2    1    2    0    0 -0.10712365747E+03 -0.13150214765E+03 -0.66861802364E+02  0.20321163210E+03  0.89756191850E+02 0.  0.
         23    2    1    2    0    0  0.14727028506E+03  0.98873857092E+02 -0.81994085703E+03  0.84376342459E+03  0.90383246141E+02 0.  0.
        -11    1    3    3    0    0 -0.12000410633E+03 -0.10883006546E+03 -0.42403362259E+02  0.16746048434E+03  0.00000000000E+00 0.  1.
         11    1    3    3    0    0  0.12880448854E+02 -0.22672082198E+02 -0.24458440106E+02  0.35751147761E+02  0.00000000000E+00 0. -1.
        -13    1    4    4    0    0  0.35537365799E+02  0.73647337022E+01 -0.59232831635E+02  0.69467057041E+02  0.00000000000E+00 0.  1.
         13    1    4    4    0    0  0.11173291926E+03  0.91509123390E+02 -0.76070802539E+03  0.77429636755E+03  0.00000000000E+00 0. -1.
         21    1    1    2  502  501 -0.40146627581E+02  0.32628290563E+02 -0.59767467896E+02  0.79047500086E+02  0.00000000000E+00 0.  1.
<scales pt_clust_5="13000.00000" pt_clust_6="13000.00000" pt_clust_7="13000.00000" pt_clust_8="13000.00000" pt_clust_9="51.73352"></scales>
<clustering>
<clus scale="   51.734">  1  9  2 -1</clus>
<clus scale="   89.756">  5  6 -1 -1</clus>
<clus scale="   90.383">  7  8 -1 -1</clus>
<clus scale="  196.929">  1  5  2 -1</clus>
<clus scale="  197.215">  2  5  1 -1</clus>
</clustering>
</event>
<event>
 9    1  0.1484717E-005  0.9247750E+02  0.7546771E-02  0.1304384E+00
          1   -1    0    0  502    0  0.00000000000E+00  0.00000000000E+00  0.15322023100E+03  0.15322023100E+03  0.00000000000E+00 0. -1.
         -1   -1    0    0    0  501 -0.00000000000E+00 -0.00000000000E+00 -0.67990061102E+02  0.67990061102E+02  0.00000000000E+00 0.  1.
         23    2    1    2    0    0 -0.15667064012E+02 -0.17549088132E+02  0.35048634438E+02  0.88772058853E+02  0.78093817092E+02 0.  0.
         23    2    1    2    0    0 -0.49683596723E+01  0.21416950049E+02  0.58590554876E+02  0.10982202946E+03  0.90247740614E+02 0.  0.
        -11    1    4    4    0    0  0.34047825390E+02 -0.72447062435E+01  0.13257574377E+01  0.34835295537E+02  0.00000000000E+00 0.  1.
         11    1    4    4    0    0 -0.39016185062E+02  0.28661656293E+02  0.57264797438E+02  0.74986733920E+02  0.00000000000E+00 0. -1.
        -11    1    3    3    0    0  0.29392573489E+02  0.41413680673E+01  0.22406434006E+02  0.37190356151E+02  0.00000000000E+00 0.  1.
         11    1    3    3    0    0 -0.45059637501E+02 -0.21690456199E+02  0.12642200432E+02  0.51581702702E+02  0.00000000000E+00 0. -1.
         21    1    1    2  502  501  0.20635423684E+02 -0.38678619171E+01 -0.84090194168E+01  0.22616203792E+02  0.00000000000E+00 0.  1.
<scales pt_clust_5="13000.00000" pt_clust_6="13000.00000" pt_clust_7="13000.00000" pt_clust_8="13000.00000" pt_clust_9="20.99479"></scales>
<clustering>
<clus scale="   20.995">  2  9  1 -1</clus>
<clus scale="   78.094">  7  8 -1 -1</clus>
<clus scale="   80.660">  2  7  1 -1</clus>
<clus scale="   90.248">  5  6 -1 -1</clus>
<clus scale="   92.478">  1  5  2 -1</clus>
</clustering>
</event>
<event>
 9    1  0.1484717E-005  0.1127629E+03  0.7546771E-02  0.1256589E+00
         -2   -1    0    0    0  501 -0.00000000000E+00  0.00000000000E+00  0.37581726374E+03  0.37581726374E+03  0.00000000000E+00 0.  1.
          2   -1    0    0  502    0  0.00000000000E+00 -0.00000000000E+00 -0.36369942702E+03  0.36369942702E+03  0.00000000000E+00 0. -1.
         23    2    1    2    0    0  0.10243213112E+02  0.73336136839E+02  0.34068384617E+03  0.36100015353E+03  0.93661707353E+02 0.  0.
         23    2    1    2    0    0  0.50432999860E+01 -0.57943751005E+02 -0.33695023864E+03  0.35525931634E+03  0.96388823892E+02 0.  0.
        -11    1    3    3    0    0 -0.23584611342E+02  0.41677511988E+02  0.61234905939E+02  0.77736494666E+02  0.00000000000E+00 0. -1.
         11    1    3    3    0    0  0.33827824454E+02  0.31658624851E+02  0.27944894023E+03  0.28326365886E+03  0.00000000000E+00 0.  1.
        -13    1    4    4    0    0  0.83524304257E+01 -0.81544144265E+02 -0.30221902528E+03  0.31313822794E+03  0.00000000000E+00 0. -1.
         13    1    4    4    0    0 -0.33091304397E+01  0.23600393260E+02 -0.34731213362E+02  0.42121088399E+02  0.00000000000E+00 0.  1.
         21    1    1    2  502  501 -0.15286513098E+02 -0.15392385835E+02  0.83842291925E+01  0.23257220890E+02  0.00000000000E+00 0. -1.
<scales pt_clust_5="13000.00000" pt_clust_6="13000.00000" pt_clust_7="13000.00000" pt_clust_8="13000.00000" pt_clust_9="21.69339"></scales>
<clustering>
<clus scale="   21.693">  1  9  2 -1</clus>
<clus scale="   93.662">  5  6 -1 -1</clus>
<clus scale="   96.389">  7  8 -1 -1</clus>
<clus scale="  110.441">  1  5  2 -1</clus>
<clus scale="  112.763">  2  5  1 -1</clus>
</clustering>
</event>
<event>
 9    1  0.1484717E-005  0.2072055E+03  0.7546771E-02  0.1147359E+00
          1   -1    0    0  502    0  0.00000000000E+00  0.00000000000E+00  0.62833470519E+03  0.62833470519E+03  0.00000000000E+00 0. -1.
         -1   -1    0    0    0  501 -0.00000000000E+00 -0.00000000000E+00 -0.39211457787E+03  0.39211457787E+03  0.00000000000E+00 0.  1.
         23    2    1    2    0    0 -0.12179794789E+03 -0.11395216307E+03 -0.22837096294E+03  0.29727438473E+03  0.91645662863E+02 0.  0.
         23    2    1    2    0    0  0.18580231948E+03 -0.66727031176E+02  0.48374629856E+03  0.53053935431E+03  0.92122345245E+02 0.  0.
        -11    1    3    3    0    0 -0.10267711080E+03 -0.12843237437E+03 -0.18348660278E+03  0.24638343546E+03  0.00000000000E+00 0.  1.
         11    1    3    3    0    0 -0.19120837088E+02  0.14480211301E+02 -0.44884360157E+02  0.50890949264E+02  0.00000000000E+00 0. -1.
        -13    1    4    4    0    0  0.89877786253E+02 -0.51194870622E+02  0.14487352077E+03  0.17800918027E+03  0.00000000000E+00 0.  1.
         13    1    4    4    0    0  0.95924533223E+02 -0.15532160554E+02  0.33887277779E+03  0.35253017404E+03  0.00000000000E+00 0. -1.
         21    1    1    2  502  501 -0.64004371585E+02  0.18067919425E+03 -0.19155208296E+02  0.19263554402E+03  0.00000000000E+00 0.  1.
<scales pt_clust_5="13000.00000" pt_clust_6="13000.00000" pt_clust_7="13000.00000" pt_clust_8="13000.00000" pt_clust_9="185.60058"></scales>
<clustering>
<clus scale="   91.646">  5  6 -1 -1</clus>
<clus scale="   92.122">  7  8 -1 -1</clus>
<clus scale="  190.312">  2  5  1 -1</clus>
<clus scale="  185.601">  2  9  1 -1</clus>
<clus scale="  207.205">  1  5  2 -1</clus>
</clustering>
</event>
<event>
 9    1  0.1484717E-005  0.1515790E+03  0.7546771E-02  0.1199186E+00
          1   -1    0    0  502    0  0.00000000000E+00  0.00000000000E+00  0.14122957069E+03  0.14122957069E+03  0.00000000000E+00 0. -1.
         -1   -1    0    0    0  501 -0.00000000000E+00 -0.00000000000E+00 -0.41685765567E+03  0.41685765567E+03  0.00000000000E+00 0.  1.
         23    2    1    2    0    0 -0.90397506909E+02  0.11700915168E+03 -0.10955938237E+03  0.20676901421E+03  0.94272563028E+02 0.  0.
         23    2    1    2    0    0  0.12596196324E+03  0.99372798877E+01 -0.23943266194E+02  0.15746293955E+03  0.90863257812E+02 0.  0.
        -13    1    3    3    0    0 -0.48308056796E+02 -0.26689466816E+01 -0.26975537570E+02  0.55393783541E+02  0.00000000000E+00 0. -1.
         13    1    3    3    0    0 -0.42089450113E+02  0.11967809836E+03 -0.82583844797E+02  0.15137523067E+03  0.00000000000E+00 0.  1.
        -13    1    4    4    0    0  0.75170345642E+02 -0.34238405152E+02  0.79360949933E+01  0.82980906569E+02  0.00000000000E+00 0. -1.
         13    1    4    4    0    0  0.50791617596E+02  0.44175685039E+02 -0.31879361187E+02  0.74482032978E+02  0.00000000000E+00 0.  1.
         21    1    1    2  502  501 -0.35564456329E+02 -0.12694643157E+03 -0.14212543641E+03  0.19385527261E+03  0.00000000000E+00 0. -1.
<scales pt_clust_5="13000.00000" pt_clust_6="13000.00000" pt_clust_7="13000.00000" pt_clust_8="13000.00000" pt_clust_9="131.83409"></scales>
<clustering>
<clus scale="   90.863">  7  8 -1 -1</clus>
<clus scale="   94.273">  5  6 -1 -1</clus>
<clus scale="  131.834">  2  9  1 -1</clus>
<clus scale="  149.482">  1  7  2 -1</clus>
<clus scale="  149.482">  1  5  2 -1</clus>
</clustering>
</event>
<event>
 9    1  0.1484717E-005  0.3531480E+03  0.7546771E-02  0.1061336E+00
         -1   -1    0    0    0  501 -0.00000000000E+00  0.00000000000E+00  0.16692829340E+03  0.16692829340E+03  0.00000000000E+00 0.  1.
          1   -1    0    0  502    0  0.00000000000E+00 -0.00000000000E+00 -0.17788061866E+04  0.17788061866E+04  0.00000000000E+00 0. -1.
         23    2    1    2    0    0 -0.18650594530E+03  0.31281105726E+03 -0.72266647504E+03  0.81444908181E+03  0.91898027997E+02 0.  0.
         23    2    1    2    0    0  0.19328738868E+03 -0.26382013292E+03 -0.97488567032E+03  0.10323602946E+04  0.91676772143E+02 0.  0.
        -11    1    3    3    0    0 -0.15353608504E+03  0.27551684557E+03 -0.54243700273E+03  0.62747172330E+03  0.00000000000E+00 0. -1.
         11    1    3    3    0    0 -0.32969860254E+02  0.37294211687E+02 -0.18022947231E+03  0.18697735852E+03  0.00000000000E+00 0.  1.
        -13    1    4    4    0    0  0.13462812799E+03 -0.23498354858E+03 -0.72063732858E+03  0.76984424418E+03  0.00000000000E+00 0.  1.
         13    1    4    4    0    0  0.58659260695E+02 -0.28836584338E+02 -0.25424834174E+03  0.26251605044E+03  0.00000000000E+00 0. -1.
         21    1    1    2  502  501 -0.67814433849E+01 -0.48990924338E+02  0.85674252135E+02  0.98925103592E+02  0.00000000000E+00 0.  1.
<scales pt_clust_5="13000.00000" pt_clust_6="13000.00000" pt_clust_7="13000.00000" pt_clust_8="13000.00000" pt_clust_9="49.45805"></scales>
<clustering>
<clus scale="   49.458">  1  9  2 -1</clus>
<clus scale="   91.677">  7  8 -1 -1</clus>
<clus scale="   91.898">  5  6 -1 -1</clus>
<clus scale="  353.090">  2  7  1 -1</clus>
<clus scale="  353.090">  2  5  1 -1</clus>
</clustering>
</event>
<event>
 9    1  0.1484717E-005  0.2125371E+03  0.7546771E-02  0.1139630E+00
          2   -1    0    0  502    0  0.00000000000E+00  0.00000000000E+00  0.56412682749E+03  0.56412682749E+03  0.00000000000E+00 0. -1.
         -2   -1    0    0    0  501 -0.00000000000E+00 -0.00000000000E+00 -0.19047066792E+03  0.19047066792E+03  0.00000000000E+00 0.  1.
         23    2    1    2    0    0 -0.36634704143E+01  0.16995620493E+03 -0.90891332936E+02  0.21314945365E+03  0.90955607746E+02 0.  0.
         23    2    1    2    0    0  0.11950168772E+02 -0.19480559438E+03  0.46775499932E+03  0.51505770971E+03  0.91638849884E+02 0.  0.
        -13    1    3    3    0    0  0.20625877970E+02  0.15733821176E+03 -0.54858033557E+02  0.16789920657E+03  0.00000000000E+00 0.  1.
         13    1    3    3    0    0 -0.24289348385E+02  0.12617993165E+02 -0.36033299379E+02  0.45250247078E+02  0.00000000000E+00 0. -1.
        -13    1    4    4    0    0 -0.22755030607E+01 -0.10319480245E+03  0.13685920044E+03  0.17141991107E+03  0.00000000000E+00 0.  1.
         13    1    4    4    0    0  0.14225671833E+02 -0.91610791933E+02  0.33089579889E+03  0.34363779865E+03  0.00000000000E+00 0. -1.
         21    1    1    2  502  501 -0.82866983581E+01  0.24849389454E+02 -0.32075068193E+01  0.26390332054E+02  0.00000000000E+00 0. -1.
<scales pt_clust_5="13000.00000" pt_clust_6="13000.00000" pt_clust_7="13000.00000" pt_clust_8="13000.00000" pt_clust_9="26.19469"></scales>
<clustering>
<clus scale="   26.195">  2  9  1 -1</clus>
<clus scale="   90.956">  5  6 -1 -1</clus>
<clus scale="   91.639">  7  8 -1 -1</clus>
<clus scale="  212.243">  2  5  1 -1</clus>
<clus scale="  212.537">  1  5  2 -1</clus>
</clustering>
</event>
<event>
 9    1  0.1484717E-005  0.1061440E+03  0.7546771E-02  0.1271347E+00
          2   -1    0    0  502    0  0.00000000000E+00  0.00000000000E+00  0.96492541943E+03  0.96492541943E+03  0.00000000000E+00 0. -1.
         -2   -1    0    0    0  501 -0.00000000000E+00 -0.00000000000E+00 -0.24086099669E+02  0.24086099669E+02  0.00000000000E+00 0.  1.
         23    2    1    2    0    0 -0.32193064366E+02 -0.92777108199E+01  0.13918975777E+03  0.16890938391E+03  0.89633263878E+02 0.  0.
         23    2    1    2    0    0  0.77045270469E+02  0.20933925639E+02  0.62029758643E+03  0.63292273788E+03  0.97200274970E+02 0.  0.
        -11    1    3    3    0    0 -0.51077561567E+02  0.24661741072E+02  0.86919044810E+02  0.10378843442E+03  0.00000000000E+00 0.  1.
         11    1    3    3    0    0  0.18884497201E+02 -0.33939451892E+02  0.52270712959E+02  0.65120949490E+02  0.00000000000E+00 0. -1.
        -11    1    4    4    0    0 -0.53622749594E+01 -0.24909763194E+02  0.67692584046E+02  0.72329359392E+02  0.00000000000E+00 0.  1.
         11    1    4    4    0    0  0.82407545428E+02  0.45843688833E+02  0.55260500238E+03  0.56059337849E+03  0.00000000000E+00 0. -1.
         21    1    1    2  502  501 -0.44852206103E+02 -0.11656214820E+02  0.18135197557E+03  0.18717939731E+03  0.00000000000E+00 0.  1.
<scales pt_clust_5="13000.00000" pt_clust_6="13000.00000" pt_clust_7="13000.00000" pt_clust_8="13000.00000" pt_clust_9="46.34207"></scales>
<clustering>
<clus scale="   46.342">  1  9  2 -1</clus>
<clus scale="   89.633">  5  6 -1 -1</clus>
<clus scale="   97.200">  7  8 -1 -1</clus>
<clus scale="   99.261">  2  5  1 -1</clus>
<clus scale="   46.342">  1  5  2 -1</clus>
</clustering>
</event>
<event>
 9    1  0.1484717E-005  0.9233457E+02  0.7546771E-02  0.1297517E+00
          1   -1    0    0  502    0  0.00000000000E+00  0.00000000000E+00  0.32036080464E+03  0.32036080464E+03  0.00000000000E+00 0. -1.
         -1   -1    0    0    0  501 -0.00000000000E+00 -0.00000000000E+00 -0.17238334435E+03  0.17238334435E+03  0.00000000000E+00 0.  1.
         23    2    1    2    0    0  0.37860261376E+02  0.31018937873E+02 -0.49498440492E+02  0.11440178781E+03  0.90786009629E+02 0.  0.
         23    2    1    2    0    0 -0.12488100936E+02  0.27024989274E+01  0.27504157244E+03  0.29003995325E+03  0.91170454358E+02 0.  0.
        -11    1    3    3    0    0  0.28877315472E+02  0.55320886163E+02 -0.46120570027E+01  0.62574522488E+02  0.00000000000E+00 0.  1.
         11    1    3    3    0    0  0.89829459036E+01 -0.24301948291E+02 -0.44886383489E+02  0.51827265320E+02  0.00000000000E+00 0. -1.
        -13    1    4    4    0    0 -0.39000082207E+02  0.33319023891E+02  0.16454935861E+03  0.17235908791E+03  0.00000000000E+00 0.  1.
         13    1    4    4    0    0  0.26511981271E+02 -0.30616524963E+02  0.11049221383E+03  0.11768086534E+03  0.00000000000E+00 0. -1.
         21    1    1    2  502  501 -0.25372160440E+02 -0.33721436800E+02 -0.77565671666E+02  0.88302407930E+02  0.00000000000E+00 0.  1.
<scales pt_clust_5="13000.00000" pt_clust_6="13000.00000" pt_clust_7="13000.00000" pt_clust_8="13000.00000" pt_clust_9="42.20050"></scales>
<clustering>
<clus scale="   42.200">  2  9  1 -1</clus>
<clus scale="   90.786">  5  6 -1 -1</clus>
<clus scale="   91.170">  7  8 -1 -1</clus>
<clus scale="   91.955">  2  5  1 -1</clus>
<clus scale="   92.335">  1  5  2 -1</clus>
</clustering>
</event>
<event>
 9    1  0.1484717E-005  0.1737788E+03  0.7546771E-02  0.1174082E+00
          1   -1    0    0  502    0  0.00000000000E+00  0.00000000000E+00  0.64092758604E+03  0.64092758604E+03  0.00000000000E+00 0. -1.
         -1   -1    0    0    0  501 -0.00000000000E+00 -0.00000000000E+00 -0.15160309262E+03  0.15160309262E+03  0.00000000000E+00 0.  1.
         23    2    1    2    0    0 -0.19458775607E+03 -0.64962751586E+02  0.32236896949E+03  0.39284074673E+03  0.91200580562E+02 0.  0.
         23    2    1    2    0    0  0.59114284473E+02  0.10988468930E+03  0.20073615715E+03  0.25301964464E+03  0.90303888160E+02 0.  0.
        -11    1    4    4    0    0  0.24822194443E+02  0.92342180746E+02  0.19052008551E+03  0.21316923480E+03  0.00000000000E+00 0. -1.
         11    1    4    4    0    0  0.34292090030E+02  0.17542508550E+02  0.10216071639E+02  0.39850409842E+02  0.00000000000E+00 0.  1.
        -13    1    3    3    0    0 -0.30291694616E+02  0.96637636200E+01  0.10825616230E+03  0.11282894915E+03  0.00000000000E+00 0. -1.
         13    1    3    3    0    0 -0.16429606145E+03 -0.74626515206E+02  0.21411280718E+03  0.28001179757E+03  0.00000000000E+00 0.  1.
         21    1    1    2  502  501  0.13547347160E+03 -0.44921937710E+02 -0.33780633222E+02  0.14667028729E+03  0.00000000000E+00 0.  1.
<scales pt_clust_5="13000.00000" pt_clust_6="13000.00000" pt_clust_7="13000.00000" pt_clust_8="13000.00000" pt_clust_9="142.72716"></scales>
<clustering>
<clus scale="   90.304">  5  6 -1 -1</clus>
<clus scale="   91.201">  7  8 -1 -1</clus>
<clus scale="  142.727">  2  9  1 -1</clus>
<clus scale="  173.310">  1  5  2 -1</clus>
<clus scale="  173.310">  1  5  2 -1</clus>
</clustering>
</event>
<event>
 9    1  0.1484717E-005  0.1011231E+03  0.7546771E-02  0.1280233E+00
          1   -1    0    0  502    0  0.00000000000E+00  0.00000000000E+00  0.13892688765E+03  0.13892688765E+03  0.00000000000E+00 0. -1.
         -1   -1    0    0    0  501 -0.00000000000E+00 -0.00000000000E+00 -0.91565616101E+02  0.91565616101E+02  0.00000000000E+00 0.  1.
         23    2    1    2    0    0  0.14345005684E+01 -0.26313554182E+02  0.57727469248E+01  0.92906797507E+02  0.88903810325E+02 0.  0.
         23    2    1    2    0    0 -0.48852975168E+01  0.47420387043E+02  0.47703438620E+02  0.11534163813E+03  0.93570915308E+02 0.  0.
        -13    1    4    4    0    0  0.21911439713E+02 -0.75624182257E+01  0.48953129826E+02  0.54163735834E+02  0.00000000000E+00 0.  1.
         13    1    4    4    0    0 -0.26796737230E+02  0.54982805269E+02 -0.12496912067E+01  0.61177902298E+02  0.00000000000E+00 0. -1.
        -13    1    3    3    0    0  0.38241353572E+02 -0.36160230249E+02 -0.61383217589E+01  0.52987190610E+02  0.00000000000E+00 0.  1.
         13    1    3    3    0    0 -0.36806853004E+02  0.98466760673E+01  0.11911068684E+02  0.39919606897E+02  0.00000000000E+00 0. -1.
         21    1    1    2  502  501  0.34507969484E+01 -0.21106832862E+02 -0.61149139956E+01  0.22244068113E+02  0.00000000000E+00 0.  1.
<scales pt_clust_5="13000.00000" pt_clust_6="13000.00000" pt_clust_7="13000.00000" pt_clust_8="13000.00000" pt_clust_9="21.38706"></scales>
<clustering>
<clus scale="   21.387">  2  9  1 -1</clus>
<clus scale="   88.904">  7  8 -1 -1</clus>
<clus scale="   93.571">  5  6 -1 -1</clus>
<clus scale="   96.821">  2  7  1 -1</clus>
<clus scale="  101.123">  1  5  2 -1</clus>
</clustering>
</event>
<event>
 9    1  0.1484717E-005  0.1319267E+03  0.7546771E-02  0.1224758E+00
          2   -1    0    0  502    0  0.00000000000E+00  0.00000000000E+00  0.52878962954E+03  0.52878962954E+03  0.00000000000E+00 0. -1.
         -2   -1    0    0    0  501 -0.00000000000E+00 -0.00000000000E+00 -0.45563161849E+02  0.45563161849E+02  0.00000000000E+00 0.  1.
         23    2    1    2    0    0 -0.79680261748E+02  0.22916036388E+02  0.11413772316E+03  0.16811067264E+03  0.91431338024E+02 0.  0.
         23    2    1    2    0    0  0.89440393820E+02 -0.48502106530E+02  0.33968482036E+03  0.36606130343E+03  0.90901387750E+02 0.  0.
        -11    1    3    3    0    0 -0.64937276110E+02  0.54645338268E+02  0.97819023184E+02  0.12950491929E+03  0.00000000000E+00 0. -1.
         11    1    3    3    0    0 -0.14742985638E+02 -0.31729301880E+02  0.16318699974E+02  0.38605753356E+02  0.00000000000E+00 0.  1.
        -13    1    4    4    0    0  0.93073916421E+02 -0.79156148194E+01  0.20357373863E+03  0.22398142320E+03  0.00000000000E+00 0.  1.
         13    1    4    4    0    0 -0.36335226008E+01 -0.40586491711E+02  0.13611108173E+03  0.14207988023E+03  0.00000000000E+00 0. -1.
         21    1    1    2  502  501 -0.97601320714E+01  0.25586070142E+02  0.29403924169E+02  0.40180815321E+02  0.00000000000E+00 0.  1.
<scales pt_clust_5="13000.00000" pt_clust_6="13000.00000" pt_clust_7="13000.00000" pt_clust_8="13000.00000" pt_clust_9="27.38443"></scales>
<clustering>
<clus scale="   27.384">  2  9  1 -1</clus>
<clus scale="   90.901">  7  8 -1 -1</clus>
<clus scale="   91.431">  5  6 -1 -1</clus>
<clus scale="  131.560">  1  7  2 -1</clus>
<clus scale="  131.560">  1  5  2 -1</clus>
</clustering>
</event>
<event>
 9    1  0.1484717E-005  0.9538238E+02  0.7546771E-02  0.1290610E+00
          1   -1    0    0  502    0  0.00000000000E+00  0.00000000000E+00  0.20438077099E+03  0.20438077099E+03  0.00000000000E+00 0. -1.
         -1   -1    0    0    0  501 -0.00000000000E+00 -0.00000000000E+00 -0.91055254802E+02  0.91055254802E+02  0.00000000000E+00 0.  1.
         23    2    1    2    0    0  0.30494031754E+02  0.63038427578E+01  0.66774278684E+00  0.96152732382E+02  0.90968553127E+02 0.  0.
         23    2    1    2    0    0 -0.19830227286E+02  0.21703826494E+02  0.13224190685E+03  0.16348267127E+03  0.91511572380E+02 0.  0.
        -11    1    3    3    0    0 -0.27180583658E+02 -0.10817118321E+02  0.16971568822E+02  0.33820531117E+02  0.00000000000E+00 0.  1.
         11    1    3    3    0    0  0.57674615412E+02  0.17120961079E+02 -0.16303826035E+02  0.62332201265E+02  0.00000000000E+00 0. -1.
        -13    1    4    4    0    0 -0.34555272278E+02 -0.94032439673E+01  0.12262608272E+03  0.12774836204E+03  0.00000000000E+00 0. -1.
         13    1    4    4    0    0  0.14725044992E+02  0.31107070462E+02  0.96158241298E+01  0.35734309234E+02  0.00000000000E+00 0.  1.
         21    1    1    2  502  501 -0.10663804468E+02 -0.28007669252E+02 -0.19584133449E+02  0.35800622140E+02  0.00000000000E+00 0.  1.
<scales pt_clust_5="13000.00000" pt_clust_6="13000.00000" pt_clust_7="13000.00000" pt_clust_8="13000.00000" pt_clust_9="29.96909"></scales>
<clustering>
<clus scale="   29.969">  2  9  1 -1</clus>
<clus scale="   90.969">  5  6 -1 -1</clus>
<clus scale="   91.512">  7  8 -1 -1</clus>
<clus scale="   94.862">  2  5  1 -1</clus>
<clus scale="   95.382">  1  5  2 -1</clus>
</clustering>
</event>
<event>
 9    1  0.1484717E-005  0.1350057E+03  0.7546771E-02  0.1220895E+00
         -2   -1    0    0    0  501 -0.00000000000E+00  0.00000000000E+00  0.43700640317E+02  0.43700640317E+02  0.00000000000E+00 0.  1.
          2   -1    0    0  502    0  0.00000000000E+00 -0.00000000000E+00 -0.61651233908E+03  0.61651233908E+03  0.00000000000E+00 0. -1.
         23    2    1    2    0    0 -0.39837222664E+02  0.72801803743E+02 -0.14324898237E+03  0.18960425765E+03  0.92425086580E+02 0.  0.
         23    2    1    2    0    0  0.62287543077E+02 -0.85844545584E+02 -0.42094716921E+03  0.44325259529E+03  0.89595312044E+02 0.  0.
        -11    1    3    3    0    0 -0.14672915834E+01  0.82473533556E+02 -0.79426441926E+02  0.11451024565E+03  0.00000000000E+00 0. -1.
         11    1    3    3    0    0 -0.38369931080E+02 -0.96717298133E+01 -0.63822540449E+02  0.75094011998E+02  0.00000000000E+00 0.  1.
        -13    1    4    4    0    0  0.33173064394E+02  0.12973449734E+02 -0.11889484819E+03  0.12411586331E+03  0.00000000000E+00 0. -1.
         13    1    4    4    0    0  0.29114478683E+02 -0.98817995318E+02 -0.30205232102E+03  0.31913673199E+03  0.00000000000E+00 0.  1.
         21    1    1    2  502  501 -0.22450320414E+02  0.13042741841E+02 -0.86155471800E+01  0.27356126455E+02  0.00000000000E+00 0. -1.
<scales pt_clust_5="13000.00000" pt_clust_6="13000.00000" pt_clust_7="13000.00000" pt_clust_8="13000.00000" pt_clust_9="25.96401"></scales>
<clustering>
<clus scale="   25.964">  1  9  2 -1</clus>
<clus scale="   89.595">  7  8 -1 -1</clus>
<clus scale="   92.425">  5  6 -1 -1</clus>
<clus scale="  133.084">  2  7  1 -1</clus>
<clus scale="  133.084">  2  5  1 -1</clus>
</clustering>
</event>
<event>
 9    1  0.1484717E-005  0.9721782E+02  0.7546771E-02  0.1287087E+00
         -2   -1    0    0    0  501 -0.00000000000E+00  0.00000000000E+00  0.20226076514E+03  0.20226076514E+03  0.00000000000E+00 0.  1.
          2   -1    0    0  502    0  0.00000000000E+00 -0.00000000000E+00 -0.13405451186E+03  0.13405451186E+03  0.00000000000E+00 0. -1.
         23    2    1    2    0    0 -0.64218402529E+01 -0.50627021265E+01  0.13580790548E+03  0.16466688237E+03  0.92760573385E+02 0.  0.
         23    2    1    2    0    0  0.28391426220E+02 -0.16244160333E+02 -0.91166289304E+02  0.13302279150E+03  0.91180178359E+02 0.  0.
        -11    1    4    4    0    0  0.27484022480E+02  0.29253403948E+02 -0.12320860386E+02  0.41987340174E+02  0.00000000000E+00 0. -1.
         11    1    4    4    0    0  0.90740374049E+00 -0.45497564281E+02 -0.78845428918E+02  0.91035451327E+02  0.00000000000E+00 0.  1.
        -11    1    3    3    0    0  0.41106452544E+01  0.41028204898E+02  0.38189430400E+02  0.56201811322E+02  0.00000000000E+00 0. -1.
         11    1    3    3    0    0 -0.10532485507E+02 -0.46090907025E+02  0.97618475080E+02  0.10846507105E+03  0.00000000000E+00 0.  1.
         21    1    1    2  502  501 -0.21969585967E+02  0.21306862460E+02  0.23564637101E+02  0.38625603130E+02  0.00000000000E+00 0.  1.
<scales pt_clust_5="13000.00000" pt_clust_6="13000.00000" pt_clust_7="13000.00000" pt_clust_8="13000.00000" pt_clust_9="30.60466"></scales>
<clustering>
<clus scale="   30.605">  1  9  2 -1</clus>
<clus scale="   91.180">  5  6 -1 -1</clus>
<clus scale="   92.761">  7  8 -1 -1</clus>
<clus scale="   95.711">  2  5  1 -1</clus>
<clus scale="   95.711">  2  5  1 -1</clus>
</clustering>
</event>
<event>
 9    1  0.1484717E-005  0.9255863E+02  0.7546771E-02  0.1297122E+00
         -1   -1    0    0    0  501 -0.00000000000E+00  0.00000000000E+00  0.89912340801E+02  0.89912340801E+02  0.00000000000E+00 0.  1.
          1   -1    0    0  502    0  0.00000000000E+00 -0.00000000000E+00 -0.16322349548E+03  0.16322349548E+03  0.00000000000E+00 0. -1.
         23    2    1    2    0    0  0.57421232086E+01  0.44154263398E+01 -0.25694364893E+02  0.94374505886E+02  0.90520047532E+02 0.  0.
         23    2    1    2    0    0 -0.25850814494E+02  0.15816645226E+02 -0.73676252849E+02  0.12012466646E+03  0.89907254333E+02 0.  0.
        -13    1    4    4    0    0 -0.48799478426E+02  0.38739207440E+02 -0.51460098454E+02  0.80810005696E+02  0.00000000000E+00 0. -1.
         13    1    4    4    0    0  0.22948663932E+02 -0.22922562214E+02 -0.22216154395E+02  0.39314660762E+02  0.00000000000E+00 0.  1.
        -13    1    3    3    0    0 -0.95716061039E+00 -0.30395263187E+02 -0.44767679206E+02  0.54119620122E+02  0.00000000000E+00 0.  1.
         13    1    3    3    0    0  0.66992838189E+01  0.34810689527E+02  0.19073314312E+02  0.40254885764E+02  0.00000000000E+00 0. -1.
         21    1    1    2  502  501  0.20108691286E+02 -0.20232071566E+02  0.26059463062E+02  0.38636663937E+02  0.00000000000E+00 0.  1.
<scales pt_clust_5="13000.00000" pt_clust_6="13000.00000" pt_clust_7="13000.00000" pt_clust_8="13000.00000" pt_clust_9="28.52536"></scales>
<clustering>
<clus scale="   28.525">  1  9  2 -1</clus>
<clus scale="   89.907">  5  6 -1 -1</clus>
<clus scale="   90.520">  7  8 -1 -1</clus>
<clus scale="   91.959">  2  5  1 -1</clus>
<clus scale="   91.959">  2  5  1 -1</clus>
</clustering>
</event>
<event>
 9    1  0.1484717E-005  0.1057485E+03  0.7546771E-02  0.1270109E+00
         -1   -1    0    0    0  501 -0.00000000000E+00  0.00000000000E+00  0.50463626070E+03  0.50463626070E+03  0.00000000000E+00 0.  1.
          1   -1    0    0  502    0  0.00000000000E+00 -0.00000000000E+00 -0.47831605347E+02  0.47831605347E+02  0.00000000000E+00 0. -1.
         23    2    1    2    0    0  0.34493165176E+02 -0.67401102619E+01  0.29726375487E+03  0.31376401404E+03  0.94058008807E+02 0.  0.
         23    2    1    2    0    0 -0.48710938174E+02 -0.20080474340E+02  0.35141468900E+02  0.11065422332E+03  0.90738378619E+02 0.  0.
        -11    1    3    3    0    0 -0.21185643722E+02 -0.25052352474E+02  0.51158556162E+02  0.60775404013E+02  0.00000000000E+00 0. -1.
         11    1    3    3    0    0  0.55678808898E+02  0.18312242212E+02  0.24610519871E+03  0.25298861003E+03  0.00000000000E+00 0.  1.
        -13    1    4    4    0    0 -0.10956104006E+02 -0.21804611807E+02  0.60436014886E+02  0.65176600144E+02  0.00000000000E+00 0.  1.
         13    1    4    4    0    0 -0.37754834168E+02  0.17241374669E+01 -0.25294545986E+02  0.45477623175E+02  0.00000000000E+00 0. -1.
         21    1    1    2  502  501  0.14217772997E+02  0.26820584602E+02  0.12439943159E+03  0.12804962869E+03  0.00000000000E+00 0.  1.
<scales pt_clust_5="13000.00000" pt_clust_6="13000.00000" pt_clust_7="13000.00000" pt_clust_8="13000.00000" pt_clust_9="30.35603"></scales>
<clustering>
<clus scale="   30.356">  1  9  2 -1</clus>
<clus scale="   90.738">  7  8 -1 -1</clus>
<clus scale="   94.058">  5  6 -1 -1</clus>
<clus scale="  102.807">  2  7  1 -1</clus>
<clus scale="  102.807">  2  5  1 -1</clus>
</clustering>
</event>
<event>
 9    1  0.1484717E-005  0.1089630E+03  0.7546771E-02  0.1267168E+00
         -3   -1    0    0    0  501 -0.00000000000E+00  0.00000000000E+00  0.52089242832E+02  0.52089242832E+02  0.00000000000E+00 0.  1.
          3   -1    0    0  502    0  0.00000000000E+00 -0.00000000000E+00 -0.35740453567E+03  0.35740453567E+03  0.00000000000E+00 0. -1.
         23    2    1    2    0    0 -0.24332130892E+02 -0.86841222478E+02 -0.13030873613E+03  0.17676026711E+03  0.78296710043E+02 0.  0.
         23    2    1    2    0    0  0.17555458704E+02  0.38591101766E+02 -0.14378807200E+03  0.17486649814E+03  0.90032301190E+02 0.  0.
        -11    1    3    3    0    0 -0.53028456393E+02 -0.58050460943E+02 -0.90136596295E+02  0.11960969524E+03  0.00000000000E+00 0.  1.
         11    1    3    3    0    0  0.28696325501E+02 -0.28790761535E+02 -0.40172139834E+02  0.57150571877E+02  0.00000000000E+00 0. -1.
        -11    1    4    4    0    0 -0.82455213892E+01 -0.25609932535E+02 -0.62962193702E+02  0.68469665569E+02  0.00000000000E+00 0.  1.
         11    1    4    4    0    0  0.25800980093E+02  0.64201034301E+02 -0.80825878297E+02  0.10639683257E+03  0.00000000000E+00 0. -1.
         21    1    1    2  502  501  0.67766721883E+01  0.48250120711E+02 -0.31218484714E+02  0.57867013250E+02  0.00000000000E+00 0.  1.
<scales pt_clust_5="13000.00000" pt_clust_6="13000.00000" pt_clust_7="13000.00000" pt_clust_8="13000.00000" pt_clust_9="48.72368"></scales>
<clustering>
<clus scale="   48.724">  1  9  2 -1</clus>
<clus scale="   78.297">  5  6 -1 -1</clus>
<clus scale="   90.032">  7  8 -1 -1</clus>
<clus scale="   99.486">  1  5  2 -1</clus>
<clus scale="  108.963">  2  5  1 -1</clus>
</clustering>
</event>
<event>
 9    1  0.1484717E-005  0.2901702E+03  0.7546771E-02  0.1090363E+00
          1   -1    0    0  502    0  0.00000000000E+00  0.00000000000E+00  0.13940557149E+04  0.13940557149E+04  0.00000000000E+00 0. -1.
         -1   -1    0    0    0  501 -0.00000000000E+00 -0.00000000000E+00 -0.78781008768E+02  0.78781008768E+02  0.00000000000E+00 0.  1.
         23    2    1    2    0    0 -0.47044947511E+02  0.27877605990E+03  0.66174662807E+03  0.72501386433E+03  0.88358276614E+02 0.  0.
         23    2    1    2    0    0  0.32672629693E+01 -0.27031871389E+03  0.64087560136E+03  0.70147528625E+03  0.90901918105E+02 0.  0.
        -11    1    4    4    0    0 -0.30271353349E+02 -0.12145781927E+03  0.21118200315E+03  0.24549174151E+03  0.00000000000E+00 0.  1.
         11    1    4    4    0    0  0.33538616318E+02 -0.14886089463E+03  0.42969359821E+03  0.45598354475E+03  0.00000000000E+00 0. -1.
        -11    1    3    3    0    0 -0.33628635330E+02  0.27862142883E+02  0.76136712743E+02  0.87772337029E+02  0.00000000000E+00 0.  1.
         11    1    3    3    0    0 -0.13416312181E+02  0.25091391701E+03  0.58560991533E+03  0.63724152730E+03  0.00000000000E+00 0. -1.
         21    1    1    2  502  501  0.43777684541E+02 -0.84573460047E+01  0.12652476711E+02  0.46347573099E+02  0.00000000000E+00 0. -1.
<scales pt_clust_5="13000.00000" pt_clust_6="13000.00000" pt_clust_7="13000.00000" pt_clust_8="13000.00000" pt_clust_9="44.58713"></scales>
<clustering>
<clus scale="   44.587">  2  9  1 -1</clus>
<clus scale="   88.358">  7  8 -1 -1</clus>
<clus scale="   90.902">  5  6 -1 -1</clus>
<clus scale="  289.383">  2  7  1 -1</clus>
<clus scale="  290.170">  1  5  2 -1</clus>
</clustering>
</event>
<event>
 9    1  0.1484717E-005  0.1084121E+03  0.7546771E-02  0.1263877E+00
          2   -1    0    0  502    0  0.00000000000E+00  0.00000000000E+00  0.40280065494E+03  0.40280065494E+03  0.00000000000E+00 0. -1.
         -2   -1    0    0    0  501 -0.00000000000E+00 -0.00000000000E+00 -0.54692731329E+02  0.54692731329E+02  0.00000000000E+00 0.  1.
         23    2    1    2    0    0  0.26782542006E+02  0.42317186612E+02  0.93843175261E+02  0.14034860074E+03  0.91559485301E+02 0.  0.
         23    2    1    2    0    0 -0.75102731948E+00 -0.62640570682E+02  0.26061268154E+03  0.28351479962E+03  0.92397330506E+02 0.  0.
        -11    1    3    3    0    0  0.38623007860E+02  0.16120770579E+01  0.14380029705E+01  0.38683373446E+02  0.00000000000E+00 0.  1.
         11    1    3    3    0    0 -0.11840465854E+02  0.40705109554E+02  0.92405172290E+02  0.10166522730E+03  0.00000000000E+00 0. -1.
        -13    1    4    4    0    0 -0.29935598063E+02 -0.43975906296E+02  0.23361259749E+03  0.23959312610E+03  0.00000000000E+00 0. -1.
         13    1    4    4    0    0  0.29184570743E+02 -0.18664664386E+02  0.27000084047E+02  0.43921673518E+02  0.00000000000E+00 0.  1.
         21    1    1    2  502  501 -0.26031514687E+02  0.20323384069E+02 -0.63479331847E+01  0.33629985915E+02  0.00000000000E+00 0. -1.
<scales pt_clust_5="13000.00000" pt_clust_6="13000.00000" pt_clust_7="13000.00000" pt_clust_8="13000.00000" pt_clust_9="33.02544"></scales>
<clustering>
<clus scale="   33.025">  2  9  1 -1</clus>
<clus scale="   91.559">  5  6 -1 -1</clus>
<clus scale="   92.397">  7  8 -1 -1</clus>
<clus scale="  107.699">  2  5  1 -1</clus>
<clus scale="  108.412">  1  5  2 -1</clus>
</clustering>
</event>
<event>
 9    1  0.1484717E-005  0.9164453E+02  0.7546771E-02  0.1300003E+00
         -1   -1    0    0    0  501 -0.00000000000E+00  0.00000000000E+00  0.35569616904E+02  0.35569616904E+02  0.00000000000E+00 0.  1.
          1   -1    0    0  502    0  0.00000000000E+00 -0.00000000000E+00 -0.44413766663E+03  0.44413766663E+03  0.00000000000E+00 0. -1.
         23    2    1    2    0    0 -0.15815056955E+02  0.64702413890E+01 -0.18411628200E+03  0.20542132216E+03  0.89482591884E+02 0.  0.
         23    2    1    2    0    0  0.12302215416E+01  0.75156972147E+01 -0.23446681240E+03  0.25173324486E+03  0.91306852446E+02 0.  0.
        -11    1    4    4    0    0 -0.26257451215E+02 -0.25474283857E+02 -0.17253551140E+03  0.17637147041E+03  0.00000000000E+00 0.  1.
         11    1    4    4    0    0  0.27487672757E+02  0.32989981072E+02 -0.61931301000E+02  0.75361774450E+02  0.00000000000E+00 0. -1.
        -13    1    3    3    0    0  0.75091743425E+01  0.43367632621E+02 -0.12034893255E+03  0.12814446856E+03  0.00000000000E+00 0. -1.
         13    1    3    3    0    0 -0.23324231298E+02 -0.36897391232E+02 -0.63767349452E+02  0.77276853595E+02  0.00000000000E+00 0.  1.
         21    1    1    2  502  501  0.14584835414E+02 -0.13985938604E+02  0.10015044666E+02  0.22552716518E+02  0.00000000000E+00 0.  1.
<scales pt_clust_5="13000.00000" pt_clust_6="13000.00000" pt_clust_7="13000.00000" pt_clust_8="13000.00000" pt_clust_9="20.20703"></scales>
<clustering>
<clus scale="   20.207">  1  9  2 -1</clus>
<clus scale="   89.483">  7  8 -1 -1</clus>
<clus scale="   89.827">  1  7  2 -1</clus>
<clus scale="   91.307">  5  6 -1 -1</clus>
<clus scale="   91.645">  2  5  1 -1</clus>
</clustering>
</event>
<event>
 9    1  0.1899865E-005  0.1038136E+03  0.7546771E-02  0.1273391E+00
         -2   -1    0    0    0  501 -0.00000000000E+00  0.00000000000E+00  0.19123241253E+03  0.19123241253E+03  0.00000000000E+00 0.  1.
          2   -1    0    0  502    0  0.00000000000E+00 -0.00000000000E+00 -0.34047076128E+03  0.34047076128E+03  0.00000000000E+00 0. -1.
         23    2    1    2    0    0 -0.54575900188E+02 -0.67321081808E+01  0.11327093542E+03  0.15488824533E+03  0.90200962132E+02 0.  0.
         23    2    1    2    0    0  0.40685770484E+02 -0.25238389633E+02 -0.30478691433E+03  0.32202034439E+03  0.92248202255E+02 0.  0.
        -11    1    3    3    0    0 -0.56497246248E+02 -0.41933446739E+02  0.73747311517E+02  0.10192653602E+03  0.00000000000E+00 0.  1.
         11    1    3    3    0    0  0.19213460598E+01  0.35201338558E+02  0.39523623900E+02  0.52961709311E+02  0.00000000000E+00 0. -1.
        -13    1    4    4    0    0  0.51440850034E+02  0.20302632551E+02 -0.13461448315E+03  0.14553149836E+03  0.00000000000E+00 0. -1.
         13    1    4    4    0    0 -0.10755079550E+02 -0.45541022184E+02 -0.17017243119E+03  0.17648884603E+03  0.00000000000E+00 0.  1.
         21    1    1    2  502  501  0.13890129704E+02  0.31970497814E+02  0.42277630170E+02  0.54794584098E+02  0.00000000000E+00 0. -1.
<scales pt_clust_5="13000.00000" pt_clust_6="13000.00000" pt_clust_7="13000.00000" pt_clust_8="13000.00000" pt_clust_9="34.85754"></scales>
<clustering>
<clus scale="   34.858">  1  9  2 -1</clus>
<clus scale="   90.201">  5  6 -1 -1</clus>
<clus scale="   92.248">  7  8 -1 -1</clus>
<clus scale="  101.999">  1  5  2 -1</clus>
<clus scale="  103.814">  2  5  1 -1</clus>
</clustering>
</event>
<event>
 9    1  0.1484717E-005  0.9387155E+02  0.7546771E-02  0.1294619E+00
          1   -1    0    0  502    0  0.00000000000E+00  0.00000000000E+00  0.47595196610E+03  0.47595196610E+03  0.00000000000E+00 0. -1.
         -1   -1    0    0    0  501 -0.00000000000E+00 -0.00000000000E+00 -0.44924220062E+02  0.44924220062E+02  0.00000000000E+00 0.  1.
         23    2    1    2    0    0  0.50534010568E+01  0.19496367865E+02  0.11836978253E+03  0.15042046664E+03  0.90605000675E+02 0.  0.
         23    2    1    2    0    0  0.22500389478E+02 -0.69829604412E+01  0.32435198185E+03  0.33801274180E+03  0.92159515107E+02 0.  0.
        -11    1    4    4    0    0  0.22878542184E+02  0.34091855950E+02  0.76893360257E+02  0.87168062880E+02  0.00000000000E+00 0.  1.
         11    1    4    4    0    0 -0.37815270657E+00 -0.41074816391E+02  0.24745862159E+03  0.25084467892E+03  0.00000000000E+00 0. -1.
        -13    1    3    3    0    0 -0.40399531813E+02 -0.33900077821E+01  0.39819453490E+02  0.56826078518E+02  0.00000000000E+00 0.  1.
         13    1    3    3    0    0  0.45452932869E+02  0.22886375647E+02  0.78550329037E+02  0.93594388125E+02  0.00000000000E+00 0. -1.
         21    1    1    2  502  501 -0.27553790534E+02 -0.12513407423E+02 -0.11694018344E+02  0.32442977717E+02  0.00000000000E+00 0.  1.
<scales pt_clust_5="13000.00000" pt_clust_6="13000.00000" pt_clust_7="13000.00000" pt_clust_8="13000.00000" pt_clust_9="30.26213"></scales>
<clustering>
<clus scale="   30.262">  2  9  1 -1</clus>
<clus scale="   90.605">  7  8 -1 -1</clus>
<clus scale="   92.160">  5  6 -1 -1</clus>
<clus scale="   92.346">  2  7  1 -1</clus>
<clus scale="   93.872">  1  5  2 -1</clus>
</clustering>
</event>
<event>
 9    1  0.1484717E-005  0.1156259E+03  0.7546771E-02  0.1250867E+00
          2   -1    0    0  502    0  0.00000000000E+00  0.00000000000E+00  0.77516668275E+03  0.77516668275E+03  0.00000000000E+00 0. -1.
         -2   -1    0    0    0  501 -0.00000000000E+00 -0.00000000000E+00 -0.47038355122E+02  0.47038355122E+02  0.00000000000E+00 0.  1.
         23    2    1    2    0    0 -0.27597398406E+01 -0.70207963758E+02  0.45162352833E+02  0.12221927654E+03  0.89225215641E+02 0.  0.
         23    2    1    2    0    0  0.18875045240E+02  0.85866762869E+02  0.62939245004E+03  0.64189080791E+03  0.90330420225E+02 0.  0.
        -11    1    3    3    0    0  0.22373409469E+02  0.10163712683E+02  0.26160850808E+02  0.35892347677E+02  0.00000000000E+00 0. -1.
         11    1    3    3    0    0 -0.25133149310E+02 -0.80371676441E+02  0.19001502025E+02  0.86326928866E+02  0.00000000000E+00 0.  1.
        -11    1    4    4    0    0  0.39166489878E+02  0.14204391679E+01  0.19930217738E+03  0.20311915096E+03  0.00000000000E+00 0.  1.
         11    1    4    4    0    0 -0.20291444638E+02  0.84446323702E+02  0.43009027266E+03  0.43877165695E+03  0.00000000000E+00 0. -1.
         21    1    1    2  502  501 -0.16115305399E+02 -0.15658799111E+02  0.53573524755E+02  0.58094953416E+02  0.00000000000E+00 0. -1.
<scales pt_clust_5="13000.00000" pt_clust_6="13000.00000" pt_clust_7="13000.00000" pt_clust_8="13000.00000" pt_clust_9="22.47000"></scales>
<clustering>
<clus scale="   22.470">  1  9  2 -1</clus>
<clus scale="   89.225">  5  6 -1 -1</clus>
<clus scale="   90.330">  7  8 -1 -1</clus>
<clus scale="  114.765">  2  5  1 -1</clus>
<clus scale="   22.470">  1  5  2 -1</clus>
</clustering>
</event>
<event>
 9    1  0.1484717E-005  0.9473663E+02  0.7546771E-02  0.1293062E+00
         -2   -1    0    0    0  501 -0.00000000000E+00  0.00000000000E+00  0.11935261228E+03  0.11935261228E+03  0.00000000000E+00 0.  1.
          2   -1    0    0  502    0  0.00000000000E+00 -0.00000000000E+00 -0.12216224324E+03  0.12216224324E+03  0.00000000000E+00 0. -1.
         23    2    1    2    0    0 -0.11281748150E+02  0.20252980892E+02  0.43074091470E+02  0.10287439488E+03  0.90500291104E+02 0.  0.
         23    2    1    2    0    0 -0.21991521479E+02 -0.15882379361E+02 -0.39674434318E+02  0.10451176468E+03  0.92805017247E+02 0.  0.
        -11    1    3    3    0    0 -0.40170005833E+02 -0.17230064631E+02  0.32276178085E+02  0.54334668192E+02  0.00000000000E+00 0.  1.
         11    1    3    3    0    0  0.28888257683E+02  0.37483045523E+02  0.10797913385E+02  0.48539726690E+02  0.00000000000E+00 0. -1.
        -13    1    4    4    0    0 -0.39244247077E+02 -0.30186686006E+02 -0.57497778358E+02  0.75877147132E+02  0.00000000000E+00 0.  1.
         13    1    4    4    0    0  0.17252725598E+02  0.14304306646E+02  0.17823344040E+02  0.28634617545E+02  0.00000000000E+00 0. -1.
         21    1    1    2  502  501  0.33273269630E+02 -0.43706015314E+01 -0.62092881111E+01  0.34128695968E+02  0.00000000000E+00 0. -1.
<scales pt_clust_5="13000.00000" pt_clust_6="13000.00000" pt_clust_7="13000.00000" pt_clust_8="13000.00000" pt_clust_9="33.55909"></scales>
<clustering>
<clus scale="   33.559">  2  9  1 -1</clus>
<clus scale="   90.500">  5  6 -1 -1</clus>
<clus scale="   92.480">  1  5  2 -1</clus>
<clus scale="   92.805">  7  8 -1 -1</clus>
<clus scale="   33.559">  2  5  1 -1</clus>
</clustering>
</event>
<event>
 9    1  0.1484717E-005  0.1005369E+03  0.7546771E-02  0.1282483E+00
          1   -1    0    0  502    0  0.00000000000E+00  0.00000000000E+00  0.38058250107E+03  0.38058250107E+03  0.00000000000E+00 0. -1.
         -1   -1    0    0    0  501 -0.00000000000E+00 -0.00000000000E+00 -0.48101277534E+02  0.48101277534E+02  0.00000000000E+00 0.  1.
         23    2    1    2    0    0  0.37039365352E+02 -0.22373653692E+02  0.36604164269E+02  0.10442926834E+03  0.87710388660E+02 0.  0.
         23    2    1    2    0    0 -0.59507935450E+02  0.32078956360E+02  0.20883460052E+03  0.23383648570E+03  0.80606189869E+02 0.  0.
        -11    1    3    3    0    0 -0.19871526272E+02 -0.13333912382E+02  0.40101316119E+02  0.46698890033E+02  0.00000000000E+00 0. -1.
         11    1    3    3    0    0  0.56910891624E+02 -0.90397413092E+01 -0.34971518504E+01  0.57730378307E+02  0.00000000000E+00 0.  1.
        -13    1    4    4    0    0 -0.38483676363E+02  0.55135162226E+02  0.17663164496E+03  0.18899634245E+03  0.00000000000E+00 0. -1.
         13    1    4    4    0    0 -0.21024259087E+02 -0.23056205866E+02  0.32202955566E+02  0.44840143245E+02  0.00000000000E+00 0.  1.
         21    1    1    2  502  501  0.22468570098E+02 -0.97053026683E+01  0.87042458746E+02  0.90418024568E+02  0.00000000000E+00 0.  1.
<scales pt_clust_5="13000.00000" pt_clust_6="13000.00000" pt_clust_7="13000.00000" pt_clust_8="13000.00000" pt_clust_9="24.47508"></scales>
<clustering>
<clus scale="   24.475">  1  9  2 -1</clus>
<clus scale="   80.606">  7  8 -1 -1</clus>
<clus scale="   87.710">  5  6 -1 -1</clus>
<clus scale="   94.403">  1  7  2 -1</clus>
<clus scale="   24.475">  1  5  2 -1</clus>
</clustering>
</event>
<event>
 9    1  0.1484717E-005  0.1053377E+03  0.7546771E-02  0.1274746E+00
         -2   -1    0    0    0  501 -0.00000000000E+00  0.00000000000E+00  0.97056634928E+02  0.97056634928E+02  0.00000000000E+00 0.  1.
          2   -1    0    0  502    0  0.00000000000E+00 -0.00000000000E+00 -0.30184875835E+03  0.30184875835E+03  0.00000000000E+00 0. -1.
         23    2    1    2    0    0 -0.14462288546E+02  0.22192265039E+02 -0.71600925744E+02  0.12085740097E+03  0.93691858687E+02 0.  0.
         23    2    1    2    0    0  0.12369906634E+02  0.29808626044E+02 -0.17845426379E+03  0.20907541885E+03  0.10404344153E+03 0.  0.
        -11    1    4    4    0    0  0.22461137039E+02  0.65314010301E+02 -0.13795463261E+03  0.15427865464E+03  0.00000000000E+00 0. -1.
         11    1    4    4    0    0 -0.10091230404E+02 -0.35505384257E+02 -0.40499631182E+02  0.54796764213E+02  0.00000000000E+00 0.  1.
        -11    1    3    3    0    0  0.33572133688E+02 -0.22897620176E+01 -0.32558501970E+01  0.33807273344E+02  0.00000000000E+00 0.  1.
         11    1    3    3    0    0 -0.48034422234E+02  0.24482027056E+02 -0.68345075547E+02  0.87050127626E+02  0.00000000000E+00 0. -1.
         21    1    1    2  502  501  0.20923819113E+01 -0.52000891083E+02  0.45263066112E+02  0.68972573457E+02  0.00000000000E+00 0.  1.
<scales pt_clust_5="13000.00000" pt_clust_6="13000.00000" pt_clust_7="13000.00000" pt_clust_8="13000.00000" pt_clust_9="52.04297"></scales>
<clustering>
<clus scale="   52.043">  1  9  2 -1</clus>
<clus scale="   93.692">  7  8 -1 -1</clus>
<clus scale="   95.127">  1  7  2 -1</clus>
<clus scale="  104.043">  5  6 -1 -1</clus>
<clus scale="  105.338">  2  5  1 -1</clus>
</clustering>
</event>
<event>
 9    1  0.1484717E-005  0.9362681E+02  0.7546771E-02  0.1295841E+00
          2   -1    0    0  502    0  0.00000000000E+00  0.00000000000E+00  0.33722231724E+03  0.33722231724E+03  0.00000000000E+00 0. -1.
         -2   -1    0    0    0  501 -0.00000000000E+00 -0.00000000000E+00 -0.16362820775E+03  0.16362820775E+03  0.00000000000E+00 0.  1.
         23    2    1    2    0    0 -0.15803189880E+02 -0.69738434216E+01  0.13907005597E+03  0.16690268506E+03  0.90651257632E+02 0.  0.
         23    2    1    2    0    0 -0.11354500143E+02  0.82188172241E+01  0.17072369545E+03  0.19506143834E+03  0.93305470961E+02 0.  0.
        -11    1    4    4    0    0  0.12883029273E+02  0.41184100251E+02  0.42898367339E+02  0.60847123819E+02  0.00000000000E+00 0. -1.
         11    1    4    4    0    0 -0.24237529416E+02 -0.32965283027E+02  0.12782532811E+03  0.13421431452E+03  0.00000000000E+00 0.  1.
        -11    1    3    3    0    0  0.32033965836E+02  0.12246538326E+02  0.27364563227E+02  0.43874502718E+02  0.00000000000E+00 0.  1.
         11    1    3    3    0    0 -0.47837155716E+02 -0.19220381748E+02  0.11170549274E+03  0.12302818234E+03  0.00000000000E+00 0. -1.
         21    1    1    2  502  501  0.27157690024E+02 -0.12449738024E+01 -0.13619964192E+03  0.13888640159E+03  0.00000000000E+00 0.  1.
<scales pt_clust_5="13000.00000" pt_clust_6="13000.00000" pt_clust_7="13000.00000" pt_clust_8="13000.00000" pt_clust_9="27.18621"></scales>
<clustering>
<clus scale="   27.186">  2  9  1 -1</clus>
<clus scale="   90.651">  7  8 -1 -1</clus>
<clus scale="   90.982">  2  7  1 -1</clus>
<clus scale="   93.305">  5  6 -1 -1</clus>
<clus scale="   93.627">  1  5  2 -1</clus>
</clustering>
</event>
<event>
 9    1  0.1484717E-005  0.1280466E+03  0.7546771E-02  0.1230587E+00
          1   -1    0    0  502    0  0.00000000000E+00  0.00000000000E+00  0.74642016123E+02  0.74642016123E+02  0.00000000000E+00 0. -1.
         -1   -1    0    0    0  501 -0.00000000000E+00 -0.00000000000E+00 -0.28925359265E+03  0.28925359265E+03  0.00000000000E+00 0.  1.
         23    2    1    2    0    0 -0.78924459887E+02 -0.48889451192E+02 -0.91464854768E+02  0.15860736714E+03  0.90394847453E+02 0.  0.
         23    2    1    2    0    0  0.90396267420E+02  0.16196409934E+02 -0.85927560899E+02  0.15443843092E+03  0.89631882525E+02 0.  0.
        -11    1    4    4    0    0  0.36114578056E+02 -0.37436343519E+02 -0.34489109435E+02  0.62411867733E+02  0.00000000000E+00 0. -1.
         11    1    4    4    0    0  0.54281689363E+02  0.53632753453E+02 -0.51438451463E+02  0.92026563187E+02  0.00000000000E+00 0.  1.
        -13    1    3    3    0    0 -0.74294912927E+02 -0.48858353630E+01 -0.86426156363E+02  0.11407491388E+03  0.00000000000E+00 0.  1.
         13    1    3    3    0    0 -0.46295469602E+01 -0.44003615829E+02 -0.50386984054E+01  0.44532453253E+02  0.00000000000E+00 0. -1.
         21    1    1    2  502  501 -0.11471807532E+02  0.32693041258E+02 -0.37219160861E+02  0.50849810717E+02  0.00000000000E+00 0. -1.
<scales pt_clust_5="13000.00000" pt_clust_6="13000.00000" pt_clust_7="13000.00000" pt_clust_8="13000.00000" pt_clust_9="34.64733"></scales>
<clustering>
<clus scale="   34.647">  2  9  1 -1</clus>
<clus scale="   89.632">  5  6 -1 -1</clus>
<clus scale="   90.395">  7  8 -1 -1</clus>
<clus scale="  127.509">  1  5  2 -1</clus>
<clus scale="  127.509">  1  5  2 -1</clus>
</clustering>
</event>
<event>
 9    1  0.1484717E-005  0.9620582E+02  0.7546771E-02  0.1289666E+00
         -1   -1    0    0    0  501 -0.00000000000E+00  0.00000000000E+00  0.23892747583E+03  0.23892747583E+03  0.00000000000E+00 0.  1.
          1   -1    0    0  502    0  0.00000000000E+00 -0.00000000000E+00 -0.11848991245E+03  0.11848991245E+03  0.00000000000E+00 0. -1.
         23    2    1    2    0    0 -0.44673376685E+01 -0.34332946623E+01  0.42944522411E+02  0.10237471447E+03  0.92761013042E+02 0.  0.
         23    2    1    2    0    0 -0.34963835219E+02 -0.13468946442E+02 -0.57336375251E+02  0.11355248111E+03  0.90569441583E+02 0.  0.
        -11    1    4    4    0    0  0.18504045290E+02 -0.25968011569E+02 -0.48342433766E+02  0.57911382467E+02  0.00000000000E+00 0. -1.
         11    1    4    4    0    0 -0.53467880508E+02  0.12499065127E+02 -0.89939414848E+01  0.55641098646E+02  0.00000000000E+00 0.  1.
        -13    1    3    3    0    0  0.14616851031E+02 -0.44836092548E+02  0.25052950837E+02  0.53400167366E+02  0.00000000000E+00 0. -1.
         13    1    3    3    0    0 -0.19084188699E+02  0.41402797886E+02  0.17891571574E+02  0.48974547109E+02  0.00000000000E+00 0.  1.
         21    1    1    2  502  501  0.39431172887E+02  0.16902241104E+02  0.13482941622E+03  0.14149019269E+03  0.00000000000E+00 0.  1.
<scales pt_clust_5="13000.00000" pt_clust_6="13000.00000" pt_clust_7="13000.00000" pt_clust_8="13000.00000" pt_clust_9="42.90109"></scales>
<clustering>
<clus scale="   42.901">  1  9  2 -1</clus>
<clus scale="   90.569">  5  6 -1 -1</clus>
<clus scale="   92.761">  7  8 -1 -1</clus>
<clus scale="   94.095">  2  5  1 -1</clus>
<clus scale="   94.095">  2  5  1 -1</clus>
</clustering>
</event>
<event>
 9    1  0.1484717E-005  0.1032020E+03  0.7546771E-02  0.1273787E+00
         -2   -1    0    0    0  501 -0.00000000000E+00  0.00000000000E+00  0.84370814115E+02  0.84370814115E+02  0.00000000000E+00 0.  1.
          2   -1    0    0  502    0  0.00000000000E+00 -0.00000000000E+00 -0.66169225567E+03  0.66169225567E+03  0.00000000000E+00 0. -1.
         23    2    1    2    0    0  0.28477071803E+02 -0.18418185790E+02 -0.13348350214E+03  0.16425747393E+03  0.89512564552E+02 0.  0.
         23    2    1    2    0    0 -0.34865864718E+02  0.46770951294E+02 -0.50390620241E+03  0.51507560106E+03  0.89321126140E+02 0.  0.
        -13    1    4    4    0    0 -0.14965341564E+02 -0.26544522031E+02 -0.12904162930E+03  0.13259078094E+03  0.00000000000E+00 0. -1.
         13    1    4    4    0    0 -0.19900523154E+02  0.73315473325E+02 -0.37486457310E+03  0.38248482011E+03  0.00000000000E+00 0.  1.
        -13    1    3    3    0    0  0.56025741424E+02 -0.31360883287E+02 -0.78517870754E+02  0.10142704142E+03  0.00000000000E+00 0.  1.
         13    1    3    3    0    0 -0.27548669621E+02  0.12942697498E+02 -0.54965631387E+02  0.62830432516E+02  0.00000000000E+00 0. -1.
         21    1    1    2  502  501  0.63887929150E+01 -0.28352765504E+02  0.60068262991E+02  0.66729994795E+02  0.00000000000E+00 0.  1.
<scales pt_clust_5="13000.00000" pt_clust_6="13000.00000" pt_clust_7="13000.00000" pt_clust_8="13000.00000" pt_clust_9="29.06365"></scales>
<clustering>
<clus scale="   29.064">  1  9  2 -1</clus>
<clus scale="   89.321">  5  6 -1 -1</clus>
<clus scale="   89.513">  7  8 -1 -1</clus>
<clus scale="  103.036">  2  5  1 -1</clus>
<clus scale="  103.036">  2  5  1 -1</clus>
</clustering>
</event>
<event>
 9    1  0.1484717E-005  0.8912781E+02  0.7546771E-02  0.1305386E+00
         -1   -1    0    0    0  501 -0.00000000000E+00  0.00000000000E+00  0.14034476459E+03  0.14034476459E+03  0.00000000000E+00 0.  1.
          1   -1    0    0  502    0  0.00000000000E+00 -0.00000000000E+00 -0.15033276764E+03  0.15033276764E+03  0.00000000000E+00 0. -1.
         23    2    1    2    0    0  0.13321235303E+02 -0.22862341247E+02  0.75286210549E+02  0.11893951907E+03  0.88195542637E+02 0.  0.
         23    2    1    2    0    0 -0.27685564434E+01  0.25672493681E+01 -0.10771860255E+03  0.13969116650E+03  0.88859827748E+02 0.  0.
        -11    1    4    4    0    0  0.35611549052E+02 -0.22068869820E+02 -0.39150077142E+02  0.57340613716E+02  0.00000000000E+00 0.  1.
         11    1    4    4    0    0 -0.38380105496E+02  0.24636119188E+02 -0.68568525409E+02  0.82350552780E+02  0.00000000000E+00 0. -1.
        -13    1    3    3    0    0 -0.19804021932E+02 -0.67676705607E+01  0.79186362261E+02  0.81905314953E+02  0.00000000000E+00 0.  1.
         13    1    3    3    0    0  0.33125257235E+02 -0.16094670687E+02 -0.39001517115E+01  0.37034204119E+02  0.00000000000E+00 0. -1.
         21    1    1    2  502  501 -0.10552678859E+02  0.20295091879E+02  0.22444388954E+02  0.32046846662E+02  0.00000000000E+00 0. -1.
<scales pt_clust_5="13000.00000" pt_clust_6="13000.00000" pt_clust_7="13000.00000" pt_clust_8="13000.00000" pt_clust_9="22.87465"></scales>
<clustering>
<clus scale="   22.875">  1  9  2 -1</clus>
<clus scale="   88.196">  7  8 -1 -1</clus>
<clus scale="   88.466">  1  7  2 -1</clus>
<clus scale="   88.860">  5  6 -1 -1</clus>
<clus scale="   89.128">  2  5  1 -1</clus>
</clustering>
</event>
<event>
 9    1  0.1484717E-005  0.9846961E+02  0.7546771E-02  0.1284237E+00
         -2   -1    0    0    0  501 -0.00000000000E+00  0.00000000000E+00  0.56916975158E+02  0.56916975158E+02  0.00000000000E+00 0.  1.
          2   -1    0    0  502    0  0.00000000000E+00 -0.00000000000E+00 -0.44244773025E+03  0.44244773025E+03  0.00000000000E+00 0. -1.
         23    2    1    2    0    0 -0.16253141921E+02  0.16533007364E+02 -0.96054895332E+02  0.13456611951E+03  0.91345457736E+02 0.  0.
         23    2    1    2    0    0  0.20544379085E+02 -0.37147077473E+02 -0.31579498887E+03  0.33109322786E+03  0.89968181409E+02 0.  0.
        -11    1    4    4    0    0  0.38983612204E+02  0.13001520074E+02 -0.19048503030E+03  0.19486741214E+03  0.00000000000E+00 0. -1.
         11    1    4    4    0    0 -0.18439233119E+02 -0.50148597547E+02 -0.12530995857E+03  0.13622581573E+03  0.00000000000E+00 0.  1.
        -11    1    3    3    0    0 -0.32246876511E+02  0.40956047923E+02 -0.91093353822E+02  0.10495359935E+03  0.00000000000E+00 0.  1.
         11    1    3    3    0    0  0.15993734591E+02 -0.24423040558E+02 -0.49615415101E+01  0.29612520163E+02  0.00000000000E+00 0. -1.
         21    1    1    2  502  501 -0.42912371646E+01  0.20614070108E+02  0.26319129109E+02  0.33705358029E+02  0.00000000000E+00 0.  1.
<scales pt_clust_5="13000.00000" pt_clust_6="13000.00000" pt_clust_7="13000.00000" pt_clust_8="13000.00000" pt_clust_9="21.05599"></scales>
<clustering>
<clus scale="   21.056">  1  9  2 -1</clus>
<clus scale="   89.968">  5  6 -1 -1</clus>
<clus scale="   91.345">  7  8 -1 -1</clus>
<clus scale="   97.193">  2  5  1 -1</clus>
<clus scale="   97.193">  2  5  1 -1</clus>
</clustering>
</event>
<event>
 9    1  0.1484717E-005  0.9879696E+02  0.7546771E-02  0.1285129E+00
          1   -1    0    0  502    0  0.00000000000E+00  0.00000000000E+00  0.20432943853E+03  0.20432943853E+03  0.00000000000E+00 0. -1.
         -1   -1    0    0    0  501 -0.00000000000E+00 -0.00000000000E+00 -0.11717597928E+03  0.11717597928E+03  0.00000000000E+00 0.  1.
         23    2    1    2    0    0  0.17009176502E+01  0.35072020795E+02 -0.54694193082E+02  0.11589729183E+03  0.95957218243E+02 0.  0.
         23    2    1    2    0    0 -0.13523782322E+02 -0.17962701980E+02  0.15466196371E+03  0.18118036523E+03  0.91653970882E+02 0.  0.
        -11    1    4    4    0    0 -0.87418689766E+00 -0.55046770057E+02  0.85529684572E+02  0.10171645904E+03  0.00000000000E+00 0. -1.
         11    1    4    4    0    0 -0.12649595425E+02  0.37084068078E+02  0.69132279133E+02  0.79463906195E+02  0.00000000000E+00 0.  1.
        -11    1    3    3    0    0 -0.45746953103E+02  0.83915176351E+01 -0.16297073699E+02  0.49282815439E+02  0.00000000000E+00 0.  1.
         11    1    3    3    0    0  0.47447870753E+02  0.26680503160E+02 -0.38397119383E+02  0.66614476390E+02  0.00000000000E+00 0. -1.
         21    1    1    2  502  501  0.11822864672E+02 -0.17109318816E+02 -0.12814311371E+02  0.24427760751E+02  0.00000000000E+00 0. -1.
<scales pt_clust_5="13000.00000" pt_clust_6="13000.00000" pt_clust_7="13000.00000" pt_clust_8="13000.00000" pt_clust_9="20.79685"></scales>
<clustering>
<clus scale="   20.797">  2  9  1 -1</clus>
<clus scale="   91.654">  5  6 -1 -1</clus>
<clus scale="   94.623">  1  5  2 -1</clus>
<clus scale="   95.957">  7  8 -1 -1</clus>
<clus scale="   94.623">  1  5  2 -1</clus>
</clustering>
</event>
<event>
 9    1  0.1484717E-005  0.2173902E+03  0.7546771E-02  0.1135874E+00
         -2   -1    0    0    0  501 -0.00000000000E+00  0.00000000000E+00  0.57327504406E+02  0.57327504406E+02  0.00000000000E+00 0.  1.
          2   -1    0    0  502    0  0.00000000000E+00 -0.00000000000E+00 -0.10809178287E+04  0.10809178287E+04  0.00000000000E+00 0. -1.
         23    2    1    2    0    0  0.14701086903E+03 -0.11243186641E+03 -0.41835096836E+03  0.46644681132E+03  0.91115173631E+02 0.  0.
         23    2    1    2    0    0 -0.13249821666E+03  0.16826442428E+03 -0.45843518184E+03  0.51406660641E+03  0.90735693003E+02 0.  0.
        -13    1    4    4    0    0 -0.10102063875E+03  0.57077587489E+02 -0.20574713147E+03  0.23620944637E+03  0.00000000000E+00 0. -1.
         13    1    4    4    0    0 -0.31477577906E+02  0.11118683679E+03 -0.25268805037E+03  0.27785716004E+03  0.00000000000E+00 0.  1.
        -13    1    3    3    0    0  0.44335630471E+02 -0.80537099610E+02 -0.25328818871E+03  0.26945645118E+03  0.00000000000E+00 0. -1.
         13    1    3    3    0    0  0.10267523856E+03 -0.31894766803E+02 -0.16506277965E+03  0.19699036014E+03  0.00000000000E+00 0.  1.
         21    1    1    2  502  501 -0.14512652370E+02 -0.55832557866E+02 -0.14680417414E+03  0.15773191542E+03  0.00000000000E+00 0. -1.
<scales pt_clust_5="13000.00000" pt_clust_6="13000.00000" pt_clust_7="13000.00000" pt_clust_8="13000.00000" pt_clust_9="57.68788"></scales>
<clustering>
<clus scale="   57.688">  2  9  1 -1</clus>
<clus scale="   90.736">  5  6 -1 -1</clus>
<clus scale="   91.115">  7  8 -1 -1</clus>
<clus scale="  217.231">  2  5  1 -1</clus>
<clus scale="   57.688">  2  5  1 -1</clus>
</clustering>
</event>
<event>
 9    1  0.1484717E-005  0.1537578E+03  0.7546771E-02  0.1196253E+00
          1   -1    0    0  502    0  0.00000000000E+00  0.00000000000E+00  0.88068130388E+02  0.88068130388E+02  0.00000000000E+00 0. -1.
         -1   -1    0    0    0  501 -0.00000000000E+00 -0.00000000000E+00 -0.62011412389E+03  0.62011412389E+03  0.00000000000E+00 0.  1.
         23    2    1    2    0    0 -0.62530275267E+02  0.15277704222E+03 -0.41974761507E+03  0.46011808652E+03  0.90938073615E+02 0.  0.
         23    2    1    2    0    0  0.69480452336E+02 -0.93061084058E+02 -0.35657254076E+02  0.15065696801E+03  0.89096484885E+02 0.  0.
        -11    1    4    4    0    0 -0.65060616886E+00 -0.72463904700E+02 -0.98073999094E+01  0.73127463143E+02  0.00000000000E+00 0.  1.
         11    1    4    4    0    0  0.70131058505E+02 -0.20597179358E+02 -0.25849854167E+02  0.77529504867E+02  0.00000000000E+00 0. -1.
        -13    1    3    3    0    0  0.17305509884E+02  0.68606661492E+02 -0.18989030180E+03  0.20264422368E+03  0.00000000000E+00 0.  1.
         13    1    3    3    0    0 -0.79835785151E+02  0.84170380725E+02 -0.22985731327E+03  0.25747386284E+03  0.00000000000E+00 0. -1.
         21    1    1    2  502  501 -0.69501770686E+01 -0.59715958158E+02 -0.76641124350E+02  0.97407199743E+02  0.00000000000E+00 0. -1.
<scales pt_clust_5="13000.00000" pt_clust_6="13000.00000" pt_clust_7="13000.00000" pt_clust_8="13000.00000" pt_clust_9="60.11905"></scales>
<clustering>
<clus scale="   60.119">  2  9  1 -1</clus>
<clus scale="   89.096">  5  6 -1 -1</clus>
<clus scale="   90.938">  7  8 -1 -1</clus>
<clus scale="  152.676">  1  5  2 -1</clus>
<clus scale="  152.676">  1  5  2 -1</clus>
</clustering>
</event>
<event>
 9    1  0.1484717E-005  0.9512986E+02  0.7546771E-02  0.1295594E+00
          4   -1    0    0  502    0  0.00000000000E+00  0.00000000000E+00  0.23681342200E+03  0.23681342200E+03  0.00000000000E+00 0. -1.
         -4   -1    0    0    0  501 -0.00000000000E+00 -0.00000000000E+00 -0.12575693230E+03  0.12575693230E+03  0.00000000000E+00 0.  1.
         23    2    1    2    0    0 -0.16476936047E+02  0.38327285624E+02  0.47419512615E+02  0.10384562541E+03  0.82430780026E+02 0.  0.
         23    2    1    2    0    0  0.35134151916E+02  0.34087420331E+02  0.12492942487E+03  0.16203581795E+03  0.90839882452E+02 0.  0.
        -11    1    4    4    0    0 -0.23877623383E+02  0.37026169691E+02  0.55810858684E+02  0.71105063726E+02  0.00000000000E+00 0. -1.
         11    1    4    4    0    0  0.59011775299E+02 -0.29387493602E+01  0.69118566187E+02  0.90930754223E+02  0.00000000000E+00 0.  1.
        -11    1    3    3    0    0  0.88067060033E+01  0.28360062258E+02 -0.16795326945E+02  0.34116480022E+02  0.00000000000E+00 0.  1.
         11    1    3    3    0    0 -0.25283642051E+02  0.99672233661E+01  0.64214839560E+02  0.69729145389E+02  0.00000000000E+00 0. -1.
         21    1    1    2  502  501 -0.18657215868E+02 -0.72414705955E+02 -0.61292447786E+02  0.96688910936E+02  0.00000000000E+00 0.  1.
<scales pt_clust_5="13000.00000" pt_clust_6="13000.00000" pt_clust_7="13000.00000" pt_clust_8="13000.00000" pt_clust_9="74.77955"></scales>
<clustering>
<clus scale="   74.780">  2  9  1 -1</clus>
<clus scale="   82.431">  7  8 -1 -1</clus>
<clus scale="   87.136">  2  7  1 -1</clus>
<clus scale="   90.840">  5  6 -1 -1</clus>
<clus scale="   95.130">  1  5  2 -1</clus>
</clustering>
</event>
<event>
 9    1  0.1484717E-005  0.9503571E+02  0.7546771E-02  0.1292012E+00
         -1   -1    0    0    0  501 -0.00000000000E+00  0.00000000000E+00  0.51528788515E+03  0.51528788515E+03  0.00000000000E+00 0.  1.
          1   -1    0    0  502    0  0.00000000000E+00 -0.00000000000E+00 -0.14492525576E+03  0.14492525576E+03  0.00000000000E+00 0. -1.
         23    2    1    2    0    0  0.25693755068E+02  0.46170112239E+02  0.37646367381E+01  0.10519929581E+03  0.90889334008E+02 0.  0.
         23    2    1    2    0    0 -0.16580482527E+02  0.65224230107E+01 -0.68583614723E+02  0.11655907388E+03  0.92546480716E+02 0.  0.
        -13    1    3    3    0    0 -0.19989927368E+02  0.15428429849E+02 -0.31073483730E+02  0.40039918018E+02  0.00000000000E+00 0. -1.
         13    1    3    3    0    0  0.45683682436E+02  0.30741682390E+02  0.34838120468E+02  0.65159377796E+02  0.00000000000E+00 0.  1.
        -13    1    4    4    0    0  0.18543792807E+02  0.17124489863E+02 -0.75159676101E+02  0.79284912287E+02  0.00000000000E+00 0.  1.
         13    1    4    4    0    0 -0.35124275334E+02 -0.10602066852E+02  0.65760613783E+01  0.37274161594E+02  0.00000000000E+00 0. -1.
         21    1    1    2  502  501 -0.91132725406E+01 -0.52692535250E+02  0.43518160737E+03  0.43845477122E+03  0.00000000000E+00 0.  1.
<scales pt_clust_5="13000.00000" pt_clust_6="13000.00000" pt_clust_7="13000.00000" pt_clust_8="13000.00000" pt_clust_9="53.47481"></scales>
<clustering>
<clus scale="   53.475">  1  9  2 -1</clus>
<clus scale="   90.889">  5  6 -1 -1</clus>
<clus scale="   92.546">  7  8 -1 -1</clus>
<clus scale="   93.423">  1  5  2 -1</clus>
<clus scale="   95.036">  2  5  1 -1</clus>
</clustering>
</event>
<event>
 9    1  0.1484717E-005  0.9471809E+02  0.7546771E-02  0.1292917E+00
         -2   -1    0    0    0  501 -0.00000000000E+00  0.00000000000E+00  0.37351379729E+03  0.37351379729E+03  0.00000000000E+00 0.  1.
          2   -1    0    0  502    0  0.00000000000E+00 -0.00000000000E+00 -0.49215008602E+02  0.49215008602E+02  0.00000000000E+00 0. -1.
         23    2    1    2    0    0  0.16545333029E+02 -0.47585400384E+02  0.20753790509E+03  0.23269273687E+03  0.92389444011E+02 0.  0.
         23    2    1    2    0    0  0.61521755699E+01  0.12833256196E+02  0.34334015667E+02  0.97748058004E+02  0.90406396250E+02 0.  0.
        -11    1    4    4    0    0 -0.32719561808E+02 -0.20615316940E+02  0.23757459511E+02  0.45386979409E+02  0.00000000000E+00 0. -1.
         11    1    4    4    0    0  0.38871737377E+02  0.33448573136E+02  0.10576556157E+02  0.52361078596E+02  0.00000000000E+00 0.  1.
        -13    1    3    3    0    0  0.47074538513E+01 -0.65793155261E+02  0.81744601533E+02  0.10503846572E+03  0.00000000000E+00 0. -1.
         13    1    3    3    0    0  0.11837879177E+02  0.18207754877E+02  0.12579330356E+03  0.12765427115E+03  0.00000000000E+00 0.  1.
         21    1    1    2  502  501 -0.22697508599E+02  0.34752144188E+02  0.82426867927E+02  0.92288011023E+02  0.00000000000E+00 0.  1.
<scales pt_clust_5="13000.00000" pt_clust_6="13000.00000" pt_clust_7="13000.00000" pt_clust_8="13000.00000" pt_clust_9="41.50769"></scales>
<clustering>
<clus scale="   41.508">  1  9  2 -1</clus>
<clus scale="   90.406">  5  6 -1 -1</clus>
<clus scale="   92.389">  7  8 -1 -1</clus>
<clus scale="   92.785">  2  5  1 -1</clus>
<clus scale="   92.785">  2  5  1 -1</clus>
</clustering>
</event>
<event>
 9    1  0.1484717E-005  0.1105227E+03  0.7546771E-02  0.1260819E+00
         -1   -1    0    0    0  501 -0.00000000000E+00  0.00000000000E+00  0.38248818633E+03  0.38248818633E+03  0.00000000000E+00 0.  1.
          1   -1    0    0  502    0  0.00000000000E+00 -0.00000000000E+00 -0.56727413210E+02  0.56727413210E+02  0.00000000000E+00 0. -1.
         23    2    1    2    0    0 -0.65219917599E+02  0.42248053694E+02  0.20470857574E+03  0.23800295627E+03  0.93280600978E+02 0.  0.
         23    2    1    2    0    0  0.36672416702E+02 -0.39256341416E+02  0.35238272022E+02  0.11072540696E+03  0.90180116675E+02 0.  0.
        -11    1    3    3    0    0 -0.81642711075E+02  0.17502661388E+02  0.18320763734E+03  0.20133781018E+03  0.00000000000E+00 0.  1.
         11    1    3    3    0    0  0.16422793476E+02  0.24745392307E+02  0.21500938406E+02  0.36665146097E+02  0.00000000000E+00 0. -1.
        -11    1    4    4    0    0  0.24478671897E+02 -0.56607497537E+02  0.54329570244E+02  0.82190731584E+02  0.00000000000E+00 0.  1.
         11    1    4    4    0    0  0.12193744804E+02  0.17351156122E+02 -0.19091298222E+02  0.28534675378E+02  0.00000000000E+00 0. -1.
         21    1    1    2  502  501  0.28547500898E+02 -0.29917122785E+01  0.85813925355E+02  0.90487236308E+02  0.00000000000E+00 0.  1.
<scales pt_clust_5="13000.00000" pt_clust_6="13000.00000" pt_clust_7="13000.00000" pt_clust_8="13000.00000" pt_clust_9="28.70384"></scales>
<clustering>
<clus scale="   28.704">  1  9  2 -1</clus>
<clus scale="   90.180">  7  8 -1 -1</clus>
<clus scale="   93.281">  5  6 -1 -1</clus>
<clus scale="  107.919">  2  7  1 -1</clus>
<clus scale="  107.919">  2  5  1 -1</clus>
</clustering>
</event>
<event>
 9    1  0.1484717E-005  0.9557324E+02  0.7546771E-02  0.1290423E+00
          2   -1    0    0  502    0  0.00000000000E+00  0.00000000000E+00  0.29025561607E+03  0.29025561607E+03  0.00000000000E+00 0. -1.
         -2   -1    0    0    0  501 -0.00000000000E+00 -0.00000000000E+00 -0.52109528451E+02  0.52109528451E+02  0.00000000000E+00 0.  1.
         23    2    1    2    0    0 -0.15688290793E+02  0.16295520441E+02  0.92418949131E+02  0.13263570514E+03  0.92408341965E+02 0.  0.
         23    2    1    2    0    0 -0.71657886938E+01 -0.22943658909E+02  0.15632847606E+03  0.18367382477E+03  0.93379448859E+02 0.  0.
        -11    1    4    4    0    0  0.38514337666E+02 -0.10508245696E+02  0.11167011253E+03  0.11859170066E+03  0.00000000000E+00 0.  1.
         11    1    4    4    0    0 -0.45680126359E+02 -0.12435413213E+02  0.44658363524E+02  0.65082124110E+02  0.00000000000E+00 0. -1.
        -11    1    3    3    0    0 -0.93318962726E+01  0.41307162886E+02  0.97530516657E+02  0.10632764303E+03  0.00000000000E+00 0. -1.
         11    1    3    3    0    0 -0.63563945204E+01 -0.25011642446E+02 -0.51115675261E+01  0.26308062105E+02  0.00000000000E+00 0.  1.
         21    1    1    2  502  501  0.22854079487E+02  0.66481384687E+01 -0.10601337570E+02  0.26055614607E+02  0.00000000000E+00 0.  1.
<scales pt_clust_5="13000.00000" pt_clust_6="13000.00000" pt_clust_7="13000.00000" pt_clust_8="13000.00000" pt_clust_9="23.80140"></scales>
<clustering>
<clus scale="   23.801">  2  9  1 -1</clus>
<clus scale="   92.408">  7  8 -1 -1</clus>
<clus scale="   93.379">  5  6 -1 -1</clus>
<clus scale="   94.625">  2  7  1 -1</clus>
<clus scale="   95.573">  1  5  2 -1</clus>
</clustering>
</event>
<event>
 9    1  0.1484717E-005  0.1333754E+03  0.7546771E-02  0.1222710E+00
          2   -1    0    0  502    0  0.00000000000E+00  0.00000000000E+00  0.67179725117E+03  0.67179725117E+03  0.00000000000E+00 0. -1.
         -2   -1    0    0    0  501 -0.00000000000E+00 -0.00000000000E+00 -0.40650925499E+02  0.40650925499E+02  0.00000000000E+00 0.  1.
         23    2    1    2    0    0 -0.12380673980E+02  0.11625531315E+03  0.19269555523E+03  0.24302734447E+03  0.90896282820E+02 0.  0.
         23    2    1    2    0    0  0.16431310467E+02 -0.87713406031E+02  0.40760989526E+03  0.42720463033E+03  0.91620630342E+02 0.  0.
        -11    1    3    3    0    0  0.65751361319E+01  0.87498480280E+02  0.60906796954E+02  0.10681223891E+03  0.00000000000E+00 0.  1.
         11    1    3    3    0    0 -0.18955810112E+02  0.28756832873E+02  0.13178875828E+03  0.13621510556E+03  0.00000000000E+00 0. -1.
        -13    1    4    4    0    0  0.61819728077E+01 -0.10563389158E+03  0.31415738656E+03  0.33149901865E+03  0.00000000000E+00 0. -1.
         13    1    4    4    0    0  0.10249337660E+02  0.17920485551E+02  0.93452508695E+02  0.95705611676E+02  0.00000000000E+00 0.  1.
         21    1    1    2  502  501 -0.40506364873E+01 -0.28541907122E+02  0.30840875187E+02  0.42216201871E+02  0.00000000000E+00 0. -1.
<scales pt_clust_5="13000.00000" pt_clust_6="13000.00000" pt_clust_7="13000.00000" pt_clust_8="13000.00000" pt_clust_9="28.82791"></scales>
<clustering>
<clus scale="   28.828">  2  9  1 -1</clus>
<clus scale="   90.896">  5  6 -1 -1</clus>
<clus scale="   91.621">  7  8 -1 -1</clus>
<clus scale="  132.879">  2  5  1 -1</clus>
<clus scale="  133.375">  1  5  2 -1</clus>
</clustering>
</event>
<event>
 9    1  0.1484717E-005  0.1276462E+03  0.7546771E-02  0.1231020E+00
          1   -1    0    0  502    0  0.00000000000E+00  0.00000000000E+00  0.23727694796E+03  0.23727694796E+03  0.00000000000E+00 0. -1.
         -1   -1    0    0    0  501 -0.00000000000E+00 -0.00000000000E+00 -0.23721853740E+03  0.23721853740E+03  0.00000000000E+00 0.  1.
         23    2    1    2    0    0  0.10682074573E+03 -0.53585972872E+01 -0.15832887346E+03  0.21182767275E+03  0.91452416541E+02 0.  0.
         23    2    1    2    0    0 -0.86374919545E+02  0.11171891610E+02  0.18781300681E+03  0.22636768366E+03  0.91559624253E+02 0.  0.
        -11    1    4    4    0    0  0.66037763983E+01  0.28935124076E+02  0.63711318564E+02  0.70285015339E+02  0.00000000000E+00 0. -1.
         11    1    4    4    0    0 -0.92978695943E+02 -0.17763232467E+02  0.12410168824E+03  0.15608266832E+03  0.00000000000E+00 0.  1.
        -11    1    3    3    0    0  0.10318830093E+03 -0.32969875637E+02 -0.14488132198E+03  0.18090172914E+03  0.00000000000E+00 0.  1.
         11    1    3    3    0    0  0.36324447968E+01  0.27611278350E+02 -0.13447551474E+02  0.30925943607E+02  0.00000000000E+00 0. -1.
         21    1    1    2  502  501 -0.20445826182E+02 -0.58132943224E+01 -0.29425722797E+02  0.36300128943E+02  0.00000000000E+00 0.  1.
<scales pt_clust_5="13000.00000" pt_clust_6="13000.00000" pt_clust_7="13000.00000" pt_clust_8="13000.00000" pt_clust_9="21.25620"></scales>
<clustering>
<clus scale="   21.256">  2  9  1 -1</clus>
<clus scale="   91.452">  7  8 -1 -1</clus>
<clus scale="   91.560">  5  6 -1 -1</clus>
<clus scale="  127.569">  2  7  1 -1</clus>
<clus scale="  127.646">  1  5  2 -1</clus>
</clustering>
</event>
<event>
 9    1  0.1484717E-005  0.1005441E+03  0.7546771E-02  0.1289349E+00
         -1   -1    0    0    0  501 -0.00000000000E+00  0.00000000000E+00  0.33975986071E+03  0.33975986071E+03  0.00000000000E+00 0.  1.
          1   -1    0    0  502    0  0.00000000000E+00 -0.00000000000E+00 -0.53661404243E+02  0.53661404243E+02  0.00000000000E+00 0. -1.
         23    2    1    2    0    0 -0.10343477966E+02 -0.15332990767E+02  0.93201995224E+02  0.12136890635E+03  0.75509677351E+02 0.  0.
         23    2    1    2    0    0  0.21627718879E+02  0.39186983439E+02  0.32525211697E+02  0.10952456178E+03  0.94521755914E+02 0.  0.
        -11    1    4    4    0    0  0.24188249679E+02  0.22711470981E+00  0.58042765867E+02  0.62881520920E+02  0.00000000000E+00 0.  1.
         11    1    4    4    0    0 -0.25605308006E+01  0.38959868730E+02 -0.25517554170E+02  0.46643040855E+02  0.00000000000E+00 0. -1.
        -13    1    3    3    0    0 -0.20924558254E+02 -0.32904007628E+02  0.93014187180E+02  0.10085707646E+03  0.00000000000E+00 0.  1.
         13    1    3    3    0    0  0.10581080288E+02  0.17571016861E+02  0.18780804452E+00  0.20511829891E+02  0.00000000000E+00 0. -1.
         21    1    1    2  502  501 -0.11284240913E+02 -0.23853992672E+02  0.16037124954E+03  0.16252779682E+03  0.00000000000E+00 0.  1.
<scales pt_clust_5="13000.00000" pt_clust_6="13000.00000" pt_clust_7="13000.00000" pt_clust_8="13000.00000" pt_clust_9="26.38839"></scales>
<clustering>
<clus scale="   26.388">  1  9  2 -1</clus>
<clus scale="   75.510">  7  8 -1 -1</clus>
<clus scale="   82.925">  1  7  2 -1</clus>
<clus scale="   94.522">  5  6 -1 -1</clus>
<clus scale="  100.544">  2  5  1 -1</clus>
</clustering>
</event>
<event>
 9    1  0.1484717E-005  0.1010749E+03  0.7546771E-02  0.1279009E+00
          1   -1    0    0  502    0  0.00000000000E+00  0.00000000000E+00  0.52964933135E+03  0.52964933135E+03  0.00000000000E+00 0. -1.
         -1   -1    0    0    0  501 -0.00000000000E+00 -0.00000000000E+00 -0.30968859910E+02  0.30968859910E+02  0.00000000000E+00 0.  1.
         23    2    1    2    0    0 -0.42564051017E+02  0.19649981484E+02  0.97866542605E+02  0.14011736275E+03  0.88640820006E+02 0.  0.
         23    2    1    2    0    0  0.42328329864E+02  0.45325555244E+01  0.35270082205E+03  0.36665176440E+03  0.90683046359E+02 0.  0.
        -11    1    3    3    0    0 -0.66931380821E+02  0.67459496661E+01  0.46370507483E+02  0.81703987294E+02  0.00000000000E+00 0.  1.
         11    1    3    3    0    0  0.24367329804E+02  0.12904031818E+02  0.51496035122E+02  0.58413375456E+02  0.00000000000E+00 0. -1.
        -13    1    4    4    0    0 -0.25914020874E+01 -0.37041956532E+02  0.10080678816E+03  0.10742825721E+03  0.00000000000E+00 0.  1.
         13    1    4    4    0    0  0.44919731951E+02  0.41574512057E+02  0.25189403389E+03  0.25922350719E+03  0.00000000000E+00 0. -1.
         21    1    1    2  502  501  0.23572115295E+00 -0.24182537008E+02  0.48113106790E+02  0.53849064110E+02  0.00000000000E+00 0. -1.
<scales pt_clust_5="13000.00000" pt_clust_6="13000.00000" pt_clust_7="13000.00000" pt_clust_8="13000.00000" pt_clust_9="24.18369"></scales>
<clustering>
<clus scale="   24.184">  1  9  2 -1</clus>
<clus scale="   88.641">  5  6 -1 -1</clus>
<clus scale="   90.683">  7  8 -1 -1</clus>
<clus scale="   99.247">  2  5  1 -1</clus>
<clus scale="   24.184">  1  5  2 -1</clus>
</clustering>
</event>
<event>
 9    1  0.1484717E-005  0.1298380E+03  0.7546771E-02  0.1235351E+00
          4   -1    0    0  502    0  0.00000000000E+00  0.00000000000E+00  0.17520290461E+03  0.17520290461E+03  0.00000000000E+00 0. -1.
         -4   -1    0    0    0  501 -0.00000000000E+00 -0.00000000000E+00 -0.11599945800E+03  0.11599945800E+03  0.00000000000E+00 0.  1.
         23    2    1    2    0    0 -0.68016166231E+01  0.51181587109E+02 -0.81493854352E+01  0.10537841629E+03  0.91500717420E+02 0.  0.
         23    2    1    2    0    0 -0.53035282275E+01 -0.70129887543E+02  0.83948512030E+02  0.15787776206E+03  0.11371766152E+03 0.  0.
        -11    1    3    3    0    0  0.33477919710E+01  0.31856633003E+02  0.40747491351E+02  0.51830597419E+02  0.00000000000E+00 0. -1.
         11    1    3    3    0    0 -0.10149408594E+02  0.19324954106E+02 -0.48896876786E+02  0.53547818868E+02  0.00000000000E+00 0.  1.
        -13    1    4    4    0    0  0.22986047313E+02  0.20330614663E+02  0.47039397239E+02  0.56164020122E+02  0.00000000000E+00 0. -1.
         13    1    4    4    0    0 -0.28289575541E+02 -0.90460502207E+02  0.36909114790E+02  0.10171374193E+03  0.00000000000E+00 0.  1.
         21    1    1    2  502  501  0.12105144851E+02  0.18948300434E+02 -0.16595679981E+02  0.27946184269E+02  0.00000000000E+00 0. -1.
<scales pt_clust_5="13000.00000" pt_clust_6="13000.00000" pt_clust_7="13000.00000" pt_clust_8="13000.00000" pt_clust_9="22.48494"></scales>
<clustering>
<clus scale="   22.485">  2  9  1 -1</clus>
<clus scale="   91.501">  5  6 -1 -1</clus>
<clus scale="  110.899">  2  5  1 -1</clus>
<clus scale="  113.718">  7  8 -1 -1</clus>
<clus scale="  129.838">  1  5  2 -1</clus>
</clustering>
</event>
<event>
 9    1  0.1484717E-005  0.9243899E+02  0.7546771E-02  0.1298744E+00
          1   -1    0    0  502    0  0.00000000000E+00  0.00000000000E+00  0.31275413352E+03  0.31275413352E+03  0.00000000000E+00 0. -1.
         -1   -1    0    0    0  501 -0.00000000000E+00 -0.00000000000E+00 -0.78879622362E+02  0.78879622362E+02  0.00000000000E+00 0.  1.
         23    2    1    2    0    0  0.20548079492E+02 -0.32748945161E+02 -0.22809016045E+02  0.99018073523E+02  0.88258771186E+02 0.  0.
         23    2    1    2    0    0  0.60065362602E+01  0.12628343400E+02  0.23605844128E+03  0.25343175195E+03  0.91151037641E+02 0.  0.
        -11    1    4    4    0    0 -0.31708958523E+02  0.28066033649E+02  0.64932787149E+02  0.77520494982E+02  0.00000000000E+00 0. -1.
         11    1    4    4    0    0  0.37715494783E+02 -0.15437690248E+02  0.17112565413E+03  0.17591125697E+03  0.00000000000E+00 0.  1.
        -11    1    3    3    0    0  0.30621441891E+02 -0.56500016148E+02 -0.31794046996E+02  0.71699274422E+02  0.00000000000E+00 0.  1.
         11    1    3    3    0    0 -0.10073362400E+02  0.23751070988E+02  0.89850309514E+01  0.27318799101E+02  0.00000000000E+00 0. -1.
         21    1    1    2  502  501 -0.26554615752E+02  0.20120601760E+02  0.20625085925E+02  0.39183930409E+02  0.00000000000E+00 0. -1.
<scales pt_clust_5="13000.00000" pt_clust_6="13000.00000" pt_clust_7="13000.00000" pt_clust_8="13000.00000" pt_clust_9="33.31646"></scales>
<clustering>
<clus scale="   33.316">  2  9  1 -1</clus>
<clus scale="   88.259">  7  8 -1 -1</clus>
<clus scale="   89.588">  2  7  1 -1</clus>
<clus scale="   91.151">  5  6 -1 -1</clus>
<clus scale="   92.439">  1  5  2 -1</clus>
</clustering>
</event>
<event>
 9    1  0.1484717E-005  0.9392772E+02  0.7546771E-02  0.1295690E+00
         -1   -1    0    0    0  501 -0.00000000000E+00  0.00000000000E+00  0.78806440953E+03  0.78806440953E+03  0.00000000000E+00 0.  1.
          1   -1    0    0  502    0  0.00000000000E+00 -0.00000000000E+00 -0.22802713423E+02  0.22802713423E+02  0.00000000000E+00 0. -1.
         23    2    1    2    0    0  0.12538901520E+02  0.27842280195E+02  0.33891756046E+03  0.35259336588E+03  0.92328501866E+02 0.  0.
         23    2    1    2    0    0  0.45129023382E+02  0.76467545362E+01  0.23579093545E+03  0.25604719291E+03  0.88700045938E+02 0.  0.
        -13    1    4    4    0    0  0.36026805115E+02  0.38515372878E+02  0.20438626286E+03  0.21108081173E+03  0.00000000000E+00 0.  1.
         13    1    4    4    0    0  0.91022182665E+01 -0.30868618342E+02  0.31404672587E+02  0.44966381175E+02  0.00000000000E+00 0. -1.
        -13    1    3    3    0    0  0.21733284446E+02  0.58967238040E+02  0.25470275661E+03  0.26234131402E+03  0.00000000000E+00 0.  1.
         13    1    3    3    0    0 -0.91943829260E+01 -0.31124957845E+02  0.84214803844E+02  0.90252051859E+02  0.00000000000E+00 0. -1.
         21    1    1    2  502  501 -0.57667924901E+02 -0.35489034731E+02  0.19055320020E+03  0.20222656417E+03  0.00000000000E+00 0. -1.
<scales pt_clust_5="13000.00000" pt_clust_6="13000.00000" pt_clust_7="13000.00000" pt_clust_8="13000.00000" pt_clust_9="67.71308"></scales>
<clustering>
<clus scale="   67.713">  2  9  1 -1</clus>
<clus scale="   88.700">  5  6 -1 -1</clus>
<clus scale="   90.363">  2  5  1 -1</clus>
<clus scale="   92.329">  7  8 -1 -1</clus>
<clus scale="   67.713">  2  5  1 -1</clus>
</clustering>
</event>
<event>
 9    1  0.1484717E-005  0.1176374E+03  0.7546771E-02  0.1251153E+00
         -2   -1    0    0    0  501 -0.00000000000E+00  0.00000000000E+00  0.23045139984E+03  0.23045139984E+03  0.00000000000E+00 0.  1.
          2   -1    0    0  502    0  0.00000000000E+00 -0.00000000000E+00 -0.22481327464E+03  0.22481327464E+03  0.00000000000E+00 0. -1.
         23    2    1    2    0    0 -0.90311064309E+01 -0.27232739160E+02  0.16251289102E+03  0.19012474221E+03  0.94412895767E+02 0.  0.
         23    2    1    2    0    0  0.36433592241E+02  0.42236787720E+02 -0.18711377750E+03  0.22166102325E+03  0.10493183796E+03 0.  0.
        -11    1    4    4    0    0 -0.12170035398E+02  0.64312145329E+02 -0.10344752880E+03  0.12241549335E+03  0.00000000000E+00 0. -1.
         11    1    4    4    0    0  0.48603627639E+02 -0.22075357609E+02 -0.83666248703E+02  0.99245529901E+02  0.00000000000E+00 0.  1.
        -13    1    3    3    0    0  0.36544134399E+02  0.96272582004E+01  0.84318169876E+02  0.92399738261E+02  0.00000000000E+00 0. -1.
         13    1    3    3    0    0 -0.45575240829E+02 -0.36859997360E+02  0.78194721146E+02  0.97725003951E+02  0.00000000000E+00 0.  1.
         21    1    1    2  502  501 -0.27402485810E+02 -0.15004048560E+02  0.30239011678E+02  0.43478909014E+02  0.00000000000E+00 0.  1.
<scales pt_clust_5="13000.00000" pt_clust_6="13000.00000" pt_clust_7="13000.00000" pt_clust_8="13000.00000" pt_clust_9="31.24128"></scales>
<clustering>
<clus scale="   31.241">  1  9  2 -1</clus>
<clus scale="   94.413">  7  8 -1 -1</clus>
<clus scale="  104.932">  5  6 -1 -1</clus>
<clus scale="  108.359">  1  7  2 -1</clus>
<clus scale="  117.637">  2  5  1 -1</clus>
</clustering>
</event>
<event>
 9    1  0.1484717E-005  0.1179952E+03  0.7546771E-02  0.1246992E+00
         -1   -1    0    0    0  501 -0.00000000000E+00  0.00000000000E+00  0.33597741139E+03  0.33597741139E+03  0.00000000000E+00 0.  1.
          1   -1    0    0  502    0  0.00000000000E+00 -0.00000000000E+00 -0.17005261988E+03  0.17005261988E+03  0.00000000000E+00 0. -1.
         23    2    1    2    0    0 -0.29415279766E+02 -0.91629733184E+02 -0.29369226587E+02  0.13658732870E+03  0.92370342667E+02 0.  0.
         23    2    1    2    0    0 -0.63913495819E+02  0.51768932363E+02 -0.26726985236E+02  0.12532701337E+03  0.90705960298E+02 0.  0.
        -13    1    4    4    0    0  0.15613349811E+02  0.32529859708E+02 -0.24238876643E+02  0.43468282757E+02  0.00000000000E+00 0.  1.
         13    1    4    4    0    0 -0.79526845630E+02  0.19239072655E+02 -0.24881085934E+01  0.81858730609E+02  0.00000000000E+00 0. -1.
        -13    1    3    3    0    0  0.94015144781E+01 -0.45382328774E+02 -0.54190380369E+02  0.71305971447E+02  0.00000000000E+00 0.  1.
         13    1    3    3    0    0 -0.38816794244E+02 -0.46247404411E+02  0.24821153781E+02  0.65281357255E+02  0.00000000000E+00 0. -1.
         21    1    1    2  502  501  0.93328775584E+02  0.39860800822E+02  0.22202100333E+03  0.24411568920E+03  0.00000000000E+00 0.  1.
<scales pt_clust_5="13000.00000" pt_clust_6="13000.00000" pt_clust_7="13000.00000" pt_clust_8="13000.00000" pt_clust_9="101.48470"></scales>
<clustering>
<clus scale="   90.706">  5  6 -1 -1</clus>
<clus scale="   92.370">  7  8 -1 -1</clus>
<clus scale="  101.485">  1  9  2 -1</clus>
<clus scale="  116.697">  2  5  1 -1</clus>
<clus scale="  116.697">  2  5  1 -1</clus>
</clustering>
</event>
<event>
 9    1  0.1484717E-005  0.9680745E+02  0.7546771E-02  0.1287571E+00
         -1   -1    0    0    0  501 -0.00000000000E+00  0.00000000000E+00  0.44927375411E+03  0.44927375411E+03  0.00000000000E+00 0.  1.
          1   -1    0    0  502    0  0.00000000000E+00 -0.00000000000E+00 -0.52526093813E+02  0.52526093813E+02  0.00000000000E+00 0. -1.
         23    2    1    2    0    0  0.11723909835E+02 -0.18486830422E+02  0.17483480025E+03  0.19793611709E+03  0.90179188886E+02 0.  0.
         23    2    1    2    0    0  0.16969476692E+02  0.38917214200E+02  0.22639340054E+02  0.10150106931E+03  0.89372337173E+02 0.  0.
        -11    1    3    3    0    0 -0.24599388141E+02 -0.36759772884E+02  0.13043846985E+03  0.13773382016E+03  0.00000000000E+00 0.  1.
         11    1    3    3    0    0  0.36323297976E+02  0.18272942463E+02  0.44396330398E+02  0.60202296924E+02  0.00000000000E+00 0. -1.
        -13    1    4    4    0    0  0.19889388019E+02 -0.25709278636E+02 -0.12758785330E+01  0.32529719178E+02  0.00000000000E+00 0.  1.
         13    1    4    4    0    0 -0.29199113274E+01  0.64626492835E+02  0.23915218587E+02  0.68971350128E+02  0.00000000000E+00 0. -1.
         21    1    1    2  502  501 -0.28693386527E+02 -0.20430383778E+02  0.19927351999E+03  0.20236266153E+03  0.00000000000E+00 0.  1.
<scales pt_clust_5="13000.00000" pt_clust_6="13000.00000" pt_clust_7="13000.00000" pt_clust_8="13000.00000" pt_clust_9="35.22373"></scales>
<clustering>
<clus scale="   35.224">  1  9  2 -1</clus>
<clus scale="   89.372">  7  8 -1 -1</clus>
<clus scale="   90.179">  5  6 -1 -1</clus>
<clus scale="   96.056">  2  7  1 -1</clus>
<clus scale="   96.056">  2  5  1 -1</clus>
</clustering>
</event>
<event>
 9    1  0.1484717E-005  0.1106261E+03  0.7546771E-02  0.1259431E+00
         -1   -1    0    0    0  501 -0.00000000000E+00  0.00000000000E+00  0.87343655944E+02  0.87343655944E+02  0.00000000000E+00 0.  1.
          1   -1    0    0  502    0  0.00000000000E+00 -0.00000000000E+00 -0.30777930348E+03  0.30777930348E+03  0.00000000000E+00 0. -1.
         23    2    1    2    0    0 -0.54754490713E+01 -0.43357695761E+02 -0.28827604177E+02  0.10542052464E+03  0.91501835660E+02 0.  0.
         23    2    1    2    0    0 -0.47316019291E+00  0.68917869012E+02 -0.22182971824E+03  0.24967671753E+03  0.91543120083E+02 0.  0.
        -13    1    4    4    0    0 -0.35478790118E+02  0.70731075584E+02 -0.16309055451E+03  0.18127371175E+03  0.00000000000E+00 0.  1.
         13    1    4    4    0    0  0.35005629925E+02 -0.18132065718E+01 -0.58739163728E+02  0.68403005782E+02  0.00000000000E+00 0. -1.
        -13    1    3    3    0    0  0.34293488036E+02 -0.28093445452E+02 -0.41759910105E+02  0.60902997389E+02  0.00000000000E+00 0. -1.
         13    1    3    3    0    0 -0.39768937107E+02 -0.15264250309E+02  0.12932305928E+02  0.44517527253E+02  0.00000000000E+00 0.  1.
         21    1    1    2  502  501  0.59486092643E+01 -0.25560173251E+02  0.30221674879E+02  0.40025717249E+02  0.00000000000E+00 0. -1.
<scales pt_clust_5="13000.00000" pt_clust_6="13000.00000" pt_clust_7="13000.00000" pt_clust_8="13000.00000" pt_clust_9="26.24325"></scales>
<clustering>
<clus scale="   26.243">  1  9  2 -1</clus>
<clus scale="   91.502">  7  8 -1 -1</clus>
<clus scale="   91.543">  5  6 -1 -1</clus>
<clus scale="  110.592">  1  7  2 -1</clus>
<clus scale="  110.626">  2  5  1 -1</clus>
</clustering>
</event>
<event>
 9    1  0.2217444E-005  0.1009088E+03  0.7546771E-02  0.1280851E+00
         -3   -1    0    0    0  501 -0.00000000000E+00  0.00000000000E+00  0.13053104164E+03  0.13053104164E+03  0.00000000000E+00 0.  1.
          3   -1    0    0  502    0  0.00000000000E+00 -0.00000000000E+00 -0.30765641219E+03  0.30765641219E+03  0.00000000000E+00 0. -1.
         23    2    1    2    0    0 -0.62680812360E+01 -0.61088182676E+01  0.77414643149E+02  0.11962622029E+03  0.90778847229E+02 0.  0.
         23    2    1    2    0    0 -0.17356738469E+02  0.30404888993E+02 -0.26433854049E+03  0.28328457998E+03  0.95653414069E+02 0.  0.
        -11    1    4    4    0    0 -0.22082735264E+02 -0.32194855521E+02 -0.97480605026E+02  0.10500773436E+03  0.00000000000E+00 0.  1.
         11    1    4    4    0    0  0.47259967954E+01  0.62599744514E+02 -0.16685793546E+03  0.17827684562E+03  0.00000000000E+00 0. -1.
        -11    1    3    3    0    0 -0.18643256472E+02  0.39574727867E+02  0.34077941160E+02  0.55453008678E+02  0.00000000000E+00 0. -1.
         11    1    3    3    0    0  0.12375175236E+02 -0.45683546135E+02  0.43336701989E+02  0.64173211614E+02  0.00000000000E+00 0.  1.
         21    1    1    2  502  501  0.23624819705E+02 -0.24296070726E+02  0.97985267932E+01  0.35276653556E+02  0.00000000000E+00 0.  1.
<scales pt_clust_5="13000.00000" pt_clust_6="13000.00000" pt_clust_7="13000.00000" pt_clust_8="13000.00000" pt_clust_9="33.88851"></scales>
<clustering>
<clus scale="   33.889">  1  9  2 -1</clus>
<clus scale="   90.779">  7  8 -1 -1</clus>
<clus scale="   95.653">  5  6 -1 -1</clus>
<clus scale="   96.301">  1  7  2 -1</clus>
<clus scale="  100.909">  2  5  1 -1</clus>
</clustering>
</event>
<event>
 9    1  0.1484717E-005  0.1067690E+03  0.7546771E-02  0.1267010E+00
         -1   -1    0    0    0  501 -0.00000000000E+00  0.00000000000E+00  0.28738638763E+02  0.28738638763E+02  0.00000000000E+00 0.  1.
          1   -1    0    0  502    0  0.00000000000E+00 -0.00000000000E+00 -0.74225173119E+03  0.74225173119E+03  0.00000000000E+00 0. -1.
         23    2    1    2    0    0 -0.30332718085E+02 -0.59089341722E+02 -0.36426431884E+03  0.38120148874E+03  0.90633641363E+02 0.  0.
         23    2    1    2    0    0  0.40815427642E+02  0.29699178500E+02 -0.34277244668E+03  0.35792021785E+03  0.89810866893E+02 0.  0.
        -13    1    4    4    0    0  0.26633205225E+02  0.61074893193E+02 -0.25695024862E+03  0.26544848929E+03  0.00000000000E+00 0. -1.
         13    1    4    4    0    0  0.14182222417E+02 -0.31375714693E+02 -0.85822198056E+02  0.92471728568E+02  0.00000000000E+00 0.  1.
        -13    1    3    3    0    0 -0.49314011231E+02 -0.68034983179E+02 -0.33377296881E+03  0.34418748575E+03  0.00000000000E+00 0.  1.
         13    1    3    3    0    0  0.18981293147E+02  0.89456414575E+01 -0.30491350031E+02  0.37014002990E+02  0.00000000000E+00 0. -1.
         21    1    1    2  502  501 -0.10482709557E+02  0.29390163222E+02 -0.64763269111E+01  0.31868663356E+02  0.00000000000E+00 0. -1.
<scales pt_clust_5="13000.00000" pt_clust_6="13000.00000" pt_clust_7="13000.00000" pt_clust_8="13000.00000" pt_clust_9="31.20367"></scales>
<clustering>
<clus scale="   31.204">  1  9  2 -1</clus>
<clus scale="   89.811">  5  6 -1 -1</clus>
<clus scale="   90.634">  7  8 -1 -1</clus>
<clus scale="  106.071">  2  5  1 -1</clus>
<clus scale="  106.071">  2  5  1 -1</clus>
</clustering>
</event>
<event>
 9    1  0.1484717E-005  0.1217342E+03  0.7546771E-02  0.1240479E+00
         -1   -1    0    0    0  501 -0.00000000000E+00  0.00000000000E+00  0.32214054945E+03  0.32214054945E+03  0.00000000000E+00 0.  1.
          1   -1    0    0  502    0  0.00000000000E+00 -0.00000000000E+00 -0.63355316654E+02  0.63355316654E+02  0.00000000000E+00 0. -1.
         23    2    1    2    0    0  0.33044653139E+02 -0.55020312825E+02  0.13103280751E+03  0.17204588861E+03  0.91164725747E+02 0.  0.
         23    2    1    2    0    0 -0.61409391141E+02  0.69847337553E+02  0.69988550546E+02  0.14741162311E+03  0.90454549563E+02 0.  0.
        -11    1    3    3    0    0  0.10576441014E+02  0.21923604789E+02  0.60730060183E+02  0.65426644124E+02  0.00000000000E+00 0. -1.
         11    1    3    3    0    0  0.22468212125E+02 -0.76943917614E+02  0.70302747323E+02  0.10661924449E+03  0.00000000000E+00 0.  1.
        -13    1    4    4    0    0 -0.75625268672E+02  0.37654506137E+02  0.20928349265E+02  0.87034699386E+02  0.00000000000E+00 0. -1.
         13    1    4    4    0    0  0.14215877532E+02  0.32192831416E+02  0.49060201281E+02  0.60376923724E+02  0.00000000000E+00 0.  1.
         21    1    1    2  502  501  0.28364738002E+02 -0.14827024728E+02  0.57763874742E+02  0.66038354381E+02  0.00000000000E+00 0.  1.
<scales pt_clust_5="13000.00000" pt_clust_6="13000.00000" pt_clust_7="13000.00000" pt_clust_8="13000.00000" pt_clust_9="32.00623"></scales>
<clustering>
<clus scale="   32.006">  1  9  2 -1</clus>
<clus scale="   90.455">  7  8 -1 -1</clus>
<clus scale="   91.165">  5  6 -1 -1</clus>
<clus scale="  121.203">  2  7  1 -1</clus>
<clus scale="  121.203">  2  5  1 -1</clus>
</clustering>
</event>
<event>
 9    1  0.1484717E-005  0.1113199E+03  0.7546771E-02  0.1258549E+00
          1   -1    0    0  502    0  0.00000000000E+00  0.00000000000E+00  0.18161605957E+03  0.18161605957E+03  0.00000000000E+00 0. -1.
         -1   -1    0    0    0  501 -0.00000000000E+00 -0.00000000000E+00 -0.16422152041E+03  0.16422152041E+03  0.00000000000E+00 0.  1.
         23    2    1    2    0    0 -0.87105476205E+01 -0.65517925459E+02 -0.62692792412E+02  0.12970486672E+03  0.92328186563E+02 0.  0.
         23    2    1    2    0    0  0.77343358238E+02  0.29952461236E+02  0.45497555155E+02  0.13144612889E+03  0.91262874586E+02 0.  0.
        -11    1    4    4    0    0  0.45712149923E+02 -0.11444446515E+02 -0.16987321939E+02  0.50091367652E+02  0.00000000000E+00 0.  1.
         11    1    4    4    0    0  0.31631208316E+02  0.41396907750E+02  0.62484877094E+02  0.81354761239E+02  0.00000000000E+00 0. -1.
        -13    1    3    3    0    0 -0.13687483073E+02 -0.85456581595E+02 -0.30995590767E+02  0.91928783185E+02  0.00000000000E+00 0.  1.
         13    1    3    3    0    0  0.49769354528E+01  0.19938656137E+02 -0.31697201645E+02  0.37776083534E+02  0.00000000000E+00 0. -1.
         21    1    1    2  502  501 -0.68632810618E+02  0.35565464223E+02  0.34589776420E+02  0.84686584365E+02  0.00000000000E+00 0. -1.
<scales pt_clust_5="13000.00000" pt_clust_6="13000.00000" pt_clust_7="13000.00000" pt_clust_8="13000.00000" pt_clust_9="77.30048"></scales>
<clustering>
<clus scale="   77.300">  1  9  2 -1</clus>
<clus scale="   91.263">  5  6 -1 -1</clus>
<clus scale="   92.328">  7  8 -1 -1</clus>
<clus scale="  110.438">  1  5  2 -1</clus>
<clus scale="   77.300">  1  5  2 -1</clus>
</clustering>
</event>
<event>
 9    1  0.1484717E-005  0.9891395E+02  0.7546771E-02  0.1283814E+00
         -1   -1    0    0    0  501 -0.00000000000E+00  0.00000000000E+00  0.15767665314E+03  0.15767665314E+03  0.00000000000E+00 0.  1.
          1   -1    0    0  502    0  0.00000000000E+00 -0.00000000000E+00 -0.18878442085E+03  0.18878442085E+03  0.00000000000E+00 0. -1.
         23    2    1    2    0    0 -0.12767394879E+02 -0.43171868400E+02  0.24026114018E+02  0.10611620183E+03  0.93040730564E+02 0.  0.
         23    2    1    2    0    0 -0.39365885029E+02  0.11751813817E+02 -0.11697020248E+03  0.15357604557E+03  0.90641025319E+02 0.  0.
        -11    1    4    4    0    0 -0.52886160971E+02  0.34920632223E+02 -0.47781727295E+02  0.79369326824E+02  0.00000000000E+00 0.  1.
         11    1    4    4    0    0  0.13520275942E+02 -0.23168818406E+02 -0.69188475188E+02  0.74206718744E+02  0.00000000000E+00 0. -1.
        -11    1    3    3    0    0  0.41899507883E+01 -0.58939396316E+02 -0.14796539898E+02  0.60912607223E+02  0.00000000000E+00 0. -1.
         11    1    3    3    0    0 -0.16957345667E+02  0.15767527916E+02  0.38822653917E+02  0.45203594612E+02  0.00000000000E+00 0.  1.
         21    1    1    2  502  501  0.52133279908E+02  0.31420054583E+02  0.61836320754E+02  0.86768826593E+02  0.00000000000E+00 0.  1.
<scales pt_clust_5="13000.00000" pt_clust_6="13000.00000" pt_clust_7="13000.00000" pt_clust_8="13000.00000" pt_clust_9="60.86952"></scales>
<clustering>
<clus scale="   60.870">  1  9  2 -1</clus>
<clus scale="   90.641">  5  6 -1 -1</clus>
<clus scale="   93.041">  7  8 -1 -1</clus>
<clus scale="   96.660">  2  5  1 -1</clus>
<clus scale="   96.660">  2  5  1 -1</clus>
</clustering>
</event>
<event>
 9    1  0.1484717E-005  0.1202923E+03  0.7546771E-02  0.1242766E+00
         -1   -1    0    0    0  501 -0.00000000000E+00  0.00000000000E+00  0.41609174683E+03  0.41609174683E+03  0.00000000000E+00 0.  1.
          1   -1    0    0  502    0  0.00000000000E+00 -0.00000000000E+00 -0.14838922302E+03  0.14838922302E+03  0.00000000000E+00 0. -1.
         23    2    1    2    0    0 -0.14430120444E+02 -0.29760270005E+02  0.32792367280E+03  0.34206751249E+03  0.91555152070E+02 0.  0.
         23    2    1    2    0    0  0.92049157694E+00  0.81666465829E+02 -0.97586761724E+02  0.15704563460E+03  0.92032039728E+02 0.  0.
        -11    1    4    4    0    0  0.41016946312E+02  0.68255483998E+02 -0.73602423939E+02  0.10843669946E+03  0.00000000000E+00 0. -1.
         11    1    4    4    0    0 -0.40096454735E+02  0.13410981831E+02 -0.23984337786E+02  0.48608935136E+02  0.00000000000E+00 0.  1.
        -13    1    3    3    0    0  0.38864125166E+02 -0.12698336057E+02  0.15582947352E+03  0.16110398127E+03  0.00000000000E+00 0.  1.
         13    1    3    3    0    0 -0.53294245610E+02 -0.17061933948E+02  0.17209419927E+03  0.18096353121E+03  0.00000000000E+00 0. -1.
         21    1    1    2  502  501  0.13509628867E+02 -0.51906195824E+02  0.37365612738E+02  0.65367822759E+02  0.00000000000E+00 0.  1.
<scales pt_clust_5="13000.00000" pt_clust_6="13000.00000" pt_clust_7="13000.00000" pt_clust_8="13000.00000" pt_clust_9="53.63547"></scales>
<clustering>
<clus scale="   53.635">  1  9  2 -1</clus>
<clus scale="   91.555">  7  8 -1 -1</clus>
<clus scale="   92.032">  5  6 -1 -1</clus>
<clus scale="  119.928">  1  7  2 -1</clus>
<clus scale="  120.292">  2  5  1 -1</clus>
</clustering>
</event>
<event>
 9    1  0.1484717E-005  0.9726030E+02  0.7546771E-02  0.1286837E+00
          2   -1    0    0  502    0  0.00000000000E+00  0.00000000000E+00  0.60555185233E+03  0.60555185233E+03  0.00000000000E+00 0. -1.
         -2   -1    0    0    0  501 -0.00000000000E+00 -0.00000000000E+00 -0.34924161553E+02  0.34924161553E+02  0.00000000000E+00 0.  1.
         23    2    1    2    0    0 -0.41957462725E+02 -0.44146524442E+02  0.29506749172E+03  0.31436478543E+03  0.89727639847E+02 0.  0.
         23    2    1    2    0    0  0.17830643912E+02 -0.44975884667E+01  0.24881435566E+03  0.26558277856E+03  0.91035534390E+02 0.  0.
        -11    1    3    3    0    0 -0.64458552661E+02 -0.53265950101E+02  0.24105663306E+03  0.25514793119E+03  0.00000000000E+00 0. -1.
         11    1    3    3    0    0  0.22501089936E+02  0.91194256593E+01  0.54010858661E+02  0.59216854239E+02  0.00000000000E+00 0.  1.
        -11    1    4    4    0    0 -0.32204324226E+02  0.83646460059E+00  0.43131759321E+02  0.53834624861E+02  0.00000000000E+00 0. -1.
         11    1    4    4    0    0  0.50034968138E+02 -0.53340530673E+01  0.20568259634E+03  0.21174815370E+03  0.00000000000E+00 0.  1.
         21    1    1    2  502  501  0.24126818813E+02  0.48644112909E+02  0.26745843398E+02  0.60528449887E+02  0.00000000000E+00 0.  1.
<scales pt_clust_5="13000.00000" pt_clust_6="13000.00000" pt_clust_7="13000.00000" pt_clust_8="13000.00000" pt_clust_9="54.29874"></scales>
<clustering>
<clus scale="   54.299">  2  9  1 -1</clus>
<clus scale="   89.728">  5  6 -1 -1</clus>
<clus scale="   91.036">  7  8 -1 -1</clus>
<clus scale="   96.037">  2  5  1 -1</clus>
<clus scale="   97.260">  1  5  2 -1</clus>
</clustering>
</event>
<event>
 9    1  0.1484717E-005  0.1080430E+03  0.7546771E-02  0.1269884E+00
          2   -1    0    0  502    0  0.00000000000E+00  0.00000000000E+00  0.15257390380E+03  0.15257390380E+03  0.00000000000E+00 0. -1.
         -2   -1    0    0    0  501 -0.00000000000E+00 -0.00000000000E+00 -0.18278798081E+03  0.18278798081E+03  0.00000000000E+00 0.  1.
         23    2    1    2    0    0  0.47213350447E+01 -0.17593458920E+02 -0.88852960688E+02  0.13676991676E+03  0.10236865100E+03 0.  0.
         23    2    1    2    0    0 -0.21761668066E+02  0.30513563831E+02  0.10741488439E+03  0.14533410172E+03  0.90440013043E+02 0.  0.
        -11    1    3    3    0    0 -0.21184519095E+02  0.21782154973E+02  0.58897901839E+01  0.30950537200E+02  0.00000000000E+00 0. -1.
         11    1    3    3    0    0  0.25905854140E+02 -0.39375613893E+02 -0.94742750872E+02  0.10581937956E+03  0.00000000000E+00 0.  1.
        -13    1    4    4    0    0 -0.50660074415E+02  0.20273139235E+02  0.30449490671E+02  0.62486917001E+02  0.00000000000E+00 0. -1.
         13    1    4    4    0    0  0.28898406349E+02  0.10240424596E+02  0.76965393716E+02  0.82847184716E+02  0.00000000000E+00 0.  1.
         21    1    1    2  502  501  0.17040333022E+02 -0.12920104911E+02 -0.48776000702E+02  0.53257866132E+02  0.00000000000E+00 0.  1.
<scales pt_clust_5="13000.00000" pt_clust_6="13000.00000" pt_clust_7="13000.00000" pt_clust_8="13000.00000" pt_clust_9="21.38462"></scales>
<clustering>
<clus scale="   21.385">  2  9  1 -1</clus>
<clus scale="   90.440">  7  8 -1 -1</clus>
<clus scale="   96.816">  1  7  2 -1</clus>
<clus scale="  102.369">  5  6 -1 -1</clus>
<clus scale="   96.816">  1  5  2 -1</clus>
</clustering>
</event>
<event>
 9    1  0.1484717E-005  0.1323134E+03  0.7546771E-02  0.1224218E+00
          1   -1    0    0  502    0  0.00000000000E+00  0.00000000000E+00  0.14162088933E+03  0.14162088933E+03  0.00000000000E+00 0. -1.
         -1   -1    0    0    0  501 -0.00000000000E+00 -0.00000000000E+00 -0.23593804816E+03  0.23593804816E+03  0.00000000000E+00 0.  1.
         23    2    1    2    0    0  0.67111772189E+02 -0.96147820332E+02 -0.17411093853E+02  0.14971866308E+03  0.91455664481E+02 0.  0.
         23    2    1    2    0    0 -0.78045738255E+02  0.34198249900E+02  0.38058252960E+01  0.12550890032E+03  0.92072483385E+02 0.  0.
        -13    1    4    4    0    0 -0.24247385782E+02 -0.29198558311E+02 -0.14041686080E+02  0.40468017899E+02  0.00000000000E+00 0.  1.
         13    1    4    4    0    0 -0.53798352474E+02  0.63396808211E+02  0.17847511376E+02  0.85040882419E+02  0.00000000000E+00 0. -1.
        -13    1    3    3    0    0  0.63147584626E+01 -0.77737322198E+02 -0.32392415774E+02  0.84452566785E+02  0.00000000000E+00 0. -1.
         13    1    3    3    0    0  0.60797013727E+02 -0.18410498134E+02  0.14981321921E+02  0.65266096299E+02  0.00000000000E+00 0.  1.
         21    1    1    2  502  501  0.10933966066E+02  0.61949570431E+02 -0.80711890276E+02  0.10233137409E+03  0.00000000000E+00 0.  1.
<scales pt_clust_5="13000.00000" pt_clust_6="13000.00000" pt_clust_7="13000.00000" pt_clust_8="13000.00000" pt_clust_9="62.90708"></scales>
<clustering>
<clus scale="   62.907">  2  9  1 -1</clus>
<clus scale="   91.456">  7  8 -1 -1</clus>
<clus scale="   92.072">  5  6 -1 -1</clus>
<clus scale="  131.885">  2  7  1 -1</clus>
<clus scale="  132.313">  1  5  2 -1</clus>
</clustering>
</event>
<event>
 9    1  0.1484717E-005  0.1115776E+03  0.7546771E-02  0.1258283E+00
          1   -1    0    0  502    0  0.00000000000E+00  0.00000000000E+00  0.52824414660E+03  0.52824414660E+03  0.00000000000E+00 0. -1.
         -1   -1    0    0    0  501 -0.00000000000E+00 -0.00000000000E+00 -0.48964157159E+02  0.48964157159E+02  0.00000000000E+00 0.  1.
         23    2    1    2    0    0  0.68798169021E+02  0.28836764214E+02  0.11451678993E+03  0.16474608946E+03  0.91991476695E+02 0.  0.
         23    2    1    2    0    0 -0.48232791795E+02 -0.35869447644E+02  0.37356446172E+03  0.38901321447E+03  0.90376183246E+02 0.  0.
        -11    1    3    3    0    0  0.56023110692E+02  0.48787067196E+02  0.35652754698E+02  0.82400763192E+02  0.00000000000E+00 0.  1.
         11    1    3    3    0    0  0.12775058329E+02 -0.19950302982E+02  0.78864035235E+02  0.82345326266E+02  0.00000000000E+00 0. -1.
        -13    1    4    4    0    0  0.18467362531E+02 -0.12779550776E+02  0.26010323464E+02  0.34364186642E+02  0.00000000000E+00 0.  1.
         13    1    4    4    0    0 -0.66700154326E+02 -0.23089896868E+02  0.34755413825E+03  0.35464902783E+03  0.00000000000E+00 0. -1.
         21    1    1    2  502  501 -0.20565377225E+02  0.70326834303E+01 -0.88012622062E+01  0.23448999831E+02  0.00000000000E+00 0. -1.
<scales pt_clust_5="13000.00000" pt_clust_6="13000.00000" pt_clust_7="13000.00000" pt_clust_8="13000.00000" pt_clust_9="21.73461"></scales>
<clustering>
<clus scale="   21.735">  2  9  1 -1</clus>
<clus scale="   90.376">  7  8 -1 -1</clus>
<clus scale="   91.991">  5  6 -1 -1</clus>
<clus scale="  110.250">  1  7  2 -1</clus>
<clus scale="  110.250">  1  5  2 -1</clus>
</clustering>
</event>
<event>
 9    1  0.1484717E-005  0.9436113E+02  0.7546771E-02  0.1293006E+00
          4   -1    0    0  502    0  0.00000000000E+00  0.00000000000E+00  0.68449880854E+02  0.68449880854E+02  0.00000000000E+00 0. -1.
         -4   -1    0    0    0  501 -0.00000000000E+00 -0.00000000000E+00 -0.20897808271E+03  0.20897808271E+03  0.00000000000E+00 0.  1.
         23    2    1    2    0    0 -0.56428055738E+01  0.37594066394E+01 -0.62136670480E+02  0.11026305512E+03  0.90835021401E+02 0.  0.
         23    2    1    2    0    0  0.31286060538E+02 -0.12675116270E+02 -0.15651854580E+02  0.98803124912E+02  0.91529234588E+02 0.  0.
        -11    1    3    3    0    0 -0.38723707082E+02  0.17538333524E+02 -0.61073311534E+02  0.74411477707E+02  0.00000000000E+00 0.  1.
         11    1    3    3    0    0  0.33080901508E+02 -0.13778926884E+02 -0.10633589464E+01  0.35851577412E+02  0.00000000000E+00 0. -1.
        -13    1    4    4    0    0  0.30625696155E+02 -0.50829481763E+02 -0.79407346163E+01  0.59871735798E+02  0.00000000000E+00 0. -1.
         13    1    4    4    0    0  0.66036438312E+00  0.38154365493E+02 -0.77111199633E+01  0.38931389114E+02  0.00000000000E+00 0.  1.
         21    1    1    2  502  501 -0.25643254964E+02  0.89157096307E+01 -0.62739676799E+02  0.68361783536E+02  0.00000000000E+00 0.  1.
<scales pt_clust_5="13000.00000" pt_clust_6="13000.00000" pt_clust_7="13000.00000" pt_clust_8="13000.00000" pt_clust_9="27.14897"></scales>
<clustering>
<clus scale="   27.149">  2  9  1 -1</clus>
<clus scale="   90.835">  5  6 -1 -1</clus>
<clus scale="   91.529">  7  8 -1 -1</clus>
<clus scale="   93.688">  2  5  1 -1</clus>
<clus scale="   94.361">  1  5  2 -1</clus>
</clustering>
</event>
<event>
 9    1  0.1484717E-005  0.1001509E+03  0.7546771E-02  0.1282758E+00
          1   -1    0    0  502    0  0.00000000000E+00  0.00000000000E+00  0.53969564245E+03  0.53969564245E+03  0.00000000000E+00 0. -1.
         -1   -1    0    0    0  501 -0.00000000000E+00 -0.00000000000E+00 -0.44669747012E+02  0.44669747012E+02  0.00000000000E+00 0.  1.
         23    2    1    2    0    0 -0.12711662489E+02 -0.71315855285E+02  0.64628772939E+02  0.12893403255E+03  0.84850273310E+02 0.  0.
         23    2    1    2    0    0  0.20773739537E+02  0.31421777778E+02  0.36863805450E+03  0.38146706155E+03  0.90577190590E+02 0.  0.
        -11    1    3    3    0    0  0.35969954256E+02 -0.27057819394E+02  0.18940101461E+02  0.48833294409E+02  0.00000000000E+00 0.  1.
         11    1    3    3    0    0 -0.48681616745E+02 -0.44258035891E+02  0.45688671478E+02  0.80100738144E+02  0.00000000000E+00 0. -1.
        -11    1    4    4    0    0  0.50323684273E+02  0.32210967557E+02  0.31103467322E+03  0.31672162474E+03  0.00000000000E+00 0. -1.
         11    1    4    4    0    0 -0.29549944737E+02 -0.78918977859E+00  0.57603381275E+02  0.64745436818E+02  0.00000000000E+00 0.  1.
         21    1    1    2  502  501 -0.80620770475E+01  0.39894077506E+02  0.61759068000E+02  0.73964295350E+02  0.00000000000E+00 0. -1.
<scales pt_clust_5="13000.00000" pt_clust_6="13000.00000" pt_clust_7="13000.00000" pt_clust_8="13000.00000" pt_clust_9="40.70055"></scales>
<clustering>
<clus scale="   40.701">  2  9  1 -1</clus>
<clus scale="   84.850">  5  6 -1 -1</clus>
<clus scale="   90.577">  7  8 -1 -1</clus>
<clus scale="   95.003">  2  5  1 -1</clus>
<clus scale="  100.151">  1  5  2 -1</clus>
</clustering>
</event>
<event>
 9    1  0.1484717E-005  0.1421921E+03  0.7546771E-02  0.1210581E+00
         -2   -1    0    0    0  501 -0.00000000000E+00  0.00000000000E+00  0.33893107867E+02  0.33893107867E+02  0.00000000000E+00 0.  1.
          2   -1    0    0  502    0  0.00000000000E+00 -0.00000000000E+00 -0.70305565545E+03  0.70305565545E+03  0.00000000000E+00 0. -1.
         23    2    1    2    0    0  0.69964210283E+02 -0.90632302558E+02 -0.33064350184E+03  0.36175637858E+03  0.91833257290E+02 0.  0.
         23    2    1    2    0    0 -0.76475521896E+02  0.67925894664E+02 -0.29478332678E+03  0.32548533039E+03  0.92633999913E+02 0.  0.
        -11    1    4    4    0    0 -0.88757337885E+02  0.23608474093E+02 -0.18876297301E+03  0.20992066372E+03  0.00000000000E+00 0. -1.
         11    1    4    4    0    0  0.12281815989E+02  0.44317420570E+02 -0.10602035377E+03  0.11556466667E+03  0.00000000000E+00 0.  1.
        -13    1    3    3    0    0  0.89849916251E+02 -0.69176234780E+02 -0.29232114551E+03  0.31354427283E+03  0.00000000000E+00 0.  1.
         13    1    3    3    0    0 -0.19885705969E+02 -0.21456067778E+02 -0.38322356329E+02  0.48212105751E+02  0.00000000000E+00 0. -1.
         21    1    1    2  502  501  0.65113116134E+01  0.22706407894E+02 -0.43735718960E+02  0.49707054342E+02  0.00000000000E+00 0. -1.
<scales pt_clust_5="13000.00000" pt_clust_6="13000.00000" pt_clust_7="13000.00000" pt_clust_8="13000.00000" pt_clust_9="23.62156"></scales>
<clustering>
<clus scale="   23.622">  1  9  2 -1</clus>
<clus scale="   91.833">  7  8 -1 -1</clus>
<clus scale="   92.634">  5  6 -1 -1</clus>
<clus scale="  141.672">  1  7  2 -1</clus>
<clus scale="  142.192">  2  5  1 -1</clus>
</clustering>
</event>
<event>
 9    1  0.1490699E-005  0.2388682E+03  0.7546771E-02  0.1121127E+00
         -1   -1    0    0    0  501 -0.00000000000E+00  0.00000000000E+00  0.42906937918E+03  0.42906937918E+03  0.00000000000E+00 0.  1.
          1   -1    0    0  502    0  0.00000000000E+00 -0.00000000000E+00 -0.35814277098E+03  0.35814277098E+03  0.00000000000E+00 0. -1.
         23    2    1    2    0    0  0.21037035011E+02  0.17480641928E+03  0.30814473044E+03  0.36727451923E+03  0.94538650912E+02 0.  0.
         23    2    1    2    0    0 -0.87172918199E+01 -0.22520478112E+03 -0.26732097360E+03  0.35995469496E+03  0.85520143127E+02 0.  0.
        -11    1    4    4    0    0  0.38364033374E+02 -0.11037140958E+03 -0.13467550756E+03  0.17830069951E+03  0.00000000000E+00 0.  1.
         11    1    4    4    0    0 -0.47081325194E+02 -0.11483337154E+03 -0.13264546603E+03  0.18165399545E+03  0.00000000000E+00 0. -1.
        -13    1    3    3    0    0  0.38693507898E+02  0.16395134866E+03  0.30174510923E+03  0.34558261418E+03  0.00000000000E+00 0.  1.
         13    1    3    3    0    0 -0.17656472887E+02  0.10855070622E+02  0.63996212058E+01  0.21691905048E+02  0.00000000000E+00 0. -1.
         21    1    1    2  502  501 -0.12319743191E+02  0.50398361835E+02  0.30102851364E+02  0.59982935975E+02  0.00000000000E+00 0.  1.
<scales pt_clust_5="13000.00000" pt_clust_6="13000.00000" pt_clust_7="13000.00000" pt_clust_8="13000.00000" pt_clust_9="51.88228"></scales>
<clustering>
<clus scale="   51.882">  1  9  2 -1</clus>
<clus scale="   85.520">  5  6 -1 -1</clus>
<clus scale="   94.539">  7  8 -1 -1</clus>
<clus scale="  235.445">  2  5  1 -1</clus>
<clus scale="  235.445">  2  5  1 -1</clus>
</clustering>
</event>
<event>
 9    1  0.1484717E-005  0.1363595E+03  0.7546771E-02  0.1220225E+00
         -2   -1    0    0    0  501 -0.00000000000E+00  0.00000000000E+00  0.11087373471E+03  0.11087373471E+03  0.00000000000E+00 0.  1.
          2   -1    0    0  502    0  0.00000000000E+00 -0.00000000000E+00 -0.44131201187E+03  0.44131201187E+03  0.00000000000E+00 0. -1.
         23    2    1    2    0    0 -0.70002302219E+02  0.44460489581E+02  0.62033896772E+01  0.12236095261E+03  0.89758917282E+02 0.  0.
         23    2    1    2    0    0  0.98527241105E+02 -0.12524278009E+02 -0.35645294827E+03  0.38264343514E+03  0.97431100501E+02 0.  0.
        -11    1    3    3    0    0 -0.31051292061E+02 -0.26173213769E+02 -0.50297761731E+01  0.40920881051E+02  0.00000000000E+00 0.  1.
         11    1    3    3    0    0 -0.38951010158E+02  0.70633703350E+02  0.11233165850E+02  0.81440071564E+02  0.00000000000E+00 0. -1.
        -13    1    4    4    0    0  0.27600491844E+02 -0.42877873405E+02 -0.74173228110E+02  0.90010926815E+02  0.00000000000E+00 0.  1.
         13    1    4    4    0    0  0.70926749261E+02  0.30353595397E+02 -0.28227972016E+03  0.29263250833E+03  0.00000000000E+00 0. -1.
         21    1    1    2  502  501 -0.28524938886E+02 -0.31936211572E+02  0.19811281443E+02  0.47181358824E+02  0.00000000000E+00 0.  1.
<scales pt_clust_5="13000.00000" pt_clust_6="13000.00000" pt_clust_7="13000.00000" pt_clust_8="13000.00000" pt_clust_9="42.82048"></scales>
<clustering>
<clus scale="   42.820">  1  9  2 -1</clus>
<clus scale="   89.759">  5  6 -1 -1</clus>
<clus scale="   97.431">  7  8 -1 -1</clus>
<clus scale="  130.988">  1  5  2 -1</clus>
<clus scale="  136.359">  2  5  1 -1</clus>
</clustering>
</event>
<event>
 9    1  0.1484717E-005  0.2428467E+03  0.7546771E-02  0.1118146E+00
          1   -1    0    0  502    0  0.00000000000E+00  0.00000000000E+00  0.13485864197E+04  0.13485864197E+04  0.00000000000E+00 0. -1.
         -1   -1    0    0    0  501 -0.00000000000E+00 -0.00000000000E+00 -0.60659613376E+02  0.60659613376E+02  0.00000000000E+00 0.  1.
         23    2    1    2    0    0 -0.23060846017E+03  0.12750565132E+03  0.51726032894E+03  0.58776800698E+03  0.92059921305E+02 0.  0.
         23    2    1    2    0    0  0.17825531252E+03 -0.99928577720E+02  0.65059826913E+03  0.68762093181E+03  0.88225625397E+02 0.  0.
        -11    1    4    4    0    0  0.15817323698E+02  0.16390831888E+02  0.64052230371E+02  0.67981874897E+02  0.00000000000E+00 0.  1.
         11    1    4    4    0    0  0.16243798883E+03 -0.11631940961E+03  0.58654603876E+03  0.61963905691E+03  0.00000000000E+00 0. -1.
        -13    1    3    3    0    0 -0.26227953495E+02  0.19679399849E+02  0.15239767186E+03  0.15588532551E+03  0.00000000000E+00 0. -1.
         13    1    3    3    0    0 -0.20438050668E+03  0.10782625147E+03  0.36486265709E+03  0.43188268147E+03  0.00000000000E+00 0.  1.
         21    1    1    2  502  501  0.52353147650E+02 -0.27577073604E+02  0.12006820823E+03  0.13385709427E+03  0.00000000000E+00 0. -1.
<scales pt_clust_5="13000.00000" pt_clust_6="13000.00000" pt_clust_7="13000.00000" pt_clust_8="13000.00000" pt_clust_9="59.17218"></scales>
<clustering>
<clus scale="   59.172">  2  9  1 -1</clus>
<clus scale="   88.226">  5  6 -1 -1</clus>
<clus scale="   92.060">  7  8 -1 -1</clus>
<clus scale="  241.419">  1  5  2 -1</clus>
<clus scale="  241.419">  1  5  2 -1</clus>
</clustering>
</event>
<event>
 9    1  0.1484717E-005  0.9450046E+02  0.7546771E-02  0.1295230E+00
          1   -1    0    0  502    0  0.00000000000E+00  0.00000000000E+00  0.28515333591E+03  0.28515333591E+03  0.00000000000E+00 0. -1.
         -1   -1    0    0    0  501 -0.00000000000E+00 -0.00000000000E+00 -0.45679485686E+02  0.45679485686E+02  0.00000000000E+00 0.  1.
         23    2    1    2    0    0  0.16765138322E+02 -0.17512649138E+01  0.57878549793E+02  0.10743443716E+03  0.88927470275E+02 0.  0.
         23    2    1    2    0    0  0.85253279757E+01 -0.16444215972E+02  0.15610500225E+03  0.18314371376E+03  0.93966774479E+02 0.  0.
        -13    1    3    3    0    0  0.41657333840E+02  0.96038740512E+01 -0.72781770286E+00  0.42756257765E+02  0.00000000000E+00 0.  1.
         13    1    3    3    0    0 -0.24892195518E+02 -0.11355138965E+02  0.58606367496E+02  0.64678179394E+02  0.00000000000E+00 0. -1.
        -13    1    4    4    0    0 -0.15185757188E+02  0.32777732674E+02  0.35064899886E+02  0.50344157403E+02  0.00000000000E+00 0.  1.
         13    1    4    4    0    0  0.23711085163E+02 -0.49221948645E+02  0.12104010236E+03  0.13279955636E+03  0.00000000000E+00 0. -1.
         21    1    1    2  502  501 -0.25290466298E+02  0.18195480885E+02  0.25490298185E+02  0.40254670683E+02  0.00000000000E+00 0.  1.
<scales pt_clust_5="13000.00000" pt_clust_6="13000.00000" pt_clust_7="13000.00000" pt_clust_8="13000.00000" pt_clust_9="31.15579"></scales>
<clustering>
<clus scale="   31.156">  2  9  1 -1</clus>
<clus scale="   88.927">  5  6 -1 -1</clus>
<clus scale="   89.491">  2  5  1 -1</clus>
<clus scale="   93.967">  7  8 -1 -1</clus>
<clus scale="   94.500">  1  5  2 -1</clus>
</clustering>
</event>
<event>
 9    1  0.1484717E-005  0.1089673E+03  0.7546771E-02  0.1263233E+00
          1   -1    0    0  502    0  0.00000000000E+00  0.00000000000E+00  0.23184338487E+03  0.23184338487E+03  0.00000000000E+00 0. -1.
         -1   -1    0    0    0  501 -0.00000000000E+00 -0.00000000000E+00 -0.79311830626E+02  0.79311830626E+02  0.00000000000E+00 0.  1.
         23    2    1    2    0    0  0.95329369700E+01 -0.66735939947E+02  0.63387604970E+02  0.13548108607E+03  0.98957433525E+02 0.  0.
         23    2    1    2    0    0 -0.13423928859E+02  0.19313917230E+02  0.67112233780E+02  0.12323955549E+03  0.10065141256E+03 0.  0.
        -11    1    4    4    0    0 -0.18783262225E+02 -0.35887551113E+02  0.51697587622E+02  0.65676234900E+02  0.00000000000E+00 0.  1.
         11    1    4    4    0    0  0.53593333659E+01  0.55201468343E+02  0.15414646157E+02  0.57563320592E+02  0.00000000000E+00 0. -1.
        -13    1    3    3    0    0  0.18863203615E+01 -0.91975039957E+02  0.40313632035E+02  0.10043980838E+03  0.00000000000E+00 0.  1.
         13    1    3    3    0    0  0.76466166084E+01  0.25239100010E+02  0.23073972935E+02  0.35041277686E+02  0.00000000000E+00 0. -1.
         21    1    1    2  502  501  0.38909918894E+01  0.47422022717E+02  0.22031715494E+02  0.52434573938E+02  0.00000000000E+00 0. -1.
<scales pt_clust_5="13000.00000" pt_clust_6="13000.00000" pt_clust_7="13000.00000" pt_clust_8="13000.00000" pt_clust_9="47.58138"></scales>
<clustering>
<clus scale="   47.581">  2  9  1 -1</clus>
<clus scale="   98.957">  7  8 -1 -1</clus>
<clus scale="  100.651">  5  6 -1 -1</clus>
<clus scale="  107.405">  2  7  1 -1</clus>
<clus scale="  108.967">  1  5  2 -1</clus>
</clustering>
</event>
<event>
 9    1  0.1484717E-005  0.9651361E+02  0.7546771E-02  0.1287815E+00
          3   -1    0    0  502    0  0.00000000000E+00  0.00000000000E+00  0.28274955771E+03  0.28274955771E+03  0.00000000000E+00 0. -1.
         -3   -1    0    0    0  501 -0.00000000000E+00 -0.00000000000E+00 -0.90453706939E+02  0.90453706939E+02  0.00000000000E+00 0.  1.
         23    2    1    2    0    0  0.27652639559E+02  0.61537753126E+01 -0.27377347752E+01  0.96904650105E+02  0.92630872797E+02 0.  0.
         23    2    1    2    0    0  0.18288565108E+00  0.34085415880E+02  0.20394508956E+03  0.22656508586E+03  0.92608258549E+02 0.  0.
        -11    1    3    3    0    0 -0.31256519390E+02  0.12627168219E+02 -0.14136131873E+02  0.36554693351E+02  0.00000000000E+00 0.  1.
         11    1    3    3    0    0  0.58909158949E+02 -0.64733929067E+01  0.11398397098E+02  0.60349956754E+02  0.00000000000E+00 0. -1.
        -11    1    4    4    0    0  0.33236883697E+02  0.51428958162E+02  0.12122768109E+03  0.13581523787E+03  0.00000000000E+00 0. -1.
         11    1    4    4    0    0 -0.33053998046E+02 -0.17343542282E+02  0.82717408468E+02  0.90749847985E+02  0.00000000000E+00 0.  1.
         21    1    1    2  502  501 -0.27835525210E+02 -0.40239191192E+02 -0.89115040158E+01  0.49733528684E+02  0.00000000000E+00 0.  1.
<scales pt_clust_5="13000.00000" pt_clust_6="13000.00000" pt_clust_7="13000.00000" pt_clust_8="13000.00000" pt_clust_9="48.92861"></scales>
<clustering>
<clus scale="   48.929">  2  9  1 -1</clus>
<clus scale="   92.608">  7  8 -1 -1</clus>
<clus scale="   92.631">  5  6 -1 -1</clus>
<clus scale="   96.492">  1  7  2 -1</clus>
<clus scale="   96.492">  1  5  2 -1</clus>
</clustering>
</event>
<event>
 9    1  0.1484717E-005  0.1491608E+03  0.7546771E-02  0.1201948E+00
         -1   -1    0    0    0  501 -0.00000000000E+00  0.00000000000E+00  0.37263852600E+02  0.37263852600E+02  0.00000000000E+00 0.  1.
          1   -1    0    0  502    0  0.00000000000E+00 -0.00000000000E+00 -0.72450650343E+03  0.72450650343E+03  0.00000000000E+00 0. -1.
         23    2    1    2    0    0 -0.74240051928E+02 -0.95939336310E+02 -0.27356710665E+03  0.31243905585E+03  0.89795658135E+02 0.  0.
         23    2    1    2    0    0  0.87677412121E+02  0.75187771248E+02 -0.37875161960E+03  0.40654262633E+03  0.92106395721E+02 0.  0.
        -13    1    3    3    0    0 -0.28348899471E+02 -0.47331974986E+02 -0.36562772729E+02  0.66187705104E+02  0.00000000000E+00 0.  1.
         13    1    3    3    0    0 -0.45891152458E+02 -0.48607361324E+02 -0.23700433392E+03  0.24625135075E+03  0.00000000000E+00 0. -1.
        -13    1    4    4    0    0  0.51718879220E+02  0.55420526279E+02 -0.34552712800E+03  0.35374464432E+03  0.00000000000E+00 0. -1.
         13    1    4    4    0    0  0.35958532901E+02  0.19767244969E+02 -0.33224491591E+02  0.52797982003E+02  0.00000000000E+00 0.  1.
         21    1    1    2  502  501 -0.13437360193E+02  0.20751565062E+02 -0.34923924581E+02  0.42788673848E+02  0.00000000000E+00 0.  1.
<scales pt_clust_5="13000.00000" pt_clust_6="13000.00000" pt_clust_7="13000.00000" pt_clust_8="13000.00000" pt_clust_9="24.72226"></scales>
<clustering>
<clus scale="   24.722">  1  9  2 -1</clus>
<clus scale="   89.796">  5  6 -1 -1</clus>
<clus scale="   92.106">  7  8 -1 -1</clus>
<clus scale="  147.745">  1  5  2 -1</clus>
<clus scale="  149.161">  2  5  1 -1</clus>
</clustering>
</event>
<event>
 9    1  0.1484717E-005  0.1184421E+03  0.7546771E-02  0.1246087E+00
          2   -1    0    0  502    0  0.00000000000E+00  0.00000000000E+00  0.44186538480E+03  0.44186538480E+03  0.00000000000E+00 0. -1.
         -2   -1    0    0    0  501 -0.00000000000E+00 -0.00000000000E+00 -0.10990495649E+03  0.10990495649E+03  0.00000000000E+00 0.  1.
         23    2    1    2    0    0  0.95554625765E+01  0.85232978364E+02 -0.49943239276E+02  0.13442238333E+03  0.90659155771E+02 0.  0.
         23    2    1    2    0    0 -0.26682570961E+01 -0.13939834744E+02  0.26714514263E+03  0.28207170367E+03  0.89423040612E+02 0.  0.
        -11    1    3    3    0    0  0.20136355387E+02 -0.13168209531E+02 -0.11694865607E+01  0.24088218061E+02  0.00000000000E+00 0. -1.
         11    1    3    3    0    0 -0.10580892811E+02  0.98401187895E+02 -0.48773752715E+02  0.11033416527E+03  0.00000000000E+00 0.  1.
        -13    1    4    4    0    0 -0.34718694889E+02  0.90816841174E+01  0.20732584014E+03  0.21040881339E+03  0.00000000000E+00 0.  1.
         13    1    4    4    0    0  0.32050437793E+02 -0.23021518861E+02  0.59819302490E+02  0.71662890284E+02  0.00000000000E+00 0. -1.
         21    1    1    2  502  501 -0.68872054805E+01 -0.71293143620E+02  0.11475852495E+03  0.13527625429E+03  0.00000000000E+00 0. -1.
<scales pt_clust_5="13000.00000" pt_clust_6="13000.00000" pt_clust_7="13000.00000" pt_clust_8="13000.00000" pt_clust_9="71.62504"></scales>
<clustering>
<clus scale="   71.625">  1  9  2 -1</clus>
<clus scale="   89.423">  7  8 -1 -1</clus>
<clus scale="   90.659">  5  6 -1 -1</clus>
<clus scale="  117.499">  1  7  2 -1</clus>
<clus scale="   71.625">  1  5  2 -1</clus>
</clustering>
</event>
<event>
 9    1  0.1484717E-005  0.1213261E+03  0.7546771E-02  0.1242435E+00
          1   -1    0    0  502    0  0.00000000000E+00  0.00000000000E+00  0.22207707809E+03  0.22207707809E+03  0.00000000000E+00 0. -1.
         -1   -1    0    0    0  501 -0.00000000000E+00 -0.00000000000E+00 -0.81924475951E+02  0.81924475951E+02  0.00000000000E+00 0.  1.
         23    2    1    2    0    0  0.29968829533E+02 -0.87111027750E+02  0.83235607870E+02  0.15370020610E+03  0.90604221970E+02 0.  0.
         23    2    1    2    0    0 -0.27820166604E+02  0.64531956244E+02  0.62140393810E+02  0.12702657350E+03  0.85650375284E+02 0.  0.
        -11    1    3    3    0    0  0.14112430281E+02 -0.30410188236E+02 -0.16895797367E+02  0.37542085793E+02  0.00000000000E+00 0.  1.
         11    1    3    3    0    0  0.15856399252E+02 -0.56700839514E+02  0.10013140524E+03  0.11615812031E+03  0.00000000000E+00 0. -1.
        -13    1    4    4    0    0 -0.94617212261E+01 -0.21115092722E+02  0.14688626297E+02  0.27406697206E+02  0.00000000000E+00 0. -1.
         13    1    4    4    0    0 -0.18358445378E+02  0.85647048966E+02  0.47451767512E+02  0.99619876296E+02  0.00000000000E+00 0.  1.
         21    1    1    2  502  501 -0.21486629291E+01  0.22579071507E+02 -0.52233995381E+01  0.23274774440E+02  0.00000000000E+00 0.  1.
<scales pt_clust_5="13000.00000" pt_clust_6="13000.00000" pt_clust_7="13000.00000" pt_clust_8="13000.00000" pt_clust_9="22.68108"></scales>
<clustering>
<clus scale="   22.681">  2  9  1 -1</clus>
<clus scale="   85.650">  7  8 -1 -1</clus>
<clus scale="   90.604">  5  6 -1 -1</clus>
<clus scale="  117.673">  1  7  2 -1</clus>
<clus scale="  117.673">  1  5  2 -1</clus>
</clustering>
</event>
<event>
 9    1  0.1484717E-005  0.1759997E+03  0.7546771E-02  0.1171859E+00
          2   -1    0    0  502    0  0.00000000000E+00  0.00000000000E+00  0.21831887151E+03  0.21831887151E+03  0.00000000000E+00 0. -1.
         -2   -1    0    0    0  501 -0.00000000000E+00 -0.00000000000E+00 -0.31591135450E+03  0.31591135450E+03  0.00000000000E+00 0.  1.
         23    2    1    2    0    0  0.71053980564E+02 -0.14926138858E+03 -0.19430746202E+03  0.27078854536E+03  0.90793260906E+02 0.  0.
         23    2    1    2    0    0  0.50542719310E+01  0.10528598258E+03  0.10549390739E+03  0.17510498378E+03  0.91772038532E+02 0.  0.
        -13    1    4    4    0    0  0.40624484925E+02  0.22785771281E+02  0.18717861159E+02  0.50198590365E+02  0.00000000000E+00 0.  1.
         13    1    4    4    0    0 -0.35570212994E+02  0.82500211299E+02  0.86776046231E+02  0.12490639342E+03  0.00000000000E+00 0. -1.
        -13    1    3    3    0    0 -0.18823200591E+02 -0.29459271236E+02 -0.17564390938E+02  0.39123769901E+02  0.00000000000E+00 0. -1.
         13    1    3    3    0    0  0.89877181154E+02 -0.11980211734E+03 -0.17674307109E+03  0.23166477546E+03  0.00000000000E+00 0.  1.
         21    1    1    2  502  501 -0.76108252495E+02  0.43975405997E+02 -0.87789283508E+01  0.88336696867E+02  0.00000000000E+00 0. -1.
<scales pt_clust_5="13000.00000" pt_clust_6="13000.00000" pt_clust_7="13000.00000" pt_clust_8="13000.00000" pt_clust_9="87.89939"></scales>
<clustering>
<clus scale="   87.899">  1  9  2 -1</clus>
<clus scale="   90.793">  7  8 -1 -1</clus>
<clus scale="   91.772">  5  6 -1 -1</clus>
<clus scale="  175.491">  2  7  1 -1</clus>
<clus scale="   87.899">  1  5  2 -1</clus>
</clustering>
</event>
<event>
 9    1  0.1484717E-005  0.1037242E+03  0.7546771E-02  0.1274132E+00
         -1   -1    0    0    0  501 -0.00000000000E+00  0.00000000000E+00  0.22847526823E+03  0.22847526823E+03  0.00000000000E+00 0.  1.
          1   -1    0    0  502    0  0.00000000000E+00 -0.00000000000E+00 -0.78242080506E+02  0.78242080506E+02  0.00000000000E+00 0. -1.
         23    2    1    2    0    0  0.19770502837E+02  0.33551612130E+02  0.48178823828E+02  0.10999176755E+03  0.90886777937E+02 0.  0.
         23    2    1    2    0    0 -0.48034346480E+02 -0.19178315445E+02  0.20626831139E+02  0.10934206097E+03  0.94101614806E+02 0.  0.
        -11    1    4    4    0    0 -0.29019768219E+02 -0.56767376094E+02  0.34444971941E+01  0.63847838624E+02  0.00000000000E+00 0.  1.
         11    1    4    4    0    0 -0.19014578261E+02  0.37589060649E+02  0.17182333945E+02  0.45494222344E+02  0.00000000000E+00 0. -1.
        -11    1    3    3    0    0  0.52929101408E+02  0.17174373963E+02  0.47245997597E+02  0.72997487531E+02  0.00000000000E+00 0.  1.
         11    1    3    3    0    0 -0.33158598571E+02  0.16377238167E+02  0.93282623098E+00  0.36994280017E+02  0.00000000000E+00 0. -1.
         21    1    1    2  502  501  0.28263843643E+02 -0.14373296685E+02  0.81427532760E+02  0.87383520222E+02  0.00000000000E+00 0.  1.
<scales pt_clust_5="13000.00000" pt_clust_6="13000.00000" pt_clust_7="13000.00000" pt_clust_8="13000.00000" pt_clust_9="31.70862"></scales>
<clustering>
<clus scale="   31.709">  1  9  2 -1</clus>
<clus scale="   90.887">  7  8 -1 -1</clus>
<clus scale="   94.102">  5  6 -1 -1</clus>
<clus scale="  100.817">  1  7  2 -1</clus>
<clus scale="  103.724">  2  5  1 -1</clus>
</clustering>
</event>
<event>
 9    1  0.1484717E-005  0.1680680E+03  0.7546771E-02  0.1180311E+00
         -2   -1    0    0    0  501 -0.00000000000E+00  0.00000000000E+00  0.32207446218E+02  0.32207446218E+02  0.00000000000E+00 0.  1.
          2   -1    0    0  502    0  0.00000000000E+00 -0.00000000000E+00 -0.12670373719E+04  0.12670373719E+04  0.00000000000E+00 0. -1.
         23    2    1    2    0    0 -0.10387610467E+03  0.45033562164E+02 -0.35372867843E+03  0.38147138883E+03  0.87052717974E+02 0.  0.
         23    2    1    2    0    0  0.14382743486E+03 -0.80675437422E+02 -0.79053394860E+03  0.81256464809E+03  0.90125058732E+02 0.  0.
        -11    1    4    4    0    0  0.33049261272E+02  0.35302831930E+01 -0.57282782494E+02  0.66227137491E+02  0.00000000000E+00 0.  1.
         11    1    4    4    0    0  0.11077817359E+03 -0.84205720615E+02 -0.73325116611E+03  0.74633751060E+03  0.00000000000E+00 0. -1.
        -13    1    3    3    0    0 -0.78007473922E+02  0.54320438585E+02 -0.33496624715E+03  0.34819285283E+03  0.00000000000E+00 0.  1.
         13    1    3    3    0    0 -0.25868630744E+02 -0.92868764207E+01 -0.18762431284E+02  0.33278535994E+02  0.00000000000E+00 0. -1.
         21    1    1    2  502  501 -0.39951330197E+02  0.35641875258E+02 -0.90567298612E+02  0.10520878117E+03  0.00000000000E+00 0.  1.
<scales pt_clust_5="13000.00000" pt_clust_6="13000.00000" pt_clust_7="13000.00000" pt_clust_8="13000.00000" pt_clust_9="53.53926"></scales>
<clustering>
<clus scale="   53.539">  1  9  2 -1</clus>
<clus scale="   87.053">  7  8 -1 -1</clus>
<clus scale="   90.125">  5  6 -1 -1</clus>
<clus scale="  166.441">  1  7  2 -1</clus>
<clus scale="  168.068">  2  5  1 -1</clus>
</clustering>
</event>
<event>
 9    1  0.1484717E-005  0.2043118E+03  0.7546771E-02  0.1146318E+00
          2   -1    0    0  502    0  0.00000000000E+00  0.00000000000E+00  0.32840033247E+03  0.32840033247E+03  0.00000000000E+00 0. -1.
         -2   -1    0    0    0  501 -0.00000000000E+00 -0.00000000000E+00 -0.16516556287E+03  0.16516556287E+03  0.00000000000E+00 0.  1.
         23    2    1    2    0    0 -0.15888767469E+03  0.57074146446E+02  0.15867573425E+02  0.19228365097E+03  0.90655784054E+02 0.  0.
         23    2    1    2    0    0  0.18127005735E+03 -0.56758716652E+02  0.16870775237E+03  0.27035507366E+03  0.92461746344E+02 0.  0.
        -13    1    3    3    0    0 -0.10664280530E+03  0.34386263432E+02 -0.33455598434E+02  0.11693750511E+03  0.00000000000E+00 0.  1.
         13    1    3    3    0    0 -0.52244869388E+02  0.22687883014E+02  0.49323171859E+02  0.75346145855E+02  0.00000000000E+00 0. -1.
        -13    1    4    4    0    0  0.96253598496E+01  0.18722598817E+02  0.31995098507E+02  0.38299733513E+02  0.00000000000E+00 0. -1.
         13    1    4    4    0    0  0.17164469750E+03 -0.75481315469E+02  0.13671265387E+03  0.23205534015E+03  0.00000000000E+00 0.  1.
         21    1    1    2  502  501 -0.22382382659E+02 -0.31542979441E+00 -0.21340556195E+02  0.30927170710E+02  0.00000000000E+00 0.  1.
<scales pt_clust_5="13000.00000" pt_clust_6="13000.00000" pt_clust_7="13000.00000" pt_clust_8="13000.00000" pt_clust_9="22.38461"></scales>
<clustering>
<clus scale="   22.385">  2  9  1 -1</clus>
<clus scale="   90.656">  5  6 -1 -1</clus>
<clus scale="   92.462">  7  8 -1 -1</clus>
<clus scale="  203.501">  2  5  1 -1</clus>
<clus scale="  204.312">  1  5  2 -1</clus>
</clustering>
</event>
<event>
 9    1  0.1484717E-005  0.9744090E+02  0.7546771E-02  0.1287187E+00
          4   -1    0    0  502    0  0.00000000000E+00  0.00000000000E+00  0.13120976622E+03  0.13120976622E+03  0.00000000000E+00 0. -1.
         -4   -1    0    0    0  501 -0.00000000000E+00 -0.00000000000E+00 -0.13590204054E+03  0.13590204054E+03  0.00000000000E+00 0.  1.
         23    2    1    2    0    0 -0.12142635418E+02 -0.11264866405E+02 -0.61805858309E+02  0.11073909491E+03  0.90381647527E+02 0.  0.
         23    2    1    2    0    0  0.31510944715E+02 -0.16832555544E+02  0.67859910821E+02  0.12059450528E+03  0.93068752237E+02 0.  0.
        -13    1    4    4    0    0 -0.30148275314E+02  0.64466230166E+01  0.87097560484E+01  0.32036499546E+02  0.00000000000E+00 0.  1.
         13    1    4    4    0    0  0.61659220029E+02 -0.23279178560E+02  0.59150154773E+02  0.88558005729E+02  0.00000000000E+00 0. -1.
        -13    1    3    3    0    0  0.49717841311E+01  0.28694785235E+02  0.64386848444E+01  0.29825593031E+02  0.00000000000E+00 0.  1.
         13    1    3    3    0    0 -0.17114419549E+02 -0.39959651640E+02 -0.68244543153E+02  0.80913501876E+02  0.00000000000E+00 0. -1.
         21    1    1    2  502  501 -0.19368309297E+02  0.28097421949E+02 -0.10746326839E+02  0.35778206575E+02  0.00000000000E+00 0.  1.
<scales pt_clust_5="13000.00000" pt_clust_6="13000.00000" pt_clust_7="13000.00000" pt_clust_8="13000.00000" pt_clust_9="34.12619"></scales>
<clustering>
<clus scale="   34.126">  2  9  1 -1</clus>
<clus scale="   90.382">  7  8 -1 -1</clus>
<clus scale="   93.069">  5  6 -1 -1</clus>
<clus scale="   94.878">  2  7  1 -1</clus>
<clus scale="   97.441">  1  5  2 -1</clus>
</clustering>
</event>
<event>
 9    1  0.1484717E-005  0.1398798E+03  0.7546771E-02  0.1225301E+00
          1   -1    0    0  502    0  0.00000000000E+00  0.00000000000E+00  0.80297835473E+03  0.80297835473E+03  0.00000000000E+00 0. -1.
         -1   -1    0    0    0  501 -0.00000000000E+00 -0.00000000000E+00 -0.54440362788E+02  0.54440362788E+02  0.00000000000E+00 0.  1.
         23    2    1    2    0    0  0.31154355669E+02 -0.40610288377E+02  0.58080335042E+02  0.11840700053E+03  0.89594101685E+02 0.  0.
         23    2    1    2    0    0  0.39060396944E+02  0.62294313568E+02  0.62148578256E+03  0.63822765137E+03  0.12523442390E+03 0.  0.
        -13    1    4    4    0    0  0.84595192362E+02  0.37849888205E+02  0.43132168225E+03  0.44116590325E+03  0.00000000000E+00 0.  1.
         13    1    4    4    0    0 -0.45534795418E+02  0.24444425363E+02  0.19016410031E+03  0.19706174812E+03  0.00000000000E+00 0. -1.
        -13    1    3    3    0    0  0.18215786535E+02 -0.60873207684E+02  0.67393932072E+02  0.92624534401E+02  0.00000000000E+00 0. -1.
         13    1    3    3    0    0  0.12938569134E+02  0.20262919307E+02 -0.93135970301E+01  0.25782466129E+02  0.00000000000E+00 0.  1.
         21    1    1    2  502  501 -0.70214752613E+02 -0.21684025191E+02  0.68971874334E+02  0.10078406562E+03  0.00000000000E+00 0. -1.
<scales pt_clust_5="13000.00000" pt_clust_6="13000.00000" pt_clust_7="13000.00000" pt_clust_8="13000.00000" pt_clust_9="73.48679"></scales>
<clustering>
<clus scale="   73.487">  2  9  1 -1</clus>
<clus scale="   89.594">  7  8 -1 -1</clus>
<clus scale="  109.132">  2  7  1 -1</clus>
<clus scale="  125.234">  5  6 -1 -1</clus>
<clus scale="  139.880">  1  5  2 -1</clus>
</clustering>
</event>
<event>
 9    1  0.1484717E-005  0.1130575E+03  0.7546771E-02  0.1256601E+00
          1   -1    0    0  502    0  0.00000000000E+00  0.00000000000E+00  0.51237535250E+03  0.51237535250E+03  0.00000000000E+00 0. -1.
         -1   -1    0    0    0  501 -0.00000000000E+00 -0.00000000000E+00 -0.49226488864E+02  0.49226488864E+02  0.00000000000E+00 0.  1.
         23    2    1    2    0    0 -0.43829703714E+02 -0.36071540301E+02  0.20574588622E+03  0.23344551243E+03  0.94568697942E+02 0.  0.
         23    2    1    2    0    0  0.63213635300E+02  0.23853367885E+02  0.27630642553E+03  0.29845176882E+03  0.90350819992E+02 0.  0.
        -11    1    3    3    0    0 -0.53231750699E+02 -0.54112027717E+02  0.19733757548E+03  0.21143284873E+03  0.00000000000E+00 0. -1.
         11    1    3    3    0    0  0.94020469851E+01  0.18040487415E+02  0.84083107398E+01  0.22012663700E+02  0.00000000000E+00 0.  1.
        -13    1    4    4    0    0  0.36128495882E+02  0.49937627086E+02  0.94689510826E+02  0.11298291143E+03  0.00000000000E+00 0. -1.
         13    1    4    4    0    0  0.27085139419E+02 -0.26084259201E+02  0.18161691471E+03  0.18546885740E+03  0.00000000000E+00 0.  1.
         21    1    1    2  502  501 -0.19383931587E+02  0.12218172416E+02 -0.18903448115E+02  0.29704560115E+02  0.00000000000E+00 0. -1.
<scales pt_clust_5="13000.00000" pt_clust_6="13000.00000" pt_clust_7="13000.00000" pt_clust_8="13000.00000" pt_clust_9="22.91333"></scales>
<clustering>
<clus scale="   22.913">  2  9  1 -1</clus>
<clus scale="   90.351">  7  8 -1 -1</clus>
<clus scale="   94.569">  5  6 -1 -1</clus>
<clus scale="  109.554">  1  7  2 -1</clus>
<clus scale="  109.554">  1  5  2 -1</clus>
</clustering>
</event>
<event>
 9    1  0.1484717E-005  0.1210198E+03  0.7546771E-02  0.1242921E+00
          4   -1    0    0  502    0  0.00000000000E+00  0.00000000000E+00  0.98112230846E+02  0.98112230846E+02  0.00000000000E+00 0. -1.
         -4   -1    0    0    0  501 -0.00000000000E+00 -0.00000000000E+00 -0.18271479387E+03  0.18271479387E+03  0.00000000000E+00 0.  1.
         23    2    1    2    0    0  0.41856741471E+02 -0.48137397218E+02 -0.48845782593E+02  0.12211390514E+03  0.91960314990E+02 0.  0.
         23    2    1    2    0    0 -0.37042788994E+02  0.72965911643E+02 -0.18021533561E+02  0.12782350566E+03  0.96529168897E+02 0.  0.
        -11    1    3    3    0    0 -0.78814435579E+01 -0.48506418307E+02 -0.52906782573E+02  0.72208845800E+02  0.00000000000E+00 0. -1.
         11    1    3    3    0    0  0.49738185029E+02  0.36902108918E+00  0.40609999799E+01  0.49905059336E+02  0.00000000000E+00 0.  1.
        -13    1    4    4    0    0 -0.68636960157E+02  0.58142951708E+02 -0.34923895875E+01  0.90021285915E+02  0.00000000000E+00 0.  1.
         13    1    4    4    0    0  0.31594171163E+02  0.14822959935E+02 -0.14529143973E+02  0.37802219740E+02  0.00000000000E+00 0. -1.
         21    1    1    2  502  501 -0.48139524766E+01 -0.24828514425E+02 -0.17735246875E+02  0.30889613929E+02  0.00000000000E+00 0. -1.
<scales pt_clust_5="13000.00000" pt_clust_6="13000.00000" pt_clust_7="13000.00000" pt_clust_8="13000.00000" pt_clust_9="25.29089"></scales>
<clustering>
<clus scale="   25.291">  2  9  1 -1</clus>
<clus scale="   91.960">  5  6 -1 -1</clus>
<clus scale="   96.529">  7  8 -1 -1</clus>
<clus scale="  117.408">  2  5  1 -1</clus>
<clus scale="  121.020">  1  5  2 -1</clus>
</clustering>
</event>
<event>
 9    1  0.1484717E-005  0.1157465E+03  0.7546771E-02  0.1257414E+00
          3   -1    0    0  502    0  0.00000000000E+00  0.00000000000E+00  0.49308886149E+03  0.49308886149E+03  0.00000000000E+00 0. -1.
         -3   -1    0    0    0  501 -0.00000000000E+00 -0.00000000000E+00 -0.35807539456E+02  0.35807539456E+02  0.00000000000E+00 0.  1.
         23    2    1    2    0    0  0.37237997529E+02  0.27707842347E+01  0.11533365826E+03  0.16266208418E+03  0.10845623631E+03 0.  0.
         23    2    1    2    0    0 -0.42228171069E+02 -0.28319877602E+02  0.27662206250E+03  0.29591296735E+03  0.91975458038E+02 0.  0.
        -11    1    4    4    0    0  0.78915582200E+01  0.27732270057E+02  0.59032132065E+02  0.65697398045E+02  0.00000000000E+00 0. -1.
         11    1    4    4    0    0 -0.50119729289E+02 -0.56052147660E+02  0.21758993044E+03  0.23021556930E+03  0.00000000000E+00 0.  1.
        -13    1    3    3    0    0 -0.24829417761E+02 -0.17857230765E+02  0.59386549537E+00  0.30589758959E+02  0.00000000000E+00 0.  1.
         13    1    3    3    0    0  0.62067415290E+02  0.20628015000E+02  0.11473979277E+03  0.13207232522E+03  0.00000000000E+00 0. -1.
         21    1    1    2  502  501  0.49901735395E+01  0.25549093368E+02  0.65325601270E+02  0.70321349427E+02  0.00000000000E+00 0. -1.
<scales pt_clust_5="13000.00000" pt_clust_6="13000.00000" pt_clust_7="13000.00000" pt_clust_8="13000.00000" pt_clust_9="26.03187"></scales>
<clustering>
<clus scale="   26.032">  1  9  2 -1</clus>
<clus scale="   91.975">  5  6 -1 -1</clus>
<clus scale="  100.469">  1  5  2 -1</clus>
<clus scale="  108.456">  7  8 -1 -1</clus>
<clus scale="   26.032">  1  5  2 -1</clus>
</clustering>
</event>
<event>
 9    1  0.1484717E-005  0.9474564E+02  0.7546771E-02  0.1291847E+00
         -3   -1    0    0    0  501 -0.00000000000E+00  0.00000000000E+00  0.42025752454E+03  0.42025752454E+03  0.00000000000E+00 0.  1.
          3   -1    0    0  502    0  0.00000000000E+00 -0.00000000000E+00 -0.39304594638E+02  0.39304594638E+02  0.00000000000E+00 0. -1.
         23    2    1    2    0    0  0.75481585265E+01  0.21710215307E+01  0.21806048746E+03  0.23648874180E+03  0.91185858413E+02 0.  0.
         23    2    1    2    0    0  0.38966615231E+02 -0.74228028503E+01  0.79495169355E+02  0.12743703207E+03  0.91363122147E+02 0.  0.
        -11    1    3    3    0    0 -0.41904242445E+02  0.25818478050E+01  0.95041169924E+02  0.10390118119E+03  0.00000000000E+00 0.  1.
         11    1    3    3    0    0  0.49452400971E+02 -0.41082627424E+00  0.12301931754E+03  0.13258756061E+03  0.00000000000E+00 0. -1.
        -11    1    4    4    0    0  0.39269243500E+02  0.16736775548E+02 -0.17022179372E+01  0.42721080121E+02  0.00000000000E+00 0. -1.
         11    1    4    4    0    0 -0.30262826979E+00 -0.24159578398E+02  0.81197387292E+02  0.84715951953E+02  0.00000000000E+00 0.  1.
         21    1    1    2  502  501 -0.46514773757E+02  0.52517813196E+01  0.83397273082E+02  0.95636345299E+02  0.00000000000E+00 0.  1.
<scales pt_clust_5="13000.00000" pt_clust_6="13000.00000" pt_clust_7="13000.00000" pt_clust_8="13000.00000" pt_clust_9="46.81031"></scales>
<clustering>
<clus scale="   46.810">  1  9  2 -1</clus>
<clus scale="   91.186">  5  6 -1 -1</clus>
<clus scale="   91.363">  7  8 -1 -1</clus>
<clus scale="   94.575">  1  5  2 -1</clus>
<clus scale="   94.746">  2  5  1 -1</clus>
</clustering>
</event>
<event>
 9    1  0.1484717E-005  0.1090464E+03  0.7546771E-02  0.1262362E+00
          3   -1    0    0  502    0  0.00000000000E+00  0.00000000000E+00  0.32305660997E+02  0.32305660997E+02  0.00000000000E+00 0. -1.
         -3   -1    0    0    0  501 -0.00000000000E+00 -0.00000000000E+00 -0.64646741592E+03  0.64646741592E+03  0.00000000000E+00 0.  1.
         23    2    1    2    0    0  0.65248751279E+02  0.30021260120E+01 -0.45370231164E+03  0.46747630603E+03  0.91770893028E+02 0.  0.
         23    2    1    2    0    0 -0.42375624527E+02  0.19914450660E+02 -0.13640031617E+03  0.17095831515E+03  0.91811874881E+02 0.  0.
        -11    1    4    4    0    0 -0.22473056911E+02  0.55284054445E+02 -0.61045165330E+02  0.85369064496E+02  0.00000000000E+00 0.  1.
         11    1    4    4    0    0 -0.19902567616E+02 -0.35369603785E+02 -0.75355150844E+02  0.85589250659E+02  0.00000000000E+00 0. -1.
        -13    1    3    3    0    0  0.84499235849E+02  0.16285313040E+02 -0.39543324703E+03  0.40468850383E+03  0.00000000000E+00 0. -1.
         13    1    3    3    0    0 -0.19250484571E+02 -0.13283187028E+02 -0.58269064617E+02  0.62787802201E+02  0.00000000000E+00 0.  1.
         21    1    1    2  502  501 -0.22873126751E+02 -0.22916576672E+02 -0.24059127109E+02  0.40338455734E+02  0.00000000000E+00 0. -1.
<scales pt_clust_5="13000.00000" pt_clust_6="13000.00000" pt_clust_7="13000.00000" pt_clust_8="13000.00000" pt_clust_9="32.37822"></scales>
<clustering>
<clus scale="   32.378">  1  9  2 -1</clus>
<clus scale="   91.771">  7  8 -1 -1</clus>
<clus scale="   91.812">  5  6 -1 -1</clus>
<clus scale="  109.012">  2  7  1 -1</clus>
<clus scale="   32.378">  1  5  2 -1</clus>
</clustering>
</event>
<event>
 9    1  0.1484717E-005  0.1869183E+03  0.7546771E-02  0.1162747E+00
          2   -1    0    0  502    0  0.00000000000E+00  0.00000000000E+00  0.32390030858E+03  0.32390030858E+03  0.00000000000E+00 0. -1.
         -2   -1    0    0    0  501 -0.00000000000E+00 -0.00000000000E+00 -0.22373768558E+03  0.22373768558E+03  0.00000000000E+00 0.  1.
         23    2    1    2    0    0 -0.12111504561E+03 -0.16760019979E+03  0.98214165746E+02  0.24196019137E+03  0.78358347425E+02 0.  0.
         23    2    1    2    0    0  0.12887714291E+03  0.51292595420E+02  0.58136312734E+02  0.17627616412E+03  0.91941322968E+02 0.  0.
        -11    1    3    3    0    0 -0.15850820691E+02 -0.48328759704E+02  0.59426571867E+02  0.78220425561E+02  0.00000000000E+00 0. -1.
         11    1    3    3    0    0 -0.10526422492E+03 -0.11927144008E+03  0.38787593879E+02  0.16373976580E+03  0.00000000000E+00 0.  1.
        -13    1    4    4    0    0  0.15868864604E+02 -0.19557770813E+02  0.31380353920E+02  0.40237468548E+02  0.00000000000E+00 0.  1.
         13    1    4    4    0    0  0.11300827830E+03  0.70850366234E+02  0.26755958814E+02  0.13603869557E+03  0.00000000000E+00 0. -1.
         21    1    1    2  502  501 -0.77620973020E+01  0.11630760437E+03 -0.56187855473E+02  0.12940163867E+03  0.00000000000E+00 0.  1.
<scales pt_clust_5="13000.00000" pt_clust_6="13000.00000" pt_clust_7="13000.00000" pt_clust_8="13000.00000" pt_clust_9="116.56633"></scales>
<clustering>
<clus scale="   78.358">  5  6 -1 -1</clus>
<clus scale="   91.941">  7  8 -1 -1</clus>
<clus scale="  116.566">  2  9  1 -1</clus>
<clus scale="  180.625">  2  5  1 -1</clus>
<clus scale="  186.918">  1  5  2 -1</clus>
</clustering>
</event>
<event>
 9    1  0.1484717E-005  0.1022553E+03  0.7546771E-02  0.1276744E+00
          1   -1    0    0  502    0  0.00000000000E+00  0.00000000000E+00  0.22391218362E+02  0.22391218362E+02  0.00000000000E+00 0. -1.
         -1   -1    0    0    0  501 -0.00000000000E+00 -0.00000000000E+00 -0.57277175995E+03  0.57277175995E+03  0.00000000000E+00 0.  1.
         23    2    1    2    0    0 -0.28660524206E+01 -0.33857957119E+02 -0.28370111992E+03  0.30005544539E+03  0.91609875800E+02 0.  0.
         23    2    1    2    0    0 -0.30815602180E+01  0.54147029356E+02 -0.20767181069E+03  0.23242644565E+03  0.89180013924E+02 0.  0.
        -11    1    3    3    0    0 -0.29930447654E+02  0.13689285605E+02 -0.17818288085E+03  0.18119703989E+03  0.00000000000E+00 0. -1.
         11    1    3    3    0    0  0.27064395234E+02 -0.47547242724E+02 -0.10551823907E+03  0.11885840550E+03  0.00000000000E+00 0.  1.
        -13    1    4    4    0    0 -0.44227759941E+02  0.13135213941E+02 -0.98039145481E+02  0.10835267713E+03  0.00000000000E+00 0. -1.
         13    1    4    4    0    0  0.41146199723E+02  0.41011815415E+02 -0.10963266521E+03  0.12407376852E+03  0.00000000000E+00 0.  1.
         21    1    1    2  502  501  0.59476126386E+01 -0.20289072236E+02 -0.59007610977E+02  0.62681087272E+02  0.00000000000E+00 0. -1.
<scales pt_clust_5="13000.00000" pt_clust_6="13000.00000" pt_clust_7="13000.00000" pt_clust_8="13000.00000" pt_clust_9="21.14286"></scales>
<clustering>
<clus scale="   21.143">  2  9  1 -1</clus>
<clus scale="   89.180">  7  8 -1 -1</clus>
<clus scale="   91.610">  5  6 -1 -1</clus>
<clus scale="  100.084">  1  7  2 -1</clus>
<clus scale="  100.084">  1  5  2 -1</clus>
</clustering>
</event>
<event>
 9    1  0.1484717E-005  0.1080041E+03  0.7546771E-02  0.1276244E+00
         -1   -1    0    0    0  501 -0.00000000000E+00  0.00000000000E+00  0.23210938812E+03  0.23210938812E+03  0.00000000000E+00 0.  1.
          1   -1    0    0  502    0  0.00000000000E+00 -0.00000000000E+00 -0.62263549728E+02  0.62263549728E+02  0.00000000000E+00 0. -1.
         23    2    1    2    0    0 -0.44493747524E+01 -0.29738813722E+02  0.11572189642E+03  0.15285568677E+03  0.95231873295E+02 0.  0.
         23    2    1    2    0    0 -0.11940634217E+01  0.59455090314E+02  0.15379384905E+02  0.92363958291E+02  0.68980009854E+02 0.  0.
        -11    1    4    4    0    0 -0.34614988568E+02  0.24495957774E+02  0.10953815440E+02  0.43797664932E+02  0.00000000000E+00 0.  1.
         11    1    4    4    0    0  0.33420925146E+02  0.34959132540E+02  0.44255694653E+01  0.48566293359E+02  0.00000000000E+00 0. -1.
        -13    1    3    3    0    0  0.14502206645E+02 -0.45527151678E+02  0.16400934808E+02  0.50517583078E+02  0.00000000000E+00 0.  1.
         13    1    3    3    0    0 -0.18951581398E+02  0.15788337956E+02  0.99320961608E+02  0.10233810369E+03  0.00000000000E+00 0. -1.
         21    1    1    2  502  501  0.56434381741E+01 -0.29716276592E+02  0.38744557074E+02  0.49153292787E+02  0.00000000000E+00 0.  1.
<scales pt_clust_5="13000.00000" pt_clust_6="13000.00000" pt_clust_7="13000.00000" pt_clust_8="13000.00000" pt_clust_9="30.24740"></scales>
<clustering>
<clus scale="   30.247">  1  9  2 -1</clus>
<clus scale="   68.980">  5  6 -1 -1</clus>
<clus scale="   85.756">  2  5  1 -1</clus>
<clus scale="   95.232">  7  8 -1 -1</clus>
<clus scale="   85.756">  2  5  1 -1</clus>
</clustering>
</event>
<event>
 9    1  0.1484717E-005  0.9874937E+02  0.7546771E-02  0.1284636E+00
         -1   -1    0    0    0  501 -0.00000000000E+00  0.00000000000E+00  0.59035502110E+02  0.59035502110E+02  0.00000000000E+00 0.  1.
          1   -1    0    0  502    0  0.00000000000E+00 -0.00000000000E+00 -0.46607522293E+03  0.46607522293E+03  0.00000000000E+00 0. -1.
         23    2    1    2    0    0  0.26196194139E+02 -0.41181669691E+02 -0.95954285882E+02  0.13994982567E+03  0.89423476890E+02 0.  0.
         23    2    1    2    0    0 -0.25993431737E+02  0.15630648937E+02 -0.33575458661E+03  0.34964382152E+03  0.92734480199E+02 0.  0.
        -13    1    3    3    0    0 -0.21094305222E+02  0.14649567363E+01  0.39162249226E+01  0.21504711779E+02  0.00000000000E+00 0.  1.
         13    1    3    3    0    0  0.47290499361E+02 -0.42646626428E+02 -0.99870510805E+02  0.11844511389E+03  0.00000000000E+00 0. -1.
        -13    1    4    4    0    0 -0.49937147611E+02  0.39551787255E+02 -0.22263020096E+03  0.23156482670E+03  0.00000000000E+00 0. -1.
         13    1    4    4    0    0  0.23943715874E+02 -0.23921138318E+02 -0.11312438565E+03  0.11807899482E+03  0.00000000000E+00 0.  1.
         21    1    1    2  502  501 -0.20276240248E+00  0.25551020755E+02  0.24669151679E+02  0.35517077847E+02  0.00000000000E+00 0.  1.
<scales pt_clust_5="13000.00000" pt_clust_6="13000.00000" pt_clust_7="13000.00000" pt_clust_8="13000.00000" pt_clust_9="25.55183"></scales>
<clustering>
<clus scale="   25.552">  1  9  2 -1</clus>
<clus scale="   89.423">  5  6 -1 -1</clus>
<clus scale="   92.734">  7  8 -1 -1</clus>
<clus scale="   95.647">  1  5  2 -1</clus>
<clus scale="   98.749">  2  5  1 -1</clus>
</clustering>
</event>
<event>
 9    1  0.1484717E-005  0.9726087E+02  0.7546771E-02  0.1287627E+00
          2   -1    0    0  502    0  0.00000000000E+00  0.00000000000E+00  0.10168223232E+03  0.10168223232E+03  0.00000000000E+00 0. -1.
         -2   -1    0    0    0  501 -0.00000000000E+00 -0.00000000000E+00 -0.21937314745E+03  0.21937314745E+03  0.00000000000E+00 0.  1.
         23    2    1    2    0    0 -0.18845388182E+01 -0.25453433488E+02 -0.73341205812E+02  0.12119253555E+03  0.93044448737E+02 0.  0.
         23    2    1    2    0    0 -0.29740390106E+02  0.15261011926E+02  0.43722162072E+02  0.10573167978E+03  0.90278299525E+02 0.  0.
        -13    1    4    4    0    0  0.47144667248E+01 -0.25668503867E+02 -0.11787483126E+02  0.28636393727E+02  0.00000000000E+00 0.  1.
         13    1    4    4    0    0 -0.34454856830E+02  0.40929515792E+02  0.55509645198E+02  0.77095286057E+02  0.00000000000E+00 0. -1.
        -13    1    3    3    0    0 -0.42763203443E+02 -0.27604195025E+02 -0.21793821059E+02  0.55368346445E+02  0.00000000000E+00 0. -1.
         13    1    3    3    0    0  0.40878664625E+02  0.21507615369E+01 -0.51547384753E+02  0.65824189107E+02  0.00000000000E+00 0.  1.
         21    1    1    2  502  501  0.31624928924E+02  0.10192421563E+02 -0.88071871391E+02  0.94131164431E+02  0.00000000000E+00 0.  1.
<scales pt_clust_5="13000.00000" pt_clust_6="13000.00000" pt_clust_7="13000.00000" pt_clust_8="13000.00000" pt_clust_9="33.22682"></scales>
<clustering>
<clus scale="   33.227">  2  9  1 -1</clus>
<clus scale="   90.278">  5  6 -1 -1</clus>
<clus scale="   93.044">  7  8 -1 -1</clus>
<clus scale="   94.618">  1  5  2 -1</clus>
<clus scale="   94.618">  1  5  2 -1</clus>
</clustering>
</event>
<event>
 9    1  0.1484717E-005  0.1780968E+03  0.7546771E-02  0.1169743E+00
         -2   -1    0    0    0  501 -0.00000000000E+00  0.00000000000E+00  0.27475773993E+03  0.27475773993E+03  0.00000000000E+00 0.  1.
          2   -1    0    0  502    0  0.00000000000E+00 -0.00000000000E+00 -0.26272530003E+03  0.26272530003E+03  0.00000000000E+00 0. -1.
         23    2    1    2    0    0 -0.11737198357E+03 -0.17420360179E+03 -0.58357572447E+02  0.23577714436E+03  0.89789632667E+02 0.  0.
         23    2    1    2    0    0  0.71078954693E+02  0.95179512566E+02 -0.44277895292E+02  0.15495242803E+03  0.89097505738E+02 0.  0.
        -11    1    3    3    0    0 -0.56133860509E+02 -0.17824551663E+02 -0.27598625449E+02  0.65041594879E+02  0.00000000000E+00 0.  1.
         11    1    3    3    0    0 -0.61238123064E+02 -0.15637905013E+03 -0.30758946997E+02  0.17073554948E+03  0.00000000000E+00 0. -1.
        -13    1    4    4    0    0 -0.23978608238E+01  0.63465004220E+02 -0.39783867852E-01  0.63510299007E+02  0.00000000000E+00 0. -1.
         13    1    4    4    0    0  0.73476815517E+02  0.31714508345E+02 -0.44238111425E+02  0.91442129024E+02  0.00000000000E+00 0.  1.
         21    1    1    2  502  501  0.46293028880E+02  0.79024089227E+02  0.11466790765E+03  0.14675346757E+03  0.00000000000E+00 0.  1.
<scales pt_clust_5="13000.00000" pt_clust_6="13000.00000" pt_clust_7="13000.00000" pt_clust_8="13000.00000" pt_clust_9="91.58521"></scales>
<clustering>
<clus scale="   89.098">  7  8 -1 -1</clus>
<clus scale="   89.790">  5  6 -1 -1</clus>
<clus scale="   91.585">  1  9  2 -1</clus>
<clus scale="  177.749">  2  7  1 -1</clus>
<clus scale="  177.749">  2  5  1 -1</clus>
</clustering>
</event>
<event>
 9    1  0.1484717E-005  0.9224594E+02  0.7546771E-02  0.1303330E+00
         -1   -1    0    0    0  501 -0.00000000000E+00  0.00000000000E+00  0.76876325907E+02  0.76876325907E+02  0.00000000000E+00 0.  1.
          1   -1    0    0  502    0  0.00000000000E+00 -0.00000000000E+00 -0.36382203905E+03  0.36382203905E+03  0.00000000000E+00 0. -1.
         23    2    1    2    0    0 -0.34300695609E+02 -0.26413813945E+02  0.19044070897E+02  0.87353606153E+02  0.73442144476E+02 0.  0.
         23    2    1    2    0    0  0.72128641346E+01  0.38295080000E+02 -0.30998929533E+03  0.32349662340E+03  0.83893763588E+02 0.  0.
        -11    1    4    4    0    0  0.37603905710E+02  0.34477809786E+01 -0.20955218429E+03  0.21292735583E+03  0.00000000000E+00 0. -1.
         11    1    4    4    0    0 -0.30391041576E+02  0.34847299021E+02 -0.10043711104E+03  0.11056926757E+03  0.00000000000E+00 0.  1.
        -11    1    3    3    0    0  0.18973201706E+02 -0.25613515193E+02  0.51155435190E+01  0.32283174085E+02  0.00000000000E+00 0. -1.
         11    1    3    3    0    0 -0.53273897315E+02 -0.80029875141E+00  0.13928527378E+02  0.55070432068E+02  0.00000000000E+00 0.  1.
         21    1    1    2  502  501  0.27087831474E+02 -0.11881266055E+02  0.39995112839E+01  0.29848135412E+02  0.00000000000E+00 0.  1.
<scales pt_clust_5="13000.00000" pt_clust_6="13000.00000" pt_clust_7="13000.00000" pt_clust_8="13000.00000" pt_clust_9="29.57896"></scales>
<clustering>
<clus scale="   29.579">  1  9  2 -1</clus>
<clus scale="   73.442">  7  8 -1 -1</clus>
<clus scale="   82.855">  1  7  2 -1</clus>
<clus scale="   83.894">  5  6 -1 -1</clus>
<clus scale="   92.246">  2  5  1 -1</clus>
</clustering>
</event>
<event>
 9    1  0.1484717E-005  0.1292959E+03  0.7546771E-02  0.1229937E+00
          2   -1    0    0  502    0  0.00000000000E+00  0.00000000000E+00  0.34170941900E+03  0.34170941900E+03  0.00000000000E+00 0. -1.
         -2   -1    0    0    0  501 -0.00000000000E+00 -0.00000000000E+00 -0.12470014762E+03  0.12470014762E+03  0.00000000000E+00 0.  1.
         23    2    1    2    0    0  0.54243129059E+02  0.55509599514E+02  0.12422279155E+03  0.17217444855E+03  0.90493679918E+02 0.  0.
         23    2    1    2    0    0 -0.83642569586E+02 -0.50999656771E+02  0.16601603967E+03  0.21519566513E+03  0.95659837064E+02 0.  0.
        -13    1    4    4    0    0  0.19777328484E+02 -0.18305121577E+02  0.46936242390E+02  0.54122371045E+02  0.00000000000E+00 0. -1.
         13    1    4    4    0    0 -0.10341989807E+03 -0.32694535194E+02  0.11907979728E+03  0.16107329409E+03  0.00000000000E+00 0.  1.
        -13    1    3    3    0    0  0.68754990308E+02  0.69955436177E+02  0.95487691302E+02  0.13689014184E+03  0.00000000000E+00 0. -1.
         13    1    3    3    0    0 -0.14511861249E+02 -0.14445836662E+02  0.28735100249E+02  0.35284306711E+02  0.00000000000E+00 0.  1.
         21    1    1    2  502  501  0.29399440527E+02 -0.45099427432E+01 -0.73229559836E+02  0.79039452937E+02  0.00000000000E+00 0. -1.
<scales pt_clust_5="13000.00000" pt_clust_6="13000.00000" pt_clust_7="13000.00000" pt_clust_8="13000.00000" pt_clust_9="29.74335"></scales>
<clustering>
<clus scale="   29.743">  2  9  1 -1</clus>
<clus scale="   90.494">  7  8 -1 -1</clus>
<clus scale="   95.660">  5  6 -1 -1</clus>
<clus scale="  125.522">  2  7  1 -1</clus>
<clus scale="  129.296">  1  5  2 -1</clus>
</clustering>
</event>
<event>
 9    1  0.1484717E-005  0.9004208E+02  0.7546771E-02  0.1314596E+00
         -1   -1    0    0    0  501 -0.00000000000E+00  0.00000000000E+00  0.13039671838E+03  0.13039671838E+03  0.00000000000E+00 0.  1.
          1   -1    0    0  502    0  0.00000000000E+00 -0.00000000000E+00 -0.80931475003E+02  0.80931475003E+02  0.00000000000E+00 0. -1.
         23    2    1    2    0    0  0.33107766065E+01  0.60253837661E+01  0.44936136168E+02  0.10040909523E+03  0.89529121409E+02 0.  0.
         23    2    1    2    0    0 -0.34336089220E+01  0.14581150045E+02 -0.22561401110E+02  0.76881766229E+02  0.71954079464E+02 0.  0.
        -11    1    3    3    0    0 -0.19153848970E+02 -0.21068567345E+02  0.56577105566E+02  0.63338166492E+02  0.00000000000E+00 0. -1.
         11    1    3    3    0    0  0.22464625576E+02  0.27093951111E+02 -0.11640969398E+02  0.37070928739E+02  0.00000000000E+00 0.  1.
        -11    1    4    4    0    0  0.16880573097E+02 -0.12926172538E+02 -0.34615947217E+02  0.40623927509E+02  0.00000000000E+00 0. -1.
         11    1    4    4    0    0 -0.20314182019E+02  0.27507322583E+02  0.12054546107E+02  0.36257838720E+02  0.00000000000E+00 0.  1.
         21    1    1    2  502  501  0.12283231547E+00 -0.20606533811E+02  0.27090508321E+02  0.34037331925E+02  0.00000000000E+00 0.  1.
<scales pt_clust_5="13000.00000" pt_clust_6="13000.00000" pt_clust_7="13000.00000" pt_clust_8="13000.00000" pt_clust_9="20.60690"></scales>
<clustering>
<clus scale="   20.607">  1  9  2 -1</clus>
<clus scale="   71.954">  7  8 -1 -1</clus>
<clus scale="   72.591">  2  7  1 -1</clus>
<clus scale="   89.529">  5  6 -1 -1</clus>
<clus scale="   72.591">  2  5  1 -1</clus>
</clustering>
</event>
<event>
 9    1  0.1484717E-005  0.3407615E+03  0.7546771E-02  0.1066619E+00
          2   -1    0    0  502    0  0.00000000000E+00  0.00000000000E+00  0.27127245287E+03  0.27127245287E+03  0.00000000000E+00 0. -1.
         -2   -1    0    0    0  501 -0.00000000000E+00 -0.00000000000E+00 -0.63429959350E+03  0.63429959350E+03  0.00000000000E+00 0.  1.
         23    2    1    2    0    0  0.31668081034E+02  0.30936238041E+03 -0.22572575265E+03  0.39534032582E+03  0.92918825004E+02 0.  0.
         23    2    1    2    0    0 -0.21422967170E+02 -0.33395735725E+03  0.21401077630E+02  0.34930829827E+03  0.97835684379E+02 0.  0.
        -11    1    3    3    0    0  0.60944377872E+02  0.25994507534E+03 -0.19000704384E+03  0.32770159611E+03  0.00000000000E+00 0.  1.
         11    1    3    3    0    0 -0.29276296838E+02  0.49417305072E+02 -0.35718708818E+02  0.67638729710E+02  0.00000000000E+00 0. -1.
        -13    1    4    4    0    0 -0.45041275446E+02 -0.98832288315E+02  0.30538186628E+02  0.11282339540E+03  0.00000000000E+00 0. -1.
         13    1    4    4    0    0  0.23618308276E+02 -0.23512506893E+03 -0.91371089975E+01  0.23648490287E+03  0.00000000000E+00 0.  1.
         21    1    1    2  502  501 -0.10245113864E+02  0.24594976835E+02 -0.15870246561E+03  0.16092342227E+03  0.00000000000E+00 0.  1.
<scales pt_clust_5="13000.00000" pt_clust_6="13000.00000" pt_clust_7="13000.00000" pt_clust_8="13000.00000" pt_clust_9="26.64348"></scales>
<clustering>
<clus scale="   26.643">  2  9  1 -1</clus>
<clus scale="   92.919">  5  6 -1 -1</clus>
<clus scale="   97.836">  7  8 -1 -1</clus>
<clus scale="  339.383">  2  5  1 -1</clus>
<clus scale="  340.762">  1  5  2 -1</clus>
</clustering>
</event>
<event>
 9    1  0.1484717E-005  0.9579200E+02  0.7546771E-02  0.1290213E+00
         -1   -1    0    0    0  501 -0.00000000000E+00  0.00000000000E+00  0.92636427145E+02  0.92636427145E+02  0.00000000000E+00 0.  1.
          1   -1    0    0  502    0  0.00000000000E+00 -0.00000000000E+00 -0.72936220410E+03  0.72936220410E+03  0.00000000000E+00 0. -1.
         23    2    1    2    0    0 -0.12962018341E+02 -0.56428795277E+02 -0.36656435464E+03  0.38218772956E+03  0.91355414075E+02 0.  0.
         23    2    1    2    0    0  0.18447357806E+02 -0.16748957486E+02 -0.33088188605E+03  0.34456360689E+03  0.92846238989E+02 0.  0.
        -11    1    3    3    0    0  0.27112009500E+02 -0.43654966880E+02 -0.29279123983E+03  0.29726676120E+03  0.00000000000E+00 0. -1.
         11    1    3    3    0    0 -0.40074027841E+02 -0.12773828397E+02 -0.73773114810E+02  0.84920968365E+02  0.00000000000E+00 0.  1.
        -13    1    4    4    0    0 -0.36255601103E+02  0.44861427039E+01 -0.15081934938E+03  0.15518076632E+03  0.00000000000E+00 0. -1.
         13    1    4    4    0    0  0.54702958908E+02 -0.21235100190E+02 -0.18006253667E+03  0.18938284058E+03  0.00000000000E+00 0.  1.
         21    1    1    2  502  501 -0.54853394646E+01  0.73177752762E+02  0.60720463732E+02  0.95247294787E+02  0.00000000000E+00 0.  1.
<scales pt_clust_5="13000.00000" pt_clust_6="13000.00000" pt_clust_7="13000.00000" pt_clust_8="13000.00000" pt_clust_9="73.38305"></scales>
<clustering>
<clus scale="   73.383">  1  9  2 -1</clus>
<clus scale="   91.355">  5  6 -1 -1</clus>
<clus scale="   92.846">  7  8 -1 -1</clus>
<clus scale="   94.348">  1  5  2 -1</clus>
<clus scale="   95.792">  2  5  1 -1</clus>
</clustering>
</event>
<event>
 9    1  0.1484717E-005  0.9362359E+02  0.7546771E-02  0.1294675E+00
          3   -1    0    0  502    0  0.00000000000E+00  0.00000000000E+00  0.23407306191E+03  0.23407306191E+03  0.00000000000E+00 0. -1.
         -3   -1    0    0    0  501 -0.00000000000E+00 -0.00000000000E+00 -0.66123396335E+02  0.66123396335E+02  0.00000000000E+00 0.  1.
         23    2    1    2    0    0 -0.49825644345E+01 -0.32402361099E+02  0.37684589168E+02  0.10390943914E+03  0.91116981561E+02 0.  0.
         23    2    1    2    0    0 -0.18436169167E+02  0.12150723336E+02  0.13597714738E+03  0.16480379070E+03  0.90459783376E+02 0.  0.
        -11    1    4    4    0    0 -0.37753491741E+02 -0.22620052533E+02  0.34860246967E+02  0.56144721336E+02  0.00000000000E+00 0.  1.
         11    1    4    4    0    0  0.19317322574E+02  0.34770775869E+02  0.10111690042E+03  0.10865906937E+03  0.00000000000E+00 0. -1.
        -11    1    3    3    0    0 -0.23116986115E+02 -0.15533441988E+02 -0.24424803076E+02  0.37043945151E+02  0.00000000000E+00 0.  1.
         11    1    3    3    0    0  0.18134421681E+02 -0.16868919111E+02  0.62109392244E+02  0.66865493990E+02  0.00000000000E+00 0. -1.
         21    1    1    2  502  501  0.23418733601E+02  0.20251637764E+02 -0.57120709778E+01  0.31483228399E+02  0.00000000000E+00 0.  1.
<scales pt_clust_5="13000.00000" pt_clust_6="13000.00000" pt_clust_7="13000.00000" pt_clust_8="13000.00000" pt_clust_9="30.96072"></scales>
<clustering>
<clus scale="   30.961">  2  9  1 -1</clus>
<clus scale="   90.460">  5  6 -1 -1</clus>
<clus scale="   91.117">  7  8 -1 -1</clus>
<clus scale="   92.984">  1  5  2 -1</clus>
<clus scale="   92.984">  1  5  2 -1</clus>
</clustering>
</event>
<event>
 9    1  0.1484717E-005  0.1260525E+03  0.7546771E-02  0.1235337E+00
         -2   -1    0    0    0  501 -0.00000000000E+00  0.00000000000E+00  0.28418026975E+03  0.28418026975E+03  0.00000000000E+00 0.  1.
          2   -1    0    0  502    0  0.00000000000E+00 -0.00000000000E+00 -0.11215525730E+03  0.11215525730E+03  0.00000000000E+00 0. -1.
         23    2    1    2    0    0 -0.50401087276E+02  0.92404535911E+02  0.90337424993E+01  0.14345028610E+03  0.97043846914E+02 0.  0.
         23    2    1    2    0    0  0.27136058312E+02 -0.50647198549E+02  0.29862751710E+02  0.11143511135E+03  0.90689005506E+02 0.  0.
        -11    1    4    4    0    0  0.52693353297E+02 -0.47606615774E+02 -0.12901548977E+01  0.71025656257E+02  0.00000000000E+00 0.  1.
         11    1    4    4    0    0 -0.25557294985E+02 -0.30405827757E+01  0.31152906608E+02  0.40409455090E+02  0.00000000000E+00 0. -1.
        -13    1    3    3    0    0 -0.35633254269E+02  0.22685418510E+02  0.46594406020E+02  0.62891936647E+02  0.00000000000E+00 0.  1.
         13    1    3    3    0    0 -0.14767833007E+02  0.69719117401E+02 -0.37560663521E+02  0.80558349456E+02  0.00000000000E+00 0. -1.
         21    1    1    2  502  501  0.23265028964E+02 -0.41757337361E+02  0.13312851824E+03  0.14145012960E+03  0.00000000000E+00 0.  1.
<scales pt_clust_5="13000.00000" pt_clust_6="13000.00000" pt_clust_7="13000.00000" pt_clust_8="13000.00000" pt_clust_9="47.80101"></scales>
<clustering>
<clus scale="   47.801">  1  9  2 -1</clus>
<clus scale="   90.689">  5  6 -1 -1</clus>
<clus scale="   97.044">  7  8 -1 -1</clus>
<clus scale="  121.228">  2  5  1 -1</clus>
<clus scale="  121.228">  2  5  1 -1</clus>
</clustering>
</event>
<event>
 9    1  0.1484717E-005  0.1227802E+03  0.7546771E-02  0.1239118E+00
         -2   -1    0    0    0  501 -0.00000000000E+00  0.00000000000E+00  0.23329649585E+02  0.23329649585E+02  0.00000000000E+00 0.  1.
          2   -1    0    0  502    0  0.00000000000E+00 -0.00000000000E+00 -0.87434786143E+03  0.87434786143E+03  0.00000000000E+00 0. -1.
         23    2    1    2    0    0 -0.80860874689E+02 -0.10754218852E+02 -0.29929193059E+03  0.32290500102E+03  0.89654033323E+02 0.  0.
         23    2    1    2    0    0  0.72756423553E+02  0.44005656708E+02 -0.46665129015E+03  0.48307139572E+03  0.91457923497E+02 0.  0.
        -11    1    3    3    0    0 -0.23038152995E+02  0.28666366150E+02 -0.18706943228E+03  0.19065017581E+03  0.00000000000E+00 0. -1.
         11    1    3    3    0    0 -0.57822721694E+02 -0.39420585002E+02 -0.11222249831E+03  0.13225482521E+03  0.00000000000E+00 0.  1.
        -13    1    4    4    0    0  0.32451059416E+01 -0.21088202703E+02 -0.34604034576E+02  0.40653194398E+02  0.00000000000E+00 0.  1.
         13    1    4    4    0    0  0.69511317612E+02  0.65093859411E+02 -0.43204725558E+03  0.44241820132E+03  0.00000000000E+00 0. -1.
         21    1    1    2  502  501  0.81044511356E+01 -0.33251437856E+02 -0.85074991106E+02  0.91701114276E+02  0.00000000000E+00 0. -1.
<scales pt_clust_5="13000.00000" pt_clust_6="13000.00000" pt_clust_7="13000.00000" pt_clust_8="13000.00000" pt_clust_9="34.22485"></scales>
<clustering>
<clus scale="   34.225">  1  9  2 -1</clus>
<clus scale="   89.654">  5  6 -1 -1</clus>
<clus scale="   91.458">  7  8 -1 -1</clus>
<clus scale="  121.442">  1  5  2 -1</clus>
<clus scale="  122.780">  2  5  1 -1</clus>
</clustering>
</event>
<event>
 9    1  0.1484717E-005  0.1568432E+03  0.7546771E-02  0.1192317E+00
          1   -1    0    0  502    0  0.00000000000E+00  0.00000000000E+00  0.77945022074E+03  0.77945022074E+03  0.00000000000E+00 0. -1.
         -1   -1    0    0    0  501 -0.00000000000E+00 -0.00000000000E+00 -0.14130095134E+03  0.14130095134E+03  0.00000000000E+00 0.  1.
         23    2    1    2    0    0  0.13519426503E+03  0.27138035535E+02  0.31510964991E+02  0.16909336879E+03  0.92658859182E+02 0.  0.
         23    2    1    2    0    0 -0.11620115567E+03 -0.46978506932E+02  0.66720078469E+03  0.68515820535E+03  0.92602324893E+02 0.  0.
        -11    1    4    4    0    0 -0.22693121451E+02 -0.52613014743E+02  0.17560870741E+03  0.18472012668E+03  0.00000000000E+00 0.  1.
         11    1    4    4    0    0 -0.93508034219E+02  0.56345078107E+01  0.49159207728E+03  0.50043807867E+03  0.00000000000E+00 0. -1.
        -11    1    3    3    0    0  0.80643005616E+02 -0.20675512225E+02 -0.12593322424E+02  0.84198354677E+02  0.00000000000E+00 0.  1.
         11    1    3    3    0    0  0.54551259410E+02  0.47813547760E+02  0.44104287415E+02  0.84895014111E+02  0.00000000000E+00 0. -1.
         21    1    1    2  502  501 -0.18993109355E+02  0.19840471397E+02 -0.60562480280E+02  0.66499597937E+02  0.00000000000E+00 0.  1.
<scales pt_clust_5="13000.00000" pt_clust_6="13000.00000" pt_clust_7="13000.00000" pt_clust_8="13000.00000" pt_clust_9="27.46602"></scales>
<clustering>
<clus scale="   27.466">  2  9  1 -1</clus>
<clus scale="   92.602">  5  6 -1 -1</clus>
<clus scale="   92.659">  7  8 -1 -1</clus>
<clus scale="  156.810">  1  5  2 -1</clus>
<clus scale="  156.810">  1  5  2 -1</clus>
</clustering>
</event>
<event>
 9    1  0.1484717E-005  0.1155592E+03  0.7546771E-02  0.1251003E+00
         -2   -1    0    0    0  501 -0.00000000000E+00  0.00000000000E+00  0.34207123578E+03  0.34207123578E+03  0.00000000000E+00 0.  1.
          2   -1    0    0  502    0  0.00000000000E+00 -0.00000000000E+00 -0.86713664771E+02  0.86713664771E+02  0.00000000000E+00 0. -1.
         23    2    1    2    0    0 -0.12650326366E+01 -0.62534695719E+02  0.23833604384E+03  0.26741196589E+03  0.10388888888E+03 0.  0.
         23    2    1    2    0    0 -0.16395742256E+02  0.46163692206E+02 -0.21486008728E+02  0.11595550357E+03  0.10287916890E+03 0.  0.
        -13    1    4    4    0    0  0.30203217566E+01  0.54592940049E+02  0.28510226575E+02  0.61663153228E+02  0.00000000000E+00 0.  1.
         13    1    4    4    0    0 -0.19416064013E+02 -0.84292478428E+01 -0.49996235303E+02  0.54292350340E+02  0.00000000000E+00 0. -1.
        -13    1    3    3    0    0 -0.45489235038E+02 -0.10240315329E+01  0.90649869683E+02  0.10142838862E+03  0.00000000000E+00 0. -1.
         13    1    3    3    0    0  0.44224202401E+02 -0.61510664186E+02  0.14768617416E+03  0.16598357727E+03  0.00000000000E+00 0.  1.
         21    1    1    2  502  501  0.17660774893E+02  0.16371003513E+02  0.38507535896E+02  0.45417431088E+02  0.00000000000E+00 0.  1.
<scales pt_clust_5="13000.00000" pt_clust_6="13000.00000" pt_clust_7="13000.00000" pt_clust_8="13000.00000" pt_clust_9="24.08138"></scales>
<clustering>
<clus scale="   24.081">  1  9  2 -1</clus>
<clus scale="  102.879">  5  6 -1 -1</clus>
<clus scale="  103.889">  7  8 -1 -1</clus>
<clus scale="  114.652">  2  5  1 -1</clus>
<clus scale="  114.652">  2  5  1 -1</clus>
</clustering>
</event>
<event>
 9    1  0.1484717E-005  0.2031664E+03  0.7546771E-02  0.1172040E+00
         -2   -1    0    0    0  501 -0.00000000000E+00  0.00000000000E+00  0.78066527164E+02  0.78066527164E+02  0.00000000000E+00 0.  1.
          2   -1    0    0  502    0  0.00000000000E+00 -0.00000000000E+00 -0.10872442348E+04  0.10872442348E+04  0.00000000000E+00 0. -1.
         23    2    1    2    0    0 -0.47578607327E+02  0.15841000097E+03 -0.67834080506E+03  0.70554832763E+03  0.10146301066E+03 0.  0.
         23    2    1    2    0    0  0.64211807804E+02  0.21640362437E+02 -0.22019843867E+03  0.24778208990E+03  0.91198410805E+02 0.  0.
        -11    1    3    3    0    0 -0.17475759803E+02  0.16224017290E+03 -0.58950269669E+03  0.61167042211E+03  0.00000000000E+00 0. -1.
         11    1    3    3    0    0 -0.30102847524E+02 -0.38301719263E+01 -0.88838108373E+02  0.93877905522E+02  0.00000000000E+00 0.  1.
        -13    1    4    4    0    0  0.67967786616E+02  0.49836062904E+02 -0.15030025778E+03  0.17231778977E+03  0.00000000000E+00 0. -1.
         13    1    4    4    0    0 -0.37559788127E+01 -0.28195700467E+02 -0.69898180891E+02  0.75464300126E+02  0.00000000000E+00 0.  1.
         21    1    1    2  502  501 -0.16633200477E+02 -0.18005036341E+03 -0.11063846386E+03  0.21198034439E+03  0.00000000000E+00 0.  1.
<scales pt_clust_5="13000.00000" pt_clust_6="13000.00000" pt_clust_7="13000.00000" pt_clust_8="13000.00000" pt_clust_9="176.01658"></scales>
<clustering>
<clus scale="   91.198">  7  8 -1 -1</clus>
<clus scale="  101.463">  5  6 -1 -1</clus>
<clus scale="  113.616">  2  7  1 -1</clus>
<clus scale="  176.017">  1  9  2 -1</clus>
<clus scale="  113.616">  2  5  1 -1</clus>
</clustering>
</event>
<event>
 9    1  0.1566025E-005  0.1227782E+03  0.7546771E-02  0.1239572E+00
         -2   -1    0    0    0  501 -0.00000000000E+00  0.00000000000E+00  0.69668144110E+02  0.69668144110E+02  0.00000000000E+00 0.  1.
          2   -1    0    0  502    0  0.00000000000E+00 -0.00000000000E+00 -0.50965999255E+03  0.50965999255E+03  0.00000000000E+00 0. -1.
         23    2    1    2    0    0 -0.19178449128E+02  0.64752986419E+02 -0.51764252302E+01  0.11473785693E+03  0.92613272667E+02 0.  0.
         23    2    1    2    0    0  0.50138407913E+01 -0.82766097680E+02 -0.41993275485E+03  0.43726625872E+03  0.89347058685E+02 0.  0.
        -13    1    4    4    0    0  0.27016933049E+02  0.23428625875E+00 -0.43848867625E+02  0.51504298397E+02  0.00000000000E+00 0.  1.
         13    1    4    4    0    0 -0.22003092257E+02 -0.83000383939E+02 -0.37608388722E+03  0.38576196032E+03  0.00000000000E+00 0. -1.
        -13    1    3    3    0    0  0.15354633179E+02 -0.18478648387E+02 -0.54064509416E+01  0.24626305409E+02  0.00000000000E+00 0.  1.
         13    1    3    3    0    0 -0.34533082307E+02  0.83231634807E+02  0.23002571138E+00  0.90111551524E+02  0.00000000000E+00 0. -1.
         21    1    1    2  502  501  0.14164608336E+02  0.18013111261E+02 -0.14882668366E+02  0.27324021013E+02  0.00000000000E+00 0.  1.
<scales pt_clust_5="13000.00000" pt_clust_6="13000.00000" pt_clust_7="13000.00000" pt_clust_8="13000.00000" pt_clust_9="22.91524"></scales>
<clustering>
<clus scale="   22.915">  1  9  2 -1</clus>
<clus scale="   89.347">  5  6 -1 -1</clus>
<clus scale="   92.613">  7  8 -1 -1</clus>
<clus scale="  120.334">  2  5  1 -1</clus>
<clus scale="  120.334">  2  5  1 -1</clus>
</clustering>
</event>
<event>
 9    1  0.1484717E-005  0.1081449E+03  0.7546771E-02  0.1268608E+00
          2   -1    0    0  502    0  0.00000000000E+00  0.00000000000E+00  0.85819917599E+02  0.85819917599E+02  0.00000000000E+00 0. -1.
         -2   -1    0    0    0  501 -0.00000000000E+00 -0.00000000000E+00 -0.26271344722E+03  0.26271344722E+03  0.00000000000E+00 0.  1.
         23    2    1    2    0    0 -0.18824067839E+02 -0.27509922526E+02 -0.15648431842E+03  0.18395003103E+03  0.90769657029E+02 0.  0.
         23    2    1    2    0    0 -0.13498074260E+02  0.41938978840E+02  0.19063712915E+02  0.11156418372E+03  0.10070782484E+03 0.  0.
        -11    1    3    3    0    0  0.25586227255E+02 -0.11405934208E+01 -0.11467362973E+03  0.11749892482E+03  0.00000000000E+00 0.  1.
         11    1    3    3    0    0 -0.44410295094E+02 -0.26369329105E+02 -0.41810688693E+02  0.66451106212E+02  0.00000000000E+00 0. -1.
        -13    1    4    4    0    0 -0.77980904701E+01  0.67751371729E+02 -0.13602682617E+02  0.69542012917E+02  0.00000000000E+00 0. -1.
         13    1    4    4    0    0 -0.56999837897E+01 -0.25812392889E+02  0.32666395532E+02  0.42022170802E+02  0.00000000000E+00 0.  1.
         21    1    1    2  502  501  0.32322142099E+02 -0.14429056314E+02 -0.39472924117E+02  0.53019150071E+02  0.00000000000E+00 0.  1.
<scales pt_clust_5="13000.00000" pt_clust_6="13000.00000" pt_clust_7="13000.00000" pt_clust_8="13000.00000" pt_clust_9="35.39659"></scales>
<clustering>
<clus scale="   35.397">  2  9  1 -1</clus>
<clus scale="   90.770">  5  6 -1 -1</clus>
<clus scale="   98.956">  2  5  1 -1</clus>
<clus scale="  100.708">  7  8 -1 -1</clus>
<clus scale="  108.145">  1  5  2 -1</clus>
</clustering>
</event>
<event>
 9    1  0.1484717E-005  0.9562022E+02  0.7546771E-02  0.1292438E+00
          1   -1    0    0  502    0  0.00000000000E+00  0.00000000000E+00  0.43315842342E+03  0.43315842342E+03  0.00000000000E+00 0. -1.
         -1   -1    0    0    0  501 -0.00000000000E+00 -0.00000000000E+00 -0.60837467176E+02  0.60837467176E+02  0.00000000000E+00 0.  1.
         23    2    1    2    0    0  0.13744833644E+02  0.40458225777E+02  0.17097276825E+02  0.99659149124E+02  0.88395931153E+02 0.  0.
         23    2    1    2    0    0  0.69904455681E+01 -0.35598172214E+02  0.36099712470E+03  0.37227082669E+03  0.83369947661E+02 0.  0.
        -11    1    4    4    0    0 -0.25165728549E+02 -0.43739841835E+02  0.28375879339E+03  0.28821093054E+03  0.00000000000E+00 0. -1.
         11    1    4    4    0    0  0.32156174117E+02  0.81416696213E+01  0.77238331311E+02  0.84059896156E+02  0.00000000000E+00 0.  1.
        -13    1    3    3    0    0  0.11088063990E+02  0.17927184116E+02  0.53085105721E+02  0.57117051244E+02  0.00000000000E+00 0. -1.
         13    1    3    3    0    0  0.26567696535E+01  0.22531041661E+02 -0.35987828897E+02  0.42542097880E+02  0.00000000000E+00 0.  1.
         21    1    1    2  502  501 -0.20735279212E+02 -0.48600535625E+01 -0.57734452787E+01  0.22065914779E+02  0.00000000000E+00 0. -1.
<scales pt_clust_5="13000.00000" pt_clust_6="13000.00000" pt_clust_7="13000.00000" pt_clust_8="13000.00000" pt_clust_9="21.29723"></scales>
<clustering>
<clus scale="   21.297">  2  9  1 -1</clus>
<clus scale="   83.370">  5  6 -1 -1</clus>
<clus scale="   88.396">  7  8 -1 -1</clus>
<clus scale="   90.994">  1  5  2 -1</clus>
<clus scale="   90.994">  1  5  2 -1</clus>
</clustering>
</event>
<event>
 9    1  0.1484717E-005  0.9866931E+02  0.7546771E-02  0.1283257E+00
         -1   -1    0    0    0  501 -0.00000000000E+00  0.00000000000E+00  0.65442818744E+02  0.65442818744E+02  0.00000000000E+00 0.  1.
          1   -1    0    0  502    0  0.00000000000E+00 -0.00000000000E+00 -0.33174376319E+03  0.33174376319E+03  0.00000000000E+00 0. -1.
         23    2    1    2    0    0  0.62682107064E+02  0.20438099157E+02 -0.10877487082E+03  0.15711183208E+03  0.92224686577E+02 0.  0.
         23    2    1    2    0    0 -0.18300325116E+02 -0.65373795791E+01 -0.16791020290E+03  0.19242180960E+03  0.91949319423E+02 0.  0.
        -11    1    3    3    0    0  0.76946251399E+02 -0.10184031939E+02 -0.61609768448E+02  0.99096940816E+02  0.00000000000E+00 0.  1.
         11    1    3    3    0    0 -0.14264144335E+02  0.30622131096E+02 -0.47165102374E+02  0.58014891265E+02  0.00000000000E+00 0. -1.
        -11    1    4    4    0    0  0.11085754483E+01 -0.46873079068E+02 -0.64511860256E+02  0.79750201219E+02  0.00000000000E+00 0.  1.
         11    1    4    4    0    0 -0.19408900565E+02  0.40335699489E+02 -0.10339834264E+03  0.11267160838E+03  0.00000000000E+00 0. -1.
         21    1    1    2  502  501 -0.44381781948E+02 -0.13900719578E+02  0.10384129276E+02  0.47652940250E+02  0.00000000000E+00 0.  1.
<scales pt_clust_5="13000.00000" pt_clust_6="13000.00000" pt_clust_7="13000.00000" pt_clust_8="13000.00000" pt_clust_9="46.50777"></scales>
<clustering>
<clus scale="   46.508">  1  9  2 -1</clus>
<clus scale="   91.949">  7  8 -1 -1</clus>
<clus scale="   92.225">  5  6 -1 -1</clus>
<clus scale="   98.412">  2  7  1 -1</clus>
<clus scale="   98.412">  2  5  1 -1</clus>
</clustering>
</event>
<event>
 9    1  0.1484717E-005  0.2013251E+03  0.7546771E-02  0.1148656E+00
          1   -1    0    0  502    0  0.00000000000E+00  0.00000000000E+00  0.84443343400E+03  0.84443343400E+03  0.00000000000E+00 0. -1.
         -1   -1    0    0    0  501 -0.00000000000E+00 -0.00000000000E+00 -0.19199558683E+03  0.19199558683E+03  0.00000000000E+00 0.  1.
         23    2    1    2    0    0 -0.12836868555E+03  0.17571107914E+03  0.28473741830E+03  0.36982644009E+03  0.91341642474E+02 0.  0.
         23    2    1    2    0    0  0.11707507499E+03 -0.11534566674E+03  0.49265440966E+03  0.52737246198E+03  0.91663243917E+02 0.  0.
        -11    1    4    4    0    0  0.49146316760E+02 -0.78423274428E+00  0.19809349241E+03  0.20410048311E+03  0.00000000000E+00 0. -1.
         11    1    4    4    0    0  0.67928758232E+02 -0.11456143399E+03  0.29456091725E+03  0.32327197887E+03  0.00000000000E+00 0.  1.
        -13    1    3    3    0    0 -0.12904439164E+03  0.14774143574E+03  0.27933355301E+03  0.34133154071E+03  0.00000000000E+00 0. -1.
         13    1    3    3    0    0  0.67570608546E+00  0.27969643397E+02  0.54038652840E+01  0.28494899376E+02  0.00000000000E+00 0.  1.
         21    1    1    2  502  501  0.11293610561E+02 -0.60365412401E+02 -0.12495398078E+03  0.13923011875E+03  0.00000000000E+00 0.  1.
<scales pt_clust_5="13000.00000" pt_clust_6="13000.00000" pt_clust_7="13000.00000" pt_clust_8="13000.00000" pt_clust_9="61.41277"></scales>
<clustering>
<clus scale="   61.413">  2  9  1 -1</clus>
<clus scale="   91.342">  7  8 -1 -1</clus>
<clus scale="   91.663">  5  6 -1 -1</clus>
<clus scale="  201.179">  2  7  1 -1</clus>
<clus scale="  201.325">  1  5  2 -1</clus>
</clustering>
</event>
<event>
 9    1  0.1484717E-005  0.1177781E+03  0.7546771E-02  0.1249149E+00
         -1   -1    0    0    0  501 -0.00000000000E+00  0.00000000000E+00  0.32094357640E+03  0.32094357640E+03  0.00000000000E+00 0.  1.
          1   -1    0    0  502    0  0.00000000000E+00 -0.00000000000E+00 -0.53811808028E+02  0.53811808028E+02  0.00000000000E+00 0. -1.
         23    2    1    2    0    0 -0.57956651148E+02  0.46663057016E+02  0.13471780852E+03  0.18129696446E+03  0.95829468792E+02 0.  0.
         23    2    1    2    0    0  0.64039531315E+02 -0.17504569316E+02  0.10093414373E+03  0.15012024211E+03  0.89111807322E+02 0.  0.
        -11    1    3    3    0    0  0.21263097925E+02  0.22918065229E+02  0.68692452573E+02  0.75471915887E+02  0.00000000000E+00 0. -1.
         11    1    3    3    0    0 -0.79219749073E+02  0.23744991787E+02  0.66025355943E+02  0.10582504857E+03  0.00000000000E+00 0.  1.
        -11    1    4    4    0    0 -0.96672255041E+01 -0.31081535839E+02  0.14260784234E+02  0.35537122647E+02  0.00000000000E+00 0.  1.
         11    1    4    4    0    0  0.73706756819E+02  0.13576966524E+02  0.86673359492E+02  0.11458311947E+03  0.00000000000E+00 0. -1.
         21    1    1    2  502  501 -0.60828801672E+01 -0.29158487701E+02  0.31479816131E+02  0.43338177855E+02  0.00000000000E+00 0. -1.
<scales pt_clust_5="13000.00000" pt_clust_6="13000.00000" pt_clust_7="13000.00000" pt_clust_8="13000.00000" pt_clust_9="29.78622"></scales>
<clustering>
<clus scale="   29.786">  1  9  2 -1</clus>
<clus scale="   89.112">  7  8 -1 -1</clus>
<clus scale="   95.829">  5  6 -1 -1</clus>
<clus scale="  112.380">  2  7  1 -1</clus>
<clus scale="  112.380">  2  5  1 -1</clus>
</clustering>
</event>
<event>
 9    1  0.1484717E-005  0.1195165E+03  0.7546771E-02  0.1244590E+00
         -1   -1    0    0    0  501 -0.00000000000E+00  0.00000000000E+00  0.75999191598E+03  0.75999191598E+03  0.00000000000E+00 0.  1.
          1   -1    0    0  502    0  0.00000000000E+00 -0.00000000000E+00 -0.29954219102E+02  0.29954219102E+02  0.00000000000E+00 0. -1.
         23    2    1    2    0    0  0.52919496180E+02  0.48333331998E+02  0.50111061929E+03  0.51478208353E+03  0.93552962006E+02 0.  0.
         23    2    1    2    0    0 -0.75898182401E+02 -0.37960054763E+02  0.16815578206E+03  0.20937062284E+03  0.91423141602E+02 0.  0.
        -11    1    3    3    0    0 -0.12308622629E+02 -0.18053637112E+02  0.57456192495E+02  0.61470725228E+02  0.00000000000E+00 0. -1.
         11    1    3    3    0    0  0.65228118809E+02  0.66386969110E+02  0.44365442680E+03  0.45331135830E+03  0.00000000000E+00 0.  1.
        -11    1    4    4    0    0  0.17897799406E+02 -0.92270572188E+01  0.60311975184E+02  0.63584622033E+02  0.00000000000E+00 0.  1.
         11    1    4    4    0    0 -0.93795981806E+02 -0.28732997544E+02  0.10784380688E+03  0.14578600081E+03  0.00000000000E+00 0. -1.
         21    1    1    2  502  501  0.22978686220E+02 -0.10373277235E+02  0.60771295530E+02  0.65793428710E+02  0.00000000000E+00 0.  1.
<scales pt_clust_5="13000.00000" pt_clust_6="13000.00000" pt_clust_7="13000.00000" pt_clust_8="13000.00000" pt_clust_9="25.21160"></scales>
<clustering>
<clus scale="   25.212">  2  9  1 -1</clus>
<clus scale="   91.423">  7  8 -1 -1</clus>
<clus scale="   93.553">  5  6 -1 -1</clus>
<clus scale="  117.857">  2  7  1 -1</clus>
<clus scale="   25.212">  2  5  1 -1</clus>
</clustering>
</event>
<event>
 9    1  0.1484717E-005  0.1676417E+03  0.7546771E-02  0.1180493E+00
          2   -1    0    0  502    0  0.00000000000E+00  0.00000000000E+00  0.21821615683E+03  0.21821615683E+03  0.00000000000E+00 0. -1.
         -2   -1    0    0    0  501 -0.00000000000E+00 -0.00000000000E+00 -0.39253034243E+03  0.39253034243E+03  0.00000000000E+00 0.  1.
         23    2    1    2    0    0  0.13334013461E+03  0.82058899909E+02 -0.27602795394E+03  0.33013331503E+03  0.91012745157E+02 0.  0.
         23    2    1    2    0    0 -0.10144488267E+03 -0.95321473759E+02  0.14846810647E+03  0.22248254606E+03  0.89880237425E+02 0.  0.
        -13    1    3    3    0    0  0.37697322722E+02  0.15921776569E+02 -0.16267527254E+03  0.16774336173E+03  0.00000000000E+00 0.  1.
         13    1    3    3    0    0  0.95642811892E+02  0.66137123340E+02 -0.11335268140E+03  0.16238995330E+03  0.00000000000E+00 0. -1.
        -13    1    4    4    0    0 -0.60528927605E+02 -0.12207024087E+02  0.10102473880E+03  0.11840084613E+03  0.00000000000E+00 0.  1.
         13    1    4    4    0    0 -0.40915955067E+02 -0.83114449672E+02  0.47443367668E+02  0.10408169992E+03  0.00000000000E+00 0. -1.
         21    1    1    2  502  501 -0.31895251941E+02  0.13262573851E+02 -0.46754338133E+02  0.58130638185E+02  0.00000000000E+00 0. -1.
<scales pt_clust_5="13000.00000" pt_clust_6="13000.00000" pt_clust_7="13000.00000" pt_clust_8="13000.00000" pt_clust_9="34.54277"></scales>
<clustering>
<clus scale="   34.543">  2  9  1 -1</clus>
<clus scale="   89.880">  7  8 -1 -1</clus>
<clus scale="   91.013">  5  6 -1 -1</clus>
<clus scale="  167.030">  1  7  2 -1</clus>
<clus scale="  167.030">  1  5  2 -1</clus>
</clustering>
</event>
<event>
 9    1  0.1484717E-005  0.9298318E+02  0.7546771E-02  0.1297198E+00
         -1   -1    0    0    0  501 -0.00000000000E+00  0.00000000000E+00  0.15197969354E+03  0.15197969354E+03  0.00000000000E+00 0.  1.
          1   -1    0    0  502    0  0.00000000000E+00 -0.00000000000E+00 -0.10036130455E+03  0.10036130455E+03  0.00000000000E+00 0. -1.
         23    2    1    2    0    0  0.45744903100E+01 -0.13548874089E+02  0.63080789128E+02  0.11304279239E+03  0.92709163531E+02 0.  0.
         23    2    1    2    0    0  0.10901868950E+02 -0.60658777252E+01 -0.41559750941E+02  0.10018162725E+03  0.90296732614E+02 0.  0.
        -11    1    3    3    0    0  0.26115686619E+02 -0.43087592627E+02  0.56837756525E+02  0.75954593625E+02  0.00000000000E+00 0. -1.
         11    1    3    3    0    0 -0.21541196309E+02  0.29538718538E+02  0.62430326036E+01  0.37088198761E+02  0.00000000000E+00 0.  1.
        -13    1    4    4    0    0  0.10887926249E+02 -0.37475964807E+02 -0.53806011647E+02  0.66468652503E+02  0.00000000000E+00 0. -1.
         13    1    4    4    0    0  0.13942700303E-01  0.31410087082E+02  0.12246260706E+02  0.33712974745E+02  0.00000000000E+00 0.  1.
         21    1    1    2  502  501 -0.15476359260E+02  0.19614751814E+02  0.30097350799E+02  0.39116578452E+02  0.00000000000E+00 0.  1.
<scales pt_clust_5="13000.00000" pt_clust_6="13000.00000" pt_clust_7="13000.00000" pt_clust_8="13000.00000" pt_clust_9="24.98512"></scales>
<clustering>
<clus scale="   24.985">  1  9  2 -1</clus>
<clus scale="   90.297">  7  8 -1 -1</clus>
<clus scale="   90.578">  2  7  1 -1</clus>
<clus scale="   92.709">  5  6 -1 -1</clus>
<clus scale="   90.578">  2  5  1 -1</clus>
</clustering>
</event>
<event>
 9    1  0.1484717E-005  0.1167294E+03  0.7546771E-02  0.1256932E+00
          2   -1    0    0  502    0  0.00000000000E+00  0.00000000000E+00  0.21532087233E+03  0.21532087233E+03  0.00000000000E+00 0. -1.
         -2   -1    0    0    0  501 -0.00000000000E+00 -0.00000000000E+00 -0.66411357741E+02  0.66411357741E+02  0.00000000000E+00 0.  1.
         23    2    1    2    0    0  0.30217086809E+02 -0.24469581186E+02  0.62292947563E+02  0.13380921506E+03  0.11186001064E+03 0.  0.
         23    2    1    2    0    0 -0.90245041841E+01  0.29613010028E+02  0.70758128888E+02  0.12095877056E+03  0.93091027136E+02 0.  0.
        -11    1    4    4    0    0 -0.43417565519E+02  0.41079112912E+02  0.55702727384E+02  0.81702951913E+02  0.00000000000E+00 0.  1.
         11    1    4    4    0    0  0.34393061335E+02 -0.11466102884E+02  0.15055401504E+02  0.39255818648E+02  0.00000000000E+00 0. -1.
        -11    1    3    3    0    0 -0.17898712384E+02 -0.39028967917E+02 -0.11564020522E+02  0.44467412926E+02  0.00000000000E+00 0.  1.
         11    1    3    3    0    0  0.48115799193E+02  0.14559386731E+02  0.73856968085E+02  0.89341802135E+02  0.00000000000E+00 0. -1.
         21    1    1    2  502  501 -0.21192582625E+02 -0.51434288418E+01  0.15858438138E+02  0.26964244450E+02  0.00000000000E+00 0. -1.
<scales pt_clust_5="13000.00000" pt_clust_6="13000.00000" pt_clust_7="13000.00000" pt_clust_8="13000.00000" pt_clust_9="21.80781"></scales>
<clustering>
<clus scale="   21.808">  1  9  2 -1</clus>
<clus scale="   93.091">  5  6 -1 -1</clus>
<clus scale="   98.889">  1  5  2 -1</clus>
<clus scale="  111.860">  7  8 -1 -1</clus>
<clus scale="   21.808">  1  5  2 -1</clus>
</clustering>
</event>
<event>
 9    1  0.1484717E-005  0.1377817E+03  0.7546771E-02  0.1216431E+00
         -1   -1    0    0    0  501 -0.00000000000E+00  0.00000000000E+00  0.14504135556E+03  0.14504135556E+03  0.00000000000E+00 0.  1.
          1   -1    0    0  502    0  0.00000000000E+00 -0.00000000000E+00 -0.41431902972E+03  0.41431902972E+03  0.00000000000E+00 0. -1.
         23    2    1    2    0    0  0.61928200075E+02  0.99854108542E+02 -0.12422434886E+03  0.19366982216E+03  0.90941553796E+02 0.  0.
         23    2    1    2    0    0  0.18682092851E+02 -0.10468325934E+03 -0.21664624923E+03  0.25776982006E+03  0.90565321446E+02 0.  0.
        -11    1    4    4    0    0 -0.27338263572E+02 -0.41855711373E+02 -0.13933785842E+03  0.14803486083E+03  0.00000000000E+00 0. -1.
         11    1    4    4    0    0  0.46020356422E+02 -0.62827547972E+02 -0.77308390809E+02  0.10973495924E+03  0.00000000000E+00 0.  1.
        -13    1    3    3    0    0 -0.97219078672E+00  0.78586653713E+02 -0.46000619254E+02  0.91065164957E+02  0.00000000000E+00 0.  1.
         13    1    3    3    0    0  0.62900390862E+02  0.21267454829E+02 -0.78223729608E+02  0.10260465720E+03  0.00000000000E+00 0. -1.
         21    1    1    2  502  501 -0.80610292926E+02  0.48291508026E+01  0.71592923941E+02  0.10792074305E+03  0.00000000000E+00 0.  1.
<scales pt_clust_5="13000.00000" pt_clust_6="13000.00000" pt_clust_7="13000.00000" pt_clust_8="13000.00000" pt_clust_9="80.75481"></scales>
<clustering>
<clus scale="   80.755">  1  9  2 -1</clus>
<clus scale="   90.565">  5  6 -1 -1</clus>
<clus scale="   90.942">  7  8 -1 -1</clus>
<clus scale="  137.534">  2  5  1 -1</clus>
<clus scale="  137.534">  2  5  1 -1</clus>
</clustering>
</event>
<event>
 9    1  0.1484717E-005  0.1324102E+03  0.7546771E-02  0.1224131E+00
          1   -1    0    0  502    0  0.00000000000E+00  0.00000000000E+00  0.56686342200E+03  0.56686342200E+03  0.00000000000E+00 0. -1.
         -1   -1    0    0    0  501 -0.00000000000E+00 -0.00000000000E+00 -0.77405538827E+02  0.77405538827E+02  0.00000000000E+00 0.  1.
         23    2    1    2    0    0  0.48116356621E+01 -0.78004133598E+02 -0.56871778563E+01  0.11931719061E+03  0.89980282774E+02 0.  0.
         23    2    1    2    0    0 -0.14871912315E+02  0.98867420439E+02  0.47722833366E+03  0.49566875426E+03  0.89132995538E+02 0.  0.
        -13    1    3    3    0    0  0.25813024939E+02  0.81144431187E+01  0.10836943860E+02  0.29147826606E+02  0.00000000000E+00 0. -1.
         13    1    3    3    0    0 -0.21001389277E+02 -0.86118576716E+02 -0.16524121716E+02  0.90169364009E+02  0.00000000000E+00 0.  1.
        -13    1    4    4    0    0  0.35791444793E+02  0.59710306352E+02  0.23210785126E+03  0.24232293086E+03  0.00000000000E+00 0. -1.
         13    1    4    4    0    0 -0.50663357108E+02  0.39157114088E+02  0.24512048241E+03  0.25334582340E+03  0.00000000000E+00 0.  1.
         21    1    1    2  502  501  0.10060276653E+02 -0.20863286842E+02  0.17916727370E+02  0.29283015962E+02  0.00000000000E+00 0.  1.
<scales pt_clust_5="13000.00000" pt_clust_6="13000.00000" pt_clust_7="13000.00000" pt_clust_8="13000.00000" pt_clust_9="23.16217"></scales>
<clustering>
<clus scale="   23.162">  2  9  1 -1</clus>
<clus scale="   89.133">  7  8 -1 -1</clus>
<clus scale="   89.980">  5  6 -1 -1</clus>
<clus scale="  131.836">  1  7  2 -1</clus>
<clus scale="  131.836">  1  5  2 -1</clus>
</clustering>
</event>
<event>
 9    1  0.1484717E-005  0.9271280E+02  0.7546771E-02  0.1298261E+00
         -1   -1    0    0    0  501 -0.00000000000E+00  0.00000000000E+00  0.72227071651E+02  0.72227071651E+02  0.00000000000E+00 0.  1.
          1   -1    0    0  502    0  0.00000000000E+00 -0.00000000000E+00 -0.16463257439E+03  0.16463257439E+03  0.00000000000E+00 0. -1.
         23    2    1    2    0    0  0.12875704677E+02 -0.21255372162E+02 -0.41613596730E+02  0.10082360759E+03  0.88408901125E+02 0.  0.
         23    2    1    2    0    0  0.77999644907E+01  0.86441716383E+01 -0.60037262823E+02  0.11011303135E+03  0.91568802534E+02 0.  0.
        -11    1    3    3    0    0 -0.35651191040E+02 -0.80612834295E+01 -0.34079002199E+02  0.49973694119E+02  0.00000000000E+00 0. -1.
         11    1    3    3    0    0  0.48526895716E+02 -0.13194088733E+02 -0.75345945317E+01  0.50849913472E+02  0.00000000000E+00 0.  1.
        -13    1    4    4    0    0 -0.64963063471E+01 -0.37832590911E+02 -0.45143408148E+02  0.59257355919E+02  0.00000000000E+00 0.  1.
         13    1    4    4    0    0  0.14296270838E+02  0.46476762550E+02 -0.14893854674E+02  0.50855675436E+02  0.00000000000E+00 0. -1.
         21    1    1    2  502  501 -0.20675669167E+02  0.12611200524E+02  0.92453568150E+01  0.25923007094E+02  0.00000000000E+00 0.  1.
<scales pt_clust_5="13000.00000" pt_clust_6="13000.00000" pt_clust_7="13000.00000" pt_clust_8="13000.00000" pt_clust_9="24.21829"></scales>
<clustering>
<clus scale="   24.218">  1  9  2 -1</clus>
<clus scale="   88.409">  5  6 -1 -1</clus>
<clus scale="   89.593">  1  5  2 -1</clus>
<clus scale="   91.569">  7  8 -1 -1</clus>
<clus scale="   92.713">  2  5  1 -1</clus>
</clustering>
</event>
<event>
 9    1  0.1484717E-005  0.1345630E+03  0.7546771E-02  0.1222369E+00
         -1   -1    0    0    0  501 -0.00000000000E+00  0.00000000000E+00  0.10597141006E+03  0.10597141006E+03  0.00000000000E+00 0.  1.
          1   -1    0    0  502    0  0.00000000000E+00 -0.00000000000E+00 -0.25913369266E+03  0.25913369266E+03  0.00000000000E+00 0. -1.
         23    2    1    2    0    0  0.75645855237E+02  0.82260096881E+02  0.89626240087E+01  0.13900742113E+03  0.82180992610E+02 0.  0.
         23    2    1    2    0    0 -0.55034239835E+02 -0.81030255213E+02 -0.15618305855E+03  0.20461148234E+03  0.88758329822E+02 0.  0.
        -11    1    4    4    0    0 -0.15992968706E+02 -0.57418759527E+02 -0.23099410678E+02  0.63923953001E+02  0.00000000000E+00 0.  1.
         11    1    4    4    0    0 -0.39041271128E+02 -0.23611495686E+02 -0.13308364787E+03  0.14068752934E+03  0.00000000000E+00 0. -1.
        -13    1    3    3    0    0  0.50271437498E+02  0.35886649880E+01 -0.15624993804E+02  0.52765863737E+02  0.00000000000E+00 0.  1.
         13    1    3    3    0    0  0.25374417739E+02  0.78671431893E+02  0.24587617813E+02  0.86241557392E+02  0.00000000000E+00 0. -1.
         21    1    1    2  502  501 -0.20611615402E+02 -0.12298416683E+01 -0.59418480502E+01  0.21486199252E+02  0.00000000000E+00 0. -1.
<scales pt_clust_5="13000.00000" pt_clust_6="13000.00000" pt_clust_7="13000.00000" pt_clust_8="13000.00000" pt_clust_9="20.64827"></scales>
<clustering>
<clus scale="   20.648">  1  9  2 -1</clus>
<clus scale="   82.181">  7  8 -1 -1</clus>
<clus scale="   88.758">  5  6 -1 -1</clus>
<clus scale="  130.318">  1  7  2 -1</clus>
<clus scale="  134.563">  2  5  1 -1</clus>
</clustering>
</event>
<event>
 9    1  0.1484717E-005  0.1095621E+03  0.7546771E-02  0.1262935E+00
         -1   -1    0    0    0  501 -0.00000000000E+00  0.00000000000E+00  0.16493755178E+03  0.16493755178E+03  0.00000000000E+00 0.  1.
          1   -1    0    0  502    0  0.00000000000E+00 -0.00000000000E+00 -0.24962783935E+03  0.24962783935E+03  0.00000000000E+00 0. -1.
         23    2    1    2    0    0  0.47930451842E+01  0.17508424101E+01  0.95709489178E+01  0.95813529540E+02  0.95197639931E+02 0.  0.
         23    2    1    2    0    0  0.58843973672E+02 -0.44475478348E+02 -0.17284636891E+03  0.20897623714E+03  0.91403058122E+02 0.  0.
        -11    1    3    3    0    0  0.38878064355E+02  0.16552451646E+01 -0.25802364153E+02  0.46690531379E+02  0.00000000000E+00 0. -1.
         11    1    3    3    0    0 -0.34085019171E+02  0.95597245485E-01  0.35373313071E+02  0.49122998161E+02  0.00000000000E+00 0.  1.
        -11    1    4    4    0    0 -0.22537125803E+02  0.35970233428E+01 -0.30111753441E+02  0.37783307315E+02  0.00000000000E+00 0.  1.
         11    1    4    4    0    0  0.81381099475E+02 -0.48072501691E+02 -0.14273461547E+03  0.17119292983E+03  0.00000000000E+00 0. -1.
         21    1    1    2  502  501 -0.63637018856E+02  0.42724635938E+02  0.78585132420E+02  0.10977562445E+03  0.00000000000E+00 0.  1.
<scales pt_clust_5="13000.00000" pt_clust_6="13000.00000" pt_clust_7="13000.00000" pt_clust_8="13000.00000" pt_clust_9="76.64897"></scales>
<clustering>
<clus scale="   76.649">  1  9  2 -1</clus>
<clus scale="   91.403">  7  8 -1 -1</clus>
<clus scale="   95.198">  5  6 -1 -1</clus>
<clus scale="  106.282">  2  7  1 -1</clus>
<clus scale="  106.282">  2  5  1 -1</clus>
</clustering>
</event>
<event>
 9    1  0.1484717E-005  0.2066053E+03  0.7546771E-02  0.1144587E+00
          1   -1    0    0  502    0  0.00000000000E+00  0.00000000000E+00  0.23408429512E+03  0.23408429512E+03  0.00000000000E+00 0. -1.
         -1   -1    0    0    0  501 -0.00000000000E+00 -0.00000000000E+00 -0.37166116911E+03  0.37166116911E+03  0.00000000000E+00 0.  1.
         23    2    1    2    0    0 -0.12992724268E+03  0.13671695638E+03 -0.27490067630E+03  0.34650926003E+03  0.94475768880E+02 0.  0.
         23    2    1    2    0    0  0.12464823338E+03 -0.10430350513E+03  0.10910610335E+03  0.21593795603E+03  0.91151828265E+02 0.  0.
        -11    1    4    4    0    0  0.30358005744E+02  0.13044812072E+02  0.62769235473E+01  0.33632951163E+02  0.00000000000E+00 0.  1.
         11    1    4    4    0    0  0.94290227636E+02 -0.11734831721E+03  0.10282917980E+03  0.18230500486E+03  0.00000000000E+00 0. -1.
        -13    1    3    3    0    0 -0.74587007137E+02  0.90114667578E+02 -0.88875982493E+02  0.14691090909E+03  0.00000000000E+00 0. -1.
         13    1    3    3    0    0 -0.55340235543E+02  0.46602288798E+02 -0.18602469380E+03  0.19959835094E+03  0.00000000000E+00 0.  1.
         21    1    1    2  502  501  0.52790093006E+01 -0.32413451241E+02  0.28217698957E+02  0.43298248174E+02  0.00000000000E+00 0.  1.
<scales pt_clust_5="13000.00000" pt_clust_6="13000.00000" pt_clust_7="13000.00000" pt_clust_8="13000.00000" pt_clust_9="32.84052"></scales>
<clustering>
<clus scale="   32.841">  1  9  2 -1</clus>
<clus scale="   91.152">  5  6 -1 -1</clus>
<clus scale="   94.476">  7  8 -1 -1</clus>
<clus scale="  205.107">  1  5  2 -1</clus>
<clus scale="   32.841">  1  5  2 -1</clus>
</clustering>
</event>
<event>
 9    1  0.1484717E-005  0.1475508E+03  0.7546771E-02  0.1204487E+00
          1   -1    0    0  502    0  0.00000000000E+00  0.00000000000E+00  0.22634515814E+03  0.22634515814E+03  0.00000000000E+00 0. -1.
         -1   -1    0    0    0  501 -0.00000000000E+00 -0.00000000000E+00 -0.11112443746E+03  0.11112443746E+03  0.00000000000E+00 0.  1.
         23    2    1    2    0    0  0.10868292453E+03 -0.20946959688E+02  0.33612709340E+02  0.14912255634E+03  0.94111473133E+02 0.  0.
         23    2    1    2    0    0 -0.11841994469E+03  0.18313654206E+01  0.70746568315E+02  0.16430153136E+03  0.89237206800E+02 0.  0.
        -13    1    3    3    0    0  0.78586493813E+02 -0.51072125011E+02  0.46509255240E+02  0.10462939255E+03  0.00000000000E+00 0. -1.
         13    1    3    3    0    0  0.30096430719E+02  0.30125165322E+02 -0.12896545900E+02  0.44493163788E+02  0.00000000000E+00 0.  1.
        -13    1    4    4    0    0 -0.12402888178E+03 -0.18520762170E+02  0.50944878088E+02  0.13535716734E+03  0.00000000000E+00 0.  1.
         13    1    4    4    0    0  0.56089370839E+01  0.20352127591E+02  0.19801690226E+02  0.28944364020E+02  0.00000000000E+00 0. -1.
         21    1    1    2  502  501  0.97370201601E+01  0.19115594268E+02  0.10861443024E+02  0.24045507904E+02  0.00000000000E+00 0.  1.
<scales pt_clust_5="13000.00000" pt_clust_6="13000.00000" pt_clust_7="13000.00000" pt_clust_8="13000.00000" pt_clust_9="21.45263"></scales>
<clustering>
<clus scale="   21.453">  1  9  2 -1</clus>
<clus scale="   89.237">  7  8 -1 -1</clus>
<clus scale="   94.111">  5  6 -1 -1</clus>
<clus scale="  144.491">  1  7  2 -1</clus>
<clus scale="   21.453">  1  5  2 -1</clus>
</clustering>
</event>
<event>
 9    1  0.1484717E-005  0.1235104E+03  0.7546771E-02  0.1237615E+00
         -1   -1    0    0    0  501 -0.00000000000E+00  0.00000000000E+00  0.20973211198E+02  0.20973211198E+02  0.00000000000E+00 0.  1.
          1   -1    0    0  502    0  0.00000000000E+00 -0.00000000000E+00 -0.92842249432E+03  0.92842249432E+03  0.00000000000E+00 0. -1.
         23    2    1    2    0    0  0.32855625402E+02  0.74146375083E+02 -0.35227658204E+03  0.37287245685E+03  0.91421560735E+02 0.  0.
         23    2    1    2    0    0 -0.73694444882E+01 -0.87840918732E+02 -0.45102699573E+03  0.46843340693E+03  0.90742328238E+02 0.  0.
        -11    1    3    3    0    0  0.36142915072E+02 -0.20582233473E+01 -0.19185674714E+03  0.19524230591E+03  0.00000000000E+00 0. -1.
         11    1    3    3    0    0 -0.32872896701E+01  0.76204598430E+02 -0.16041983490E+03  0.17763015095E+03  0.00000000000E+00 0.  1.
        -13    1    4    4    0    0 -0.44413296398E+02 -0.68628185523E+02 -0.24677096681E+03  0.25995822512E+03  0.00000000000E+00 0.  1.
         13    1    4    4    0    0  0.37043851910E+02 -0.19212733208E+02 -0.20425602891E+03  0.20847518181E+03  0.00000000000E+00 0. -1.
         21    1    1    2  502  501 -0.25486180913E+02  0.13694543649E+02 -0.10414570536E+03  0.10808984174E+03  0.00000000000E+00 0.  1.
<scales pt_clust_5="13000.00000" pt_clust_6="13000.00000" pt_clust_7="13000.00000" pt_clust_8="13000.00000" pt_clust_9="28.93244"></scales>
<clustering>
<clus scale="   28.932">  2  9  1 -1</clus>
<clus scale="   90.742">  7  8 -1 -1</clus>
<clus scale="   91.422">  5  6 -1 -1</clus>
<clus scale="  123.008">  2  7  1 -1</clus>
<clus scale="   28.932">  2  5  1 -1</clus>
</clustering>
</event>
<event>
 9    1  0.1484717E-005  0.1042738E+03  0.7546771E-02  0.1276251E+00
          1   -1    0    0  502    0  0.00000000000E+00  0.00000000000E+00  0.57582716427E+03  0.57582716427E+03  0.00000000000E+00 0. -1.
         -1   -1    0    0    0  501 -0.00000000000E+00 -0.00000000000E+00 -0.27910893197E+02  0.27910893197E+02  0.00000000000E+00 0.  1.
         23    2    1    2    0    0 -0.18147195598E+01  0.14434129747E+02  0.17784191965E+03  0.20521377859E+03  0.10135733436E+03 0.  0.
         23    2    1    2    0    0 -0.29205867974E+02 -0.16157003482E+02  0.34490155196E+03  0.35853784396E+03  0.92077540812E+02 0.  0.
        -11    1    3    3    0    0 -0.26363860284E+02  0.51041218441E+02  0.87188746553E+02  0.10441329721E+03  0.00000000000E+00 0. -1.
         11    1    3    3    0    0  0.24549140725E+02 -0.36607088694E+02  0.90653173095E+02  0.10080048137E+03  0.00000000000E+00 0.  1.
        -11    1    4    4    0    0 -0.54237746908E+02 -0.14045062979E+02  0.31278769201E+03  0.31776585289E+03  0.00000000000E+00 0. -1.
         11    1    4    4    0    0  0.25031878934E+02 -0.21119405036E+01  0.32113859943E+02  0.40771991074E+02  0.00000000000E+00 0.  1.
         21    1    1    2  502  501  0.31020587534E+02  0.17228737349E+01  0.25172799464E+02  0.39986434921E+02  0.00000000000E+00 0. -1.
<scales pt_clust_5="13000.00000" pt_clust_6="13000.00000" pt_clust_7="13000.00000" pt_clust_8="13000.00000" pt_clust_9="31.06839"></scales>
<clustering>
<clus scale="   31.068">  2  9  1 -1</clus>
<clus scale="   92.078">  7  8 -1 -1</clus>
<clus scale="   95.279">  1  7  2 -1</clus>
<clus scale="  101.357">  5  6 -1 -1</clus>
<clus scale="   95.279">  1  5  2 -1</clus>
</clustering>
</event>
<event>
 9    1  0.1484717E-005  0.1245399E+03  0.7546771E-02  0.1238120E+00
         -2   -1    0    0    0  501 -0.00000000000E+00  0.00000000000E+00  0.35368573042E+02  0.35368573042E+02  0.00000000000E+00 0.  1.
          2   -1    0    0  502    0  0.00000000000E+00 -0.00000000000E+00 -0.82821576565E+03  0.82821576565E+03  0.00000000000E+00 0. -1.
         23    2    1    2    0    0 -0.48739447045E+02  0.69307150614E+02 -0.19043052212E+03  0.22683050600E+03  0.89494580132E+02 0.  0.
         23    2    1    2    0    0  0.31691500366E+02 -0.81914854076E+02 -0.60376573790E+03  0.61550749994E+03  0.81252825855E+02 0.  0.
        -11    1    3    3    0    0 -0.23874864651E+02  0.62732449405E+02 -0.18956408930E+03  0.20109677601E+03  0.00000000000E+00 0.  1.
         11    1    3    3    0    0 -0.24864582394E+02  0.65747012097E+01 -0.86643282778E+00  0.25733729995E+02  0.00000000000E+00 0. -1.
        -13    1    4    4    0    0  0.18596449838E+02 -0.97307821841E+02 -0.51848508292E+03  0.52786496507E+03  0.00000000000E+00 0. -1.
         13    1    4    4    0    0  0.13095050528E+02  0.15392967765E+02 -0.85280654971E+02  0.87642534863E+02  0.00000000000E+00 0.  1.
         21    1    1    2  502  501  0.17047946679E+02  0.12607703462E+02  0.13490674103E+01  0.21246332752E+02  0.00000000000E+00 0.  1.
<scales pt_clust_5="13000.00000" pt_clust_6="13000.00000" pt_clust_7="13000.00000" pt_clust_8="13000.00000" pt_clust_9="21.20346"></scales>
<clustering>
<clus scale="   21.203">  1  9  2 -1</clus>
<clus scale="   81.253">  7  8 -1 -1</clus>
<clus scale="   89.495">  5  6 -1 -1</clus>
<clus scale="  118.756">  2  7  1 -1</clus>
<clus scale="  118.756">  2  5  1 -1</clus>
</clustering>
</event>
<event>
 9    1  0.1484717E-005  0.1953108E+03  0.7546771E-02  0.1184881E+00
          1   -1    0    0  502    0  0.00000000000E+00  0.00000000000E+00  0.37433119867E+03  0.37433119867E+03  0.00000000000E+00 0. -1.
         -1   -1    0    0    0  501 -0.00000000000E+00 -0.00000000000E+00 -0.15220429507E+03  0.15220429507E+03  0.00000000000E+00 0.  1.
         23    2    1    2    0    0 -0.32111142367E+02  0.94301889900E+01  0.46085482698E+01  0.95856280768E+02  0.89705818747E+02 0.  0.
         23    2    1    2    0    0  0.12211600013E+03  0.13157157223E+03  0.14706129926E+03  0.24916731848E+03  0.90741009202E+02 0.  0.
        -13    1    4    4    0    0  0.97367209205E+02  0.11794719829E+03  0.15703488518E+03  0.21920736798E+03  0.00000000000E+00 0. -1.
         13    1    4    4    0    0  0.24748790930E+02  0.13624373946E+02 -0.99735859244E+01  0.29959950502E+02  0.00000000000E+00 0.  1.
        -13    1    3    3    0    0 -0.23198073145E+02 -0.33361582548E+02 -0.20431585628E+02  0.45481814817E+02  0.00000000000E+00 0.  1.
         13    1    3    3    0    0 -0.89130692217E+01  0.42791771538E+02  0.25040133897E+02  0.50374465951E+02  0.00000000000E+00 0. -1.
         21    1    1    2  502  501 -0.90004857767E+02 -0.14100176122E+03  0.70457056077E+02  0.18151189449E+03  0.00000000000E+00 0.  1.
<scales pt_clust_5="13000.00000" pt_clust_6="13000.00000" pt_clust_7="13000.00000" pt_clust_8="13000.00000" pt_clust_9="172.95198"></scales>
<clustering>
<clus scale="   89.706">  7  8 -1 -1</clus>
<clus scale="   90.741">  5  6 -1 -1</clus>
<clus scale="   95.745">  2  7  1 -1</clus>
<clus scale="  172.952">  2  9  1 -1</clus>
<clus scale="  195.311">  1  5  2 -1</clus>
</clustering>
</event>
<event>
 9    1  0.1484717E-005  0.9910576E+02  0.7546771E-02  0.1282758E+00
         -2   -1    0    0    0  501 -0.00000000000E+00  0.00000000000E+00  0.30141802142E+02  0.30141802142E+02  0.00000000000E+00 0.  1.
          2   -1    0    0  502    0  0.00000000000E+00 -0.00000000000E+00 -0.50997780927E+03  0.50997780927E+03  0.00000000000E+00 0. -1.
         23    2    1    2    0    0  0.11747869947E+02  0.16110696820E+02 -0.17286672006E+03  0.19672525222E+03  0.91762492103E+02 0.  0.
         23    2    1    2    0    0 -0.26835068668E+02 -0.42977906992E+02 -0.29042135416E+03  0.30841858714E+03  0.90610377640E+02 0.  0.
        -11    1    4    4    0    0 -0.54611777745E+02 -0.35645588428E+02 -0.25283688869E+03  0.26111213401E+03  0.00000000000E+00 0. -1.
         11    1    4    4    0    0  0.27776709077E+02 -0.73323185635E+01 -0.37584465474E+02  0.47306453129E+02  0.00000000000E+00 0.  1.
        -13    1    3    3    0    0  0.16170693350E+02 -0.29859600893E+02 -0.12766194334E+03  0.13210094196E+03  0.00000000000E+00 0. -1.
         13    1    3    3    0    0 -0.44228234034E+01  0.45970297713E+02 -0.45204776718E+02  0.64624310262E+02  0.00000000000E+00 0.  1.
         21    1    1    2  502  501  0.15087198721E+02  0.26867210172E+02 -0.16547932908E+02  0.34975772060E+02  0.00000000000E+00 0.  1.
<scales pt_clust_5="13000.00000" pt_clust_6="13000.00000" pt_clust_7="13000.00000" pt_clust_8="13000.00000" pt_clust_9="30.81348"></scales>
<clustering>
<clus scale="   30.813">  1  9  2 -1</clus>
<clus scale="   90.610">  5  6 -1 -1</clus>
<clus scale="   91.762">  7  8 -1 -1</clus>
<clus scale="   98.040">  2  5  1 -1</clus>
<clus scale="   98.040">  2  5  1 -1</clus>
</clustering>
</event>
<event>
 9    1  0.1484717E-005  0.2090115E+03  0.7546771E-02  0.1142477E+00
          1   -1    0    0  502    0  0.00000000000E+00  0.00000000000E+00  0.10658195914E+04  0.10658195914E+04  0.00000000000E+00 0. -1.
         -1   -1    0    0    0  501 -0.00000000000E+00 -0.00000000000E+00 -0.51171101107E+02  0.51171101107E+02  0.00000000000E+00 0.  1.
         23    2    1    2    0    0 -0.18689548103E+03 -0.70328583499E+01  0.30801078669E+03  0.37209062337E+03  0.92743761793E+02 0.  0.
         23    2    1    2    0    0  0.18603459378E+03 -0.18509672379E+02  0.60887545253E+03  0.64385245791E+03  0.94155152808E+02 0.  0.
        -11    1    4    4    0    0  0.23810842496E+02  0.11011256653E+02  0.21949823048E+02  0.34205244119E+02  0.00000000000E+00 0.  1.
         11    1    4    4    0    0  0.16222375128E+03 -0.29520929032E+02  0.58692562949E+03  0.60964721379E+03  0.00000000000E+00 0. -1.
        -13    1    3    3    0    0 -0.39097817135E+02 -0.40777085429E+02  0.70841313128E+02  0.90608507584E+02  0.00000000000E+00 0. -1.
         13    1    3    3    0    0 -0.14779766390E+03  0.33744227079E+02  0.23716947357E+03  0.28148211578E+03  0.00000000000E+00 0.  1.
         21    1    1    2  502  501  0.86088725306E+00  0.25542530729E+02  0.97762251116E+02  0.10104761128E+03  0.00000000000E+00 0. -1.
<scales pt_clust_5="13000.00000" pt_clust_6="13000.00000" pt_clust_7="13000.00000" pt_clust_8="13000.00000" pt_clust_9="25.55703"></scales>
<clustering>
<clus scale="   25.557">  1  9  2 -1</clus>
<clus scale="   92.744">  7  8 -1 -1</clus>
<clus scale="   94.155">  5  6 -1 -1</clus>
<clus scale="  208.379">  2  7  1 -1</clus>
<clus scale="   25.557">  1  5  2 -1</clus>
</clustering>
</event>
<event>
 9    1  0.1484717E-005  0.9369866E+02  0.7546771E-02  0.1295520E+00
          1   -1    0    0  502    0  0.00000000000E+00  0.00000000000E+00  0.14071072213E+03  0.14071072213E+03  0.00000000000E+00 0. -1.
         -1   -1    0    0    0  501 -0.00000000000E+00 -0.00000000000E+00 -0.11156013148E+03  0.11156013148E+03  0.00000000000E+00 0.  1.
         23    2    1    2    0    0 -0.16673266053E+02  0.30531272041E+01  0.53487268390E+01  0.95222679635E+02  0.93549080442E+02 0.  0.
         23    2    1    2    0    0 -0.16208362791E+01  0.53455330911E+01  0.64385714446E+02  0.11174629094E+03  0.91162006776E+02 0.  0.
        -11    1    3    3    0    0 -0.41194445848E+02  0.32719297701E+02  0.16529386914E+02  0.55143045278E+02  0.00000000000E+00 0.  1.
         11    1    3    3    0    0  0.24521179795E+02 -0.29666170497E+02 -0.11180660075E+02  0.40079634357E+02  0.00000000000E+00 0. -1.
        -13    1    4    4    0    0 -0.32548980291E+02  0.60255140887E-01 -0.74205197281E+01  0.33384185803E+02  0.00000000000E+00 0.  1.
         13    1    4    4    0    0  0.30928144012E+02  0.52852779502E+01  0.71806234174E+02  0.78362105136E+02  0.00000000000E+00 0. -1.
         21    1    1    2  502  501  0.18294102332E+02 -0.83986602953E+01 -0.40583850628E+02  0.45301883037E+02  0.00000000000E+00 0.  1.
<scales pt_clust_5="13000.00000" pt_clust_6="13000.00000" pt_clust_7="13000.00000" pt_clust_8="13000.00000" pt_clust_9="20.12987"></scales>
<clustering>
<clus scale="   20.130">  2  9  1 -1</clus>
<clus scale="   91.162">  7  8 -1 -1</clus>
<clus scale="   91.315">  1  7  2 -1</clus>
<clus scale="   93.549">  5  6 -1 -1</clus>
<clus scale="   91.315">  1  5  2 -1</clus>
</clustering>
</event>
<event>
 9    1  0.1484717E-005  0.1074893E+03  0.7546771E-02  0.1265435E+00
         -1   -1    0    0    0  501 -0.00000000000E+00  0.00000000000E+00  0.50541414577E+02  0.50541414577E+02  0.00000000000E+00 0.  1.
          1   -1    0    0  502    0  0.00000000000E+00 -0.00000000000E+00 -0.32456286183E+03  0.32456286183E+03  0.00000000000E+00 0. -1.
         23    2    1    2    0    0 -0.68229343296E+02  0.12480508415E+02 -0.10415255283E+03  0.15520246528E+03  0.91809828408E+02 0.  0.
         23    2    1    2    0    0  0.48228003503E+02  0.99061673254E+01 -0.15451996925E+03  0.18618525216E+03  0.91457393092E+02 0.  0.
        -13    1    4    4    0    0 -0.56011497546E+01 -0.33670051450E+02 -0.42854069116E+02  0.54786097534E+02  0.00000000000E+00 0.  1.
         13    1    4    4    0    0  0.53829153258E+02  0.43576218775E+02 -0.11166590014E+03  0.13139915463E+03  0.00000000000E+00 0. -1.
        -13    1    3    3    0    0 -0.51706546043E+02 -0.29184974123E+02 -0.25381761696E+02  0.64572156887E+02  0.00000000000E+00 0.  1.
         13    1    3    3    0    0 -0.16522797253E+02  0.41665482538E+02 -0.78770791136E+02  0.90630308398E+02  0.00000000000E+00 0. -1.
         21    1    1    2  502  501  0.20001339793E+02 -0.22386675740E+02 -0.15348925165E+02  0.33716558958E+02  0.00000000000E+00 0.  1.
<scales pt_clust_5="13000.00000" pt_clust_6="13000.00000" pt_clust_7="13000.00000" pt_clust_8="13000.00000" pt_clust_9="30.02027"></scales>
<clustering>
<clus scale="   30.020">  1  9  2 -1</clus>
<clus scale="   91.457">  5  6 -1 -1</clus>
<clus scale="   91.810">  7  8 -1 -1</clus>
<clus scale="  107.188">  2  5  1 -1</clus>
<clus scale="  107.188">  2  5  1 -1</clus>
</clustering>
</event>
<event>
 9    1  0.1484717E-005  0.1168166E+03  0.7546771E-02  0.1249032E+00
         -1   -1    0    0    0  501 -0.00000000000E+00  0.00000000000E+00  0.49882900683E+02  0.49882900683E+02  0.00000000000E+00 0.  1.
          1   -1    0    0  502    0  0.00000000000E+00 -0.00000000000E+00 -0.35778804038E+03  0.35778804038E+03  0.00000000000E+00 0. -1.
         23    2    1    2    0    0  0.79320582851E+02  0.32911391251E+02 -0.12744901220E+03  0.17933809530E+03  0.92433690697E+02 0.  0.
         23    2    1    2    0    0 -0.55850511144E+02 -0.27825782187E+02 -0.16907800489E+03  0.20175899848E+03  0.90696019663E+02 0.  0.
        -11    1    3    3    0    0  0.62266448563E+02  0.56100328032E+02 -0.12493576883E+03  0.15044368965E+03  0.00000000000E+00 0. -1.
         11    1    3    3    0    0  0.17054134288E+02 -0.23188936780E+02 -0.25132433656E+01  0.28894405644E+02  0.00000000000E+00 0.  1.
        -11    1    4    4    0    0 -0.63412592068E+02  0.15533874475E+02 -0.11256617409E+03  0.13012917289E+03  0.00000000000E+00 0.  1.
         11    1    4    4    0    0  0.75620809240E+01 -0.43359656662E+02 -0.56511830797E+02  0.71629825588E+02  0.00000000000E+00 0. -1.
         21    1    1    2  502  501 -0.23470071708E+02 -0.50856090644E+01 -0.11378122614E+02  0.26573847289E+02  0.00000000000E+00 0.  1.
<scales pt_clust_5="13000.00000" pt_clust_6="13000.00000" pt_clust_7="13000.00000" pt_clust_8="13000.00000" pt_clust_9="24.01474"></scales>
<clustering>
<clus scale="   24.015">  1  9  2 -1</clus>
<clus scale="   90.696">  7  8 -1 -1</clus>
<clus scale="   92.434">  5  6 -1 -1</clus>
<clus scale="  115.447">  2  7  1 -1</clus>
<clus scale="  115.447">  2  5  1 -1</clus>
</clustering>
</event>
<event>
 9    1  0.1484717E-005  0.1849586E+03  0.7546771E-02  0.1163092E+00
          2   -1    0    0  502    0  0.00000000000E+00  0.00000000000E+00  0.99187160144E+03  0.99187160144E+03  0.00000000000E+00 0. -1.
         -2   -1    0    0    0  501 -0.00000000000E+00 -0.00000000000E+00 -0.29459995340E+03  0.29459995340E+03  0.00000000000E+00 0.  1.
         23    2    1    2    0    0 -0.15494013395E+03 -0.98869580130E+01 -0.24325503425E+03  0.30269656434E+03  0.91367397535E+02 0.  0.
         23    2    1    2    0    0  0.15913958491E+03 -0.25098629056E+02  0.92811300308E+03  0.94641557237E+03  0.91396610839E+02 0.  0.
        -11    1    3    3    0    0 -0.91125573694E+02 -0.18334829930E+02 -0.21127610248E+03  0.23081946982E+03  0.00000000000E+00 0.  1.
         11    1    3    3    0    0 -0.63814560251E+02  0.84478719170E+01 -0.31978931771E+02  0.71877094523E+02  0.00000000000E+00 0. -1.
        -13    1    4    4    0    0  0.45538040105E+02 -0.51332019447E+02  0.33806745864E+03  0.34496129624E+03  0.00000000000E+00 0.  1.
         13    1    4    4    0    0  0.11360154480E+03  0.26233390391E+02  0.59004554444E+03  0.60145427613E+03  0.00000000000E+00 0. -1.
         21    1    1    2  502  501 -0.41994509634E+01  0.34985587069E+02  0.12413679216E+02  0.37359418125E+02  0.00000000000E+00 0. -1.
<scales pt_clust_5="13000.00000" pt_clust_6="13000.00000" pt_clust_7="13000.00000" pt_clust_8="13000.00000" pt_clust_9="35.23672"></scales>
<clustering>
<clus scale="   35.237">  2  9  1 -1</clus>
<clus scale="   91.367">  5  6 -1 -1</clus>
<clus scale="   91.397">  7  8 -1 -1</clus>
<clus scale="  184.944">  2  5  1 -1</clus>
<clus scale="  184.959">  1  5  2 -1</clus>
</clustering>
</event>
<event>
 9    1  0.1484717E-005  0.1056461E+03  0.7546771E-02  0.1270180E+00
         -1   -1    0    0    0  501 -0.00000000000E+00  0.00000000000E+00  0.31816586499E+03  0.31816586499E+03  0.00000000000E+00 0.  1.
          1   -1    0    0  502    0  0.00000000000E+00 -0.00000000000E+00 -0.46615833096E+02  0.46615833096E+02  0.00000000000E+00 0. -1.
         23    2    1    2    0    0 -0.63919949374E+02  0.68757939362E+01  0.16339565482E+03  0.19806858871E+03  0.91651455792E+02 0.  0.
         23    2    1    2    0    0  0.44292257906E+02 -0.15518310470E+02  0.67744679968E+02  0.12096507134E+03  0.88547076457E+02 0.  0.
        -13    1    4    4    0    0  0.41451957805E+02  0.16930431946E+02 -0.11149427595E+01  0.44790037163E+02  0.00000000000E+00 0. -1.
         13    1    4    4    0    0  0.28403001011E+01 -0.32448742416E+02  0.68859622727E+02  0.76175034172E+02  0.00000000000E+00 0.  1.
        -13    1    3    3    0    0 -0.23101050542E+02 -0.34198545918E+02  0.11637109279E+03  0.12347238686E+03  0.00000000000E+00 0.  1.
         13    1    3    3    0    0 -0.40818898833E+02  0.41074339854E+02  0.47024562023E+02  0.74596201846E+02  0.00000000000E+00 0. -1.
         21    1    1    2  502  501  0.19627691469E+02  0.86425165335E+01  0.40409697114E+02  0.45748038049E+02  0.00000000000E+00 0.  1.
<scales pt_clust_5="13000.00000" pt_clust_6="13000.00000" pt_clust_7="13000.00000" pt_clust_8="13000.00000" pt_clust_9="21.44620"></scales>
<clustering>
<clus scale="   21.446">  1  9  2 -1</clus>
<clus scale="   88.547">  5  6 -1 -1</clus>
<clus scale="   91.651">  7  8 -1 -1</clus>
<clus scale="  102.965">  2  5  1 -1</clus>
<clus scale="  102.965">  2  5  1 -1</clus>
</clustering>
</event>
<event>
 9    1  0.1484717E-005  0.3005426E+03  0.7546771E-02  0.1085171E+00
          1   -1    0    0  502    0  0.00000000000E+00  0.00000000000E+00  0.22937882566E+04  0.22937882566E+04  0.00000000000E+00 0. -1.
         -1   -1    0    0    0  501 -0.00000000000E+00 -0.00000000000E+00 -0.76675217963E+02  0.76675217963E+02  0.00000000000E+00 0.  1.
         23    2    1    2    0    0 -0.14398632937E+03  0.24214858008E+03  0.31022907543E+03  0.42874533102E+03  0.90622744126E+02 0.  0.
         23    2    1    2    0    0  0.19183926095E+03 -0.23252428039E+03  0.15982179027E+04  0.16292165162E+04  0.95792217889E+02 0.  0.
        -11    1    3    3    0    0 -0.13522926593E+02  0.87908770754E+02  0.60651991979E+02  0.10765447343E+03  0.00000000000E+00 0.  1.
         11    1    3    3    0    0 -0.13046340277E+03  0.15423980932E+03  0.24957708345E+03  0.32109085759E+03  0.00000000000E+00 0. -1.
        -13    1    4    4    0    0  0.16314023962E+03 -0.13286612825E+03  0.97665574322E+03  0.99906185323E+03  0.00000000000E+00 0.  1.
         13    1    4    4    0    0  0.28699021332E+02 -0.99658152145E+02  0.62156215948E+03  0.63015466293E+03  0.00000000000E+00 0. -1.
         21    1    1    2  502  501 -0.47852931587E+02 -0.96242996842E+01  0.30866606052E+03  0.31250162739E+03  0.00000000000E+00 0. -1.
<scales pt_clust_5="13000.00000" pt_clust_6="13000.00000" pt_clust_7="13000.00000" pt_clust_8="13000.00000" pt_clust_9="48.81117"></scales>
<clustering>
<clus scale="   48.811">  1  9  2 -1</clus>
<clus scale="   90.623">  5  6 -1 -1</clus>
<clus scale="   95.792">  7  8 -1 -1</clus>
<clus scale="  298.935">  2  5  1 -1</clus>
<clus scale="   48.811">  1  5  2 -1</clus>
</clustering>
</event>
<event>
 9    1  0.1484717E-005  0.1278804E+03  0.7546771E-02  0.1235401E+00
         -2   -1    0    0    0  501 -0.00000000000E+00  0.00000000000E+00  0.93970933382E+02  0.93970933382E+02  0.00000000000E+00 0. -1.
          2   -1    0    0  502    0  0.00000000000E+00 -0.00000000000E+00 -0.21646064550E+03  0.21646064550E+03  0.00000000000E+00 0.  1.
         23    2    1    2    0    0  0.40846294743E+02  0.54693024393E+02 -0.55734968497E+02  0.12647407753E+03  0.90716916073E+02 0.  0.
         23    2    1    2    0    0 -0.61884847205E+02 -0.46916905353E+02 -0.84017864288E+02  0.15565371976E+03  0.10553742765E+03 0.  0.
        -11    1    4    4    0    0 -0.30908871634E+02  0.28010542701E+02 -0.42731186319E+01  0.41930995587E+02  0.00000000000E+00 0.  1.
         11    1    4    4    0    0 -0.30975975572E+02 -0.74927448055E+02 -0.79744745656E+02  0.11372272418E+03  0.00000000000E+00 0. -1.
        -13    1    3    3    0    0 -0.24558593537E+02  0.30922256073E+02 -0.37676425679E+02  0.54578599186E+02  0.00000000000E+00 0.  1.
         13    1    3    3    0    0  0.65404888279E+02  0.23770768320E+02 -0.18058542818E+02  0.71895478342E+02  0.00000000000E+00 0. -1.
         21    1    1    2  502  501  0.21038552463E+02 -0.77761190396E+01  0.17263120667E+02  0.28303781589E+02  0.00000000000E+00 0. -1.
<scales pt_clust_5="13000.00000" pt_clust_6="13000.00000" pt_clust_7="13000.00000" pt_clust_8="13000.00000" pt_clust_9="22.42964"></scales>
<clustering>
<clus scale="   22.430">  1  9  2 -1</clus>
<clus scale="   90.717">  7  8 -1 -1</clus>
<clus scale="  105.537">  5  6 -1 -1</clus>
<clus scale="  115.952">  1  7  2 -1</clus>
<clus scale="  127.880">  2  5  1 -1</clus>
</clustering>
</event>
<event>
 9    1  0.1484717E-005  0.4075571E+03  0.7546771E-02  0.1041205E+00
         -2   -1    0    0    0  501 -0.00000000000E+00  0.00000000000E+00  0.14574394044E+03  0.14574394044E+03  0.00000000000E+00 0.  1.
          2   -1    0    0  502    0  0.00000000000E+00 -0.00000000000E+00 -0.15198335864E+04  0.15198335864E+04  0.00000000000E+00 0. -1.
         23    2    1    2    0    0  0.20911270789E+03 -0.32380008211E+03 -0.27913195073E+03  0.48490426419E+03  0.92967100319E+02 0.  0.
         23    2    1    2    0    0 -0.23204804905E+03  0.32697919490E+03 -0.10707398707E+04  0.11471674474E+04  0.93528554839E+02 0.  0.
        -11    1    4    4    0    0 -0.55178205752E+02  0.15140878711E+03 -0.37588288936E+03  0.40897090572E+03  0.00000000000E+00 0.  1.
         11    1    4    4    0    0 -0.17686984330E+03  0.17557040779E+03 -0.69485698137E+03  0.73819654166E+03  0.00000000000E+00 0. -1.
        -13    1    3    3    0    0  0.17677352501E+03 -0.23665853701E+03 -0.16726403770E+03  0.33946045512E+03  0.00000000000E+00 0.  1.
         13    1    3    3    0    0  0.32339182877E+02 -0.87141545092E+02 -0.11186791303E+03  0.14544380907E+03  0.00000000000E+00 0. -1.
         21    1    1    2  502  501  0.22935341168E+02 -0.31791127987E+01 -0.24217824471E+02  0.33505815238E+02  0.00000000000E+00 0.  1.
<scales pt_clust_5="13000.00000" pt_clust_6="13000.00000" pt_clust_7="13000.00000" pt_clust_8="13000.00000" pt_clust_9="23.15462"></scales>
<clustering>
<clus scale="   23.155">  1  9  2 -1</clus>
<clus scale="   92.967">  7  8 -1 -1</clus>
<clus scale="   93.529">  5  6 -1 -1</clus>
<clus scale="  407.429">  1  7  2 -1</clus>
<clus scale="  407.557">  2  5  1 -1</clus>
</clustering>
</event>
<event>
 9    1  0.1484717E-005  0.1434960E+03  0.7546771E-02  0.1208810E+00
         -2   -1    0    0    0  501 -0.00000000000E+00  0.00000000000E+00  0.60872936067E+02  0.60872936067E+02  0.00000000000E+00 0.  1.
          2   -1    0    0  502    0  0.00000000000E+00 -0.00000000000E+00 -0.50018111942E+03  0.50018111942E+03  0.00000000000E+00 0. -1.
         23    2    1    2    0    0 -0.20759297117E+02 -0.82471522110E+02 -0.97808992014E+02  0.15839717691E+03  0.91052547236E+02 0.  0.
         23    2    1    2    0    0  0.19602502229E+02  0.12408568888E+03 -0.32008720100E+03  0.35584288088E+03  0.91579601155E+02 0.  0.
        -11    1    4    4    0    0  0.11956102817E+02  0.20805693132E+02 -0.54601536005E+01  0.24609724473E+02  0.00000000000E+00 0.  1.
         11    1    4    4    0    0  0.76463994115E+01  0.10327999575E+03 -0.31462704740E+03  0.33123315640E+03  0.00000000000E+00 0. -1.
        -11    1    3    3    0    0 -0.29681131746E+02 -0.23078937648E+02 -0.90370051231E+02  0.97879278216E+02  0.00000000000E+00 0. -1.
         11    1    3    3    0    0  0.89218346290E+01 -0.59392584462E+02 -0.74389407831E+01  0.60517898693E+02  0.00000000000E+00 0.  1.
         21    1    1    2  502  501  0.11567948876E+01 -0.41614166770E+02 -0.21411990338E+02  0.46813997699E+02  0.00000000000E+00 0.  1.
<scales pt_clust_5="13000.00000" pt_clust_6="13000.00000" pt_clust_7="13000.00000" pt_clust_8="13000.00000" pt_clust_9="41.63024"></scales>
<clustering>
<clus scale="   41.630">  1  9  2 -1</clus>
<clus scale="   91.053">  7  8 -1 -1</clus>
<clus scale="   91.580">  5  6 -1 -1</clus>
<clus scale="  143.160">  1  7  2 -1</clus>
<clus scale="  143.496">  2  5  1 -1</clus>
</clustering>
</event>
<event>
 9    1  0.1484717E-005  0.1364088E+03  0.7546771E-02  0.1218528E+00
         -1   -1    0    0    0  501 -0.00000000000E+00  0.00000000000E+00  0.60382181666E+02  0.60382181666E+02  0.00000000000E+00 0.  1.
          1   -1    0    0  502    0  0.00000000000E+00 -0.00000000000E+00 -0.65030107253E+03  0.65030107253E+03  0.00000000000E+00 0. -1.
         23    2    1    2    0    0  0.23687044264E+02 -0.12552276626E+03 -0.32207237892E+03  0.35813783897E+03  0.90636932425E+02 0.  0.
         23    2    1    2    0    0 -0.23217611219E+02  0.78366458178E+02 -0.27829435734E+03  0.30424329071E+03  0.91846999840E+02 0.  0.
        -11    1    4    4    0    0 -0.55802882159E+01  0.96137413592E+02 -0.23874418676E+03  0.25743412482E+03  0.00000000000E+00 0.  1.
         11    1    4    4    0    0 -0.17637323003E+02 -0.17770955414E+02 -0.39550170575E+02  0.46809165893E+02  0.00000000000E+00 0. -1.
        -11    1    3    3    0    0  0.45942120745E+02 -0.32742449166E+02 -0.16477377461E+03  0.17416412729E+03  0.00000000000E+00 0. -1.
         11    1    3    3    0    0 -0.22255076481E+02 -0.92780317089E+02 -0.15729860432E+03  0.18397371168E+03  0.00000000000E+00 0.  1.
         21    1    1    2  502  501 -0.46943304499E+00  0.47156308078E+02  0.10447845402E+02  0.48302124513E+02  0.00000000000E+00 0.  1.
<scales pt_clust_5="13000.00000" pt_clust_6="13000.00000" pt_clust_7="13000.00000" pt_clust_8="13000.00000" pt_clust_9="47.15864"></scales>
<clustering>
<clus scale="   47.159">  1  9  2 -1</clus>
<clus scale="   90.637">  7  8 -1 -1</clus>
<clus scale="   91.847">  5  6 -1 -1</clus>
<clus scale="  135.597">  1  7  2 -1</clus>
<clus scale="  136.409">  2  5  1 -1</clus>
</clustering>
</event>
<event>
 9    1  0.1484717E-005  0.9436740E+02  0.7546771E-02  0.1293321E+00
          1   -1    0    0  502    0  0.00000000000E+00  0.00000000000E+00  0.64871178781E+02  0.64871178781E+02  0.00000000000E+00 0. -1.
         -1   -1    0    0    0  501 -0.00000000000E+00 -0.00000000000E+00 -0.56274246531E+03  0.56274246531E+03  0.00000000000E+00 0.  1.
         23    2    1    2    0    0  0.10271251047E+02 -0.92107652407E+01 -0.31631337985E+03  0.32977550707E+03  0.92235535435E+02 0.  0.
         23    2    1    2    0    0  0.36827771188E+01 -0.23333533918E+02  0.17554095167E+02  0.95602048280E+02  0.90959269597E+02 0.  0.
        -11    1    3    3    0    0  0.34583504844E+02 -0.39914314281E+02 -0.20797129850E+03  0.21457220764E+03  0.00000000000E+00 0.  1.
         11    1    3    3    0    0 -0.24312253796E+02  0.30703549041E+02 -0.10834208135E+03  0.11520329943E+03  0.00000000000E+00 0. -1.
        -11    1    4    4    0    0  0.46646505715E+02 -0.38727033921E+01  0.83078828711E+01  0.47538565868E+02  0.00000000000E+00 0.  1.
         11    1    4    4    0    0 -0.42963728597E+02 -0.19460830526E+02  0.92462122958E+01  0.48063482411E+02  0.00000000000E+00 0. -1.
         21    1    1    2  502  501 -0.13954028166E+02  0.32544299159E+02 -0.19911200184E+03  0.20223608873E+03  0.00000000000E+00 0.  1.
<scales pt_clust_5="13000.00000" pt_clust_6="13000.00000" pt_clust_7="13000.00000" pt_clust_8="13000.00000" pt_clust_9="35.40969"></scales>
<clustering>
<clus scale="   35.410">  2  9  1 -1</clus>
<clus scale="   90.959">  7  8 -1 -1</clus>
<clus scale="   92.236">  5  6 -1 -1</clus>
<clus scale="   93.120">  1  7  2 -1</clus>
<clus scale="   93.120">  1  5  2 -1</clus>
</clustering>
</event>
<event>
 9    1  0.1484717E-005  0.9516041E+02  0.7546771E-02  0.1290920E+00
         -2   -1    0    0    0  501 -0.00000000000E+00  0.00000000000E+00  0.61978110582E+02  0.61978110582E+02  0.00000000000E+00 0.  1.
          2   -1    0    0  502    0  0.00000000000E+00 -0.00000000000E+00 -0.42900959553E+03  0.42900959553E+03  0.00000000000E+00 0. -1.
         23    2    1    2    0    0  0.24769166751E+02  0.12002985308E+02 -0.51667265812E+01  0.94373730453E+02  0.90122819853E+02 0.  0.
         23    2    1    2    0    0  0.23350653134E+02 -0.27265028786E+02 -0.30718678042E+03  0.32219537375E+03  0.90318912794E+02 0.  0.
        -13    1    4    4    0    0 -0.60659861867E+01  0.28812841986E+02 -0.14751221342E+03  0.15042216977E+03  0.00000000000E+00 0.  1.
         13    1    4    4    0    0  0.29416639321E+02 -0.56077870772E+02 -0.15967456700E+03  0.17177320398E+03  0.00000000000E+00 0. -1.
        -13    1    3    3    0    0  0.51457919698E+02 -0.17460516223E+02 -0.45557758007E+00  0.54341463702E+02  0.00000000000E+00 0. -1.
         13    1    3    3    0    0 -0.26688752946E+02  0.29463501531E+02 -0.47111490012E+01  0.40032266751E+02  0.00000000000E+00 0.  1.
         21    1    1    2  502  501 -0.48119819886E+02  0.15262043477E+02 -0.54677977952E+02  0.74418601907E+02  0.00000000000E+00 0.  1.
<scales pt_clust_5="13000.00000" pt_clust_6="13000.00000" pt_clust_7="13000.00000" pt_clust_8="13000.00000" pt_clust_9="50.48215"></scales>
<clustering>
<clus scale="   50.482">  1  9  2 -1</clus>
<clus scale="   90.123">  7  8 -1 -1</clus>
<clus scale="   90.319">  5  6 -1 -1</clus>
<clus scale="   94.974">  1  7  2 -1</clus>
<clus scale="   95.160">  2  5  1 -1</clus>
</clustering>
</event>
<event>
 9    1  0.1484717E-005  0.1282032E+03  0.7546771E-02  0.1240630E+00
          1   -1    0    0  502    0  0.00000000000E+00  0.00000000000E+00  0.18561454959E+03  0.18561454959E+03  0.00000000000E+00 0. -1.
         -1   -1    0    0    0  501 -0.00000000000E+00 -0.00000000000E+00 -0.94851519621E+02  0.94851519621E+02  0.00000000000E+00 0.  1.
         23    2    1    2    0    0 -0.55237126269E+02  0.12149630219E+02  0.45265716795E+02  0.13844100570E+03  0.11797530805E+03 0.  0.
         23    2    1    2    0    0  0.46241267131E+02  0.15970787965E+02  0.45602264272E+02  0.11250059205E+03  0.90462676560E+02 0.  0.
        -11    1    4    4    0    0  0.19749157238E+02 -0.37917044470E+02  0.17347451040E+02  0.46137463416E+02  0.00000000000E+00 0.  1.
         11    1    4    4    0    0  0.26492109893E+02  0.53887832434E+02  0.28254813233E+02  0.66363128632E+02  0.00000000000E+00 0. -1.
        -13    1    3    3    0    0  0.33516227976E+02 -0.11191152362E+02 -0.16483125695E+01  0.35373667653E+02  0.00000000000E+00 0.  1.
         13    1    3    3    0    0 -0.88753354244E+02  0.23340782581E+02  0.46914029365E+02  0.10306733805E+03  0.00000000000E+00 0. -1.
         21    1    1    2  502  501  0.89958591380E+01 -0.28120418184E+02 -0.10495109581E+00  0.29524471463E+02  0.00000000000E+00 0.  1.
<scales pt_clust_5="13000.00000" pt_clust_6="13000.00000" pt_clust_7="13000.00000" pt_clust_8="13000.00000" pt_clust_9="29.52428"></scales>
<clustering>
<clus scale="   29.524">  2  9  1 -1</clus>
<clus scale="   90.463">  5  6 -1 -1</clus>
<clus scale="  103.447">  1  5  2 -1</clus>
<clus scale="  117.975">  7  8 -1 -1</clus>
<clus scale="  103.447">  1  5  2 -1</clus>
</clustering>
</event>
<event>
 9    1  0.1484717E-005  0.9319148E+02  0.7546771E-02  0.1297258E+00
         -2   -1    0    0    0  501 -0.00000000000E+00  0.00000000000E+00  0.23611379607E+03  0.23611379607E+03  0.00000000000E+00 0.  1.
          2   -1    0    0  502    0  0.00000000000E+00 -0.00000000000E+00 -0.49759823664E+02  0.49759823664E+02  0.00000000000E+00 0. -1.
         23    2    1    2    0    0 -0.18608631127E+02  0.10539447708E+02  0.92754636864E+02  0.13109242034E+03  0.90135669416E+02 0.  0.
         23    2    1    2    0    0  0.26729478594E+02  0.12968643773E+02  0.49522886903E+02  0.10417179460E+03  0.86698302844E+02 0.  0.
        -11    1    4    4    0    0  0.32263795389E+01 -0.21892679701E+02  0.57290833944E+02  0.61416110292E+02  0.00000000000E+00 0.  1.
         11    1    4    4    0    0  0.23503099055E+02  0.34861323474E+02 -0.77679470402E+01  0.42755684310E+02  0.00000000000E+00 0. -1.
        -13    1    3    3    0    0 -0.21773950640E+02 -0.19757736351E+02  0.96053046594E+02  0.10045228137E+03  0.00000000000E+00 0.  1.
         13    1    3    3    0    0  0.31653195130E+01  0.30297184059E+02 -0.32984097306E+01  0.30640138973E+02  0.00000000000E+00 0. -1.
         21    1    1    2  502  501 -0.81208474677E+01 -0.23508091481E+02  0.44076448640E+02  0.50609404792E+02  0.00000000000E+00 0.  1.
<scales pt_clust_5="13000.00000" pt_clust_6="13000.00000" pt_clust_7="13000.00000" pt_clust_8="13000.00000" pt_clust_9="24.87124"></scales>
<clustering>
<clus scale="   24.871">  1  9  2 -1</clus>
<clus scale="   86.698">  5  6 -1 -1</clus>
<clus scale="   89.871">  2  5  1 -1</clus>
<clus scale="   90.136">  7  8 -1 -1</clus>
<clus scale="   89.871">  2  5  1 -1</clus>
</clustering>
</event>
<event>
 9    1  0.1484717E-005  0.1163175E+03  0.7546771E-02  0.1250399E+00
          2   -1    0    0  502    0  0.00000000000E+00  0.00000000000E+00  0.10081707646E+04  0.10081707646E+04  0.00000000000E+00 0. -1.
         -2   -1    0    0    0  501 -0.00000000000E+00 -0.00000000000E+00 -0.32515378656E+02  0.32515378656E+02  0.00000000000E+00 0.  1.
         23    2    1    2    0    0  0.45248036963E+01  0.74320231252E+01  0.10551717398E+03  0.14114505316E+03  0.93339933627E+02 0.  0.
         23    2    1    2    0    0 -0.29110857453E+02 -0.83869039502E+02  0.70078607383E+03  0.71211847087E+03  0.90167274921E+02 0.  0.
        -11    1    4    4    0    0 -0.50286066005E+02 -0.90732796041E+02  0.60021296011E+03  0.60911142347E+03  0.00000000000E+00 0. -1.
         11    1    4    4    0    0  0.21175208552E+02  0.68637565390E+01  0.10057311372E+03  0.10300704740E+03  0.00000000000E+00 0.  1.
        -13    1    3    3    0    0 -0.26154145675E+02  0.40676154543E+02  0.58485799560E+02  0.75889245843E+02  0.00000000000E+00 0.  1.
         13    1    3    3    0    0  0.30678949372E+02 -0.33244131418E+02  0.47031374422E+02  0.65255807315E+02  0.00000000000E+00 0. -1.
         21    1    1    2  502  501  0.24586053757E+02  0.76437016376E+02  0.16935213818E+03  0.18742261928E+03  0.00000000000E+00 0.  1.
<scales pt_clust_5="13000.00000" pt_clust_6="13000.00000" pt_clust_7="13000.00000" pt_clust_8="13000.00000" pt_clust_9="80.29378"></scales>
<clustering>
<clus scale="   80.294">  2  9  1 -1</clus>
<clus scale="   90.167">  5  6 -1 -1</clus>
<clus scale="   93.340">  7  8 -1 -1</clus>
<clus scale="  113.787">  1  5  2 -1</clus>
<clus scale="  113.787">  1  5  2 -1</clus>
</clustering>
</event>
<event>
 9    1  0.1484717E-005  0.1714071E+03  0.7546771E-02  0.1176633E+00
          1   -1    0    0  502    0  0.00000000000E+00  0.00000000000E+00  0.70812977314E+03  0.70812977314E+03  0.00000000000E+00 0. -1.
         -1   -1    0    0    0  501 -0.00000000000E+00 -0.00000000000E+00 -0.19930595321E+03  0.19930595321E+03  0.00000000000E+00 0.  1.
         23    2    1    2    0    0  0.11398498754E+03 -0.11930310772E+03 -0.13079574050E+03  0.23015449173E+03  0.92939525686E+02 0.  0.
         23    2    1    2    0    0 -0.98268819869E+02  0.10350713738E+03  0.63109160078E+03  0.65342255274E+03  0.91180784252E+02 0.  0.
        -11    1    3    3    0    0  0.83026425828E+02 -0.10849285472E+03 -0.54455929459E+02  0.14706983091E+03  0.00000000000E+00 0.  1.
         11    1    3    3    0    0  0.30958561713E+02 -0.10810252995E+02 -0.76339811041E+02  0.83084660817E+02  0.00000000000E+00 0. -1.
        -11    1    4    4    0    0 -0.94083475394E+02  0.38906970009E+02  0.32555786808E+03  0.34110610978E+03  0.00000000000E+00 0.  1.
         11    1    4    4    0    0 -0.41853444744E+01  0.64600167375E+02  0.30553373270E+03  0.31231644297E+03  0.00000000000E+00 0. -1.
         21    1    1    2  502  501 -0.15716167672E+02  0.15795970336E+02  0.85279596489E+01  0.23858681878E+02  0.00000000000E+00 0.  1.
<scales pt_clust_5="13000.00000" pt_clust_6="13000.00000" pt_clust_7="13000.00000" pt_clust_8="13000.00000" pt_clust_9="22.28252"></scales>
<clustering>
<clus scale="   22.283">  2  9  1 -1</clus>
<clus scale="   91.181">  7  8 -1 -1</clus>
<clus scale="   92.940">  5  6 -1 -1</clus>
<clus scale="  170.460">  1  7  2 -1</clus>
<clus scale="  170.460">  1  5  2 -1</clus>
</clustering>
</event>
<event>
 9    1  0.1484717E-005  0.1065618E+03  0.7546771E-02  0.1268589E+00
          1   -1    0    0  502    0  0.00000000000E+00  0.00000000000E+00  0.53739817029E+02  0.53739817029E+02  0.00000000000E+00 0. -1.
         -1   -1    0    0    0  501 -0.00000000000E+00 -0.00000000000E+00 -0.33657361205E+03  0.33657361205E+03  0.00000000000E+00 0.  1.
         23    2    1    2    0    0 -0.47845803285E+02 -0.32384404630E+02 -0.16934640472E+03  0.20322098189E+03  0.96346209763E+02 0.  0.
         23    2    1    2    0    0  0.43364235116E+02 -0.18118985312E+01 -0.48331003195E+02  0.11337117221E+03  0.92916074792E+02 0.  0.
        -11    1    3    3    0    0 -0.75339825027E+02 -0.30967398722E+02 -0.14572506101E+03  0.16694568705E+03  0.00000000000E+00 0.  1.
         11    1    3    3    0    0  0.27494021743E+02 -0.14170059086E+01 -0.23621343711E+02  0.36275294844E+02  0.00000000000E+00 0. -1.
        -13    1    4    4    0    0 -0.74533054615E+01  0.23737032834E+02 -0.50665649024E+02  0.56444720577E+02  0.00000000000E+00 0.  1.
         13    1    4    4    0    0  0.50817540578E+02 -0.25548931365E+02  0.23346458287E+01  0.56926451632E+02  0.00000000000E+00 0. -1.
         21    1    1    2  502  501  0.44815681684E+01  0.34196303162E+02 -0.65156387102E+02  0.73721274971E+02  0.00000000000E+00 0. -1.
<scales pt_clust_5="13000.00000" pt_clust_6="13000.00000" pt_clust_7="13000.00000" pt_clust_8="13000.00000" pt_clust_9="34.48872"></scales>
<clustering>
<clus scale="   34.489">  2  9  1 -1</clus>
<clus scale="   92.916">  7  8 -1 -1</clus>
<clus scale="   96.346">  5  6 -1 -1</clus>
<clus scale="  103.471">  1  7  2 -1</clus>
<clus scale="  103.471">  1  5  2 -1</clus>
</clustering>
</event>
<event>
 9    1  0.1484717E-005  0.9767089E+02  0.7546771E-02  0.1289332E+00
          1   -1    0    0  502    0  0.00000000000E+00  0.00000000000E+00  0.32879787139E+03  0.32879787139E+03  0.00000000000E+00 0. -1.
         -1   -1    0    0    0  501 -0.00000000000E+00 -0.00000000000E+00 -0.51744969080E+02  0.51744969080E+02  0.00000000000E+00 0.  1.
         23    2    1    2    0    0  0.86230510531E+01 -0.22608313023E+02  0.10522431103E+03  0.14091102428E+03  0.90544289194E+02 0.  0.
         23    2    1    2    0    0 -0.50776271235E+02  0.11090212914E+02  0.16977331691E+03  0.19588499054E+03  0.82744956581E+02 0.  0.
        -11    1    4    4    0    0 -0.38576764312E+02  0.31413857919E+02  0.39640864896E+02  0.63611283464E+02  0.00000000000E+00 0. -1.
         11    1    4    4    0    0 -0.12199506922E+02 -0.20323645005E+02  0.13013245202E+03  0.13227370707E+03  0.00000000000E+00 0.  1.
        -13    1    3    3    0    0 -0.84715978920E+01 -0.53722344567E+02  0.43241752481E+02  0.69481705753E+02  0.00000000000E+00 0.  1.
         13    1    3    3    0    0  0.17094648945E+02  0.31114031545E+02  0.61982558544E+02  0.71429318527E+02  0.00000000000E+00 0. -1.
         21    1    1    2  502  501  0.42153220181E+02  0.11518100108E+02  0.20552743697E+01  0.43746825651E+02  0.00000000000E+00 0.  1.
<scales pt_clust_5="13000.00000" pt_clust_6="13000.00000" pt_clust_7="13000.00000" pt_clust_8="13000.00000" pt_clust_9="43.69852"></scales>
<clustering>
<clus scale="   43.699">  2  9  1 -1</clus>
<clus scale="   82.745">  5  6 -1 -1</clus>
<clus scale="   90.488">  1  5  2 -1</clus>
<clus scale="   90.544">  7  8 -1 -1</clus>
<clus scale="   90.488">  1  5  2 -1</clus>
</clustering>
</event>
<event>
 9    1  0.1484717E-005  0.1128664E+03  0.7546771E-02  0.1256533E+00
         -2   -1    0    0    0  501 -0.00000000000E+00  0.00000000000E+00  0.50728646951E+02  0.50728646951E+02  0.00000000000E+00 0.  1.
          2   -1    0    0  502    0  0.00000000000E+00 -0.00000000000E+00 -0.33005102455E+03  0.33005102455E+03  0.00000000000E+00 0. -1.
         23    2    1    2    0    0  0.54249154417E+02 -0.20486665794E+02 -0.95185689458E+02  0.14551373944E+03  0.93548162230E+02 0.  0.
         23    2    1    2    0    0 -0.50880196293E+02  0.45474703958E+02 -0.17499537315E+03  0.20844587297E+03  0.90385608695E+02 0.  0.
        -11    1    3    3    0    0  0.52898494619E+02  0.28859230876E+02 -0.58754140207E+02  0.84161481280E+02  0.00000000000E+00 0.  1.
         11    1    3    3    0    0  0.13506597981E+01 -0.49345896670E+02 -0.36431549251E+02  0.61352258156E+02  0.00000000000E+00 0. -1.
        -13    1    4    4    0    0 -0.62623092005E+02 -0.19733956861E+01 -0.11593611710E+03  0.13178288657E+03  0.00000000000E+00 0. -1.
         13    1    4    4    0    0  0.11742895711E+02  0.47448099644E+02 -0.59059256051E+02  0.76662986407E+02  0.00000000000E+00 0.  1.
         21    1    1    2  502  501 -0.33689581237E+01 -0.24988038164E+02 -0.91413149877E+01  0.26820059094E+02  0.00000000000E+00 0.  1.
<scales pt_clust_5="13000.00000" pt_clust_6="13000.00000" pt_clust_7="13000.00000" pt_clust_8="13000.00000" pt_clust_9="25.21412"></scales>
<clustering>
<clus scale="   25.214">  1  9  2 -1</clus>
<clus scale="   90.386">  7  8 -1 -1</clus>
<clus scale="   93.548">  5  6 -1 -1</clus>
<clus scale="  110.259">  2  7  1 -1</clus>
<clus scale="  110.259">  2  5  1 -1</clus>
</clustering>
</event>
<event>
 9    1  0.1484717E-005  0.1591962E+03  0.7546771E-02  0.1189669E+00
         -2   -1    0    0    0  501 -0.00000000000E+00  0.00000000000E+00  0.10722017184E+03  0.10722017184E+03  0.00000000000E+00 0.  1.
          2   -1    0    0  502    0  0.00000000000E+00 -0.00000000000E+00 -0.53547872660E+03  0.53547872660E+03  0.00000000000E+00 0. -1.
         23    2    1    2    0    0 -0.42746842756E+01  0.78808633414E+02 -0.93433086269E+01  0.11998309566E+03  0.89886440587E+02 0.  0.
         23    2    1    2    0    0 -0.14959555814E+02 -0.14687372470E+03 -0.41753347271E+03  0.45197174338E+03  0.90269466925E+02 0.  0.
        -13    1    4    4    0    0 -0.52208983330E+02 -0.84399997611E+02 -0.21580458253E+03  0.23753053568E+03  0.00000000000E+00 0.  1.
         13    1    4    4    0    0  0.37249427516E+02 -0.62473727088E+02 -0.20172889018E+03  0.21444120770E+03  0.00000000000E+00 0. -1.
        -13    1    3    3    0    0 -0.37267205477E+02  0.50003886618E+01  0.48081832372E+01  0.37907349115E+02  0.00000000000E+00 0.  1.
         13    1    3    3    0    0  0.32992521202E+02  0.73808244752E+02 -0.14151491864E+02  0.82075746543E+02  0.00000000000E+00 0. -1.
         21    1    1    2  502  501  0.19234240090E+02  0.68065091285E+02 -0.13817734267E+01  0.70744059406E+02  0.00000000000E+00 0.  1.
<scales pt_clust_5="13000.00000" pt_clust_6="13000.00000" pt_clust_7="13000.00000" pt_clust_8="13000.00000" pt_clust_9="70.73056"></scales>
<clustering>
<clus scale="   70.731">  1  9  2 -1</clus>
<clus scale="   89.886">  7  8 -1 -1</clus>
<clus scale="   90.269">  5  6 -1 -1</clus>
<clus scale="  158.979">  1  7  2 -1</clus>
<clus scale="  159.196">  2  5  1 -1</clus>
</clustering>
</event>
<event>
 9    1  0.1484717E-005  0.1537541E+03  0.7546771E-02  0.1211747E+00
         -1   -1    0    0    0  501 -0.00000000000E+00  0.00000000000E+00  0.10580513599E+03  0.10580513599E+03  0.00000000000E+00 0.  1.
          1   -1    0    0  502    0  0.00000000000E+00 -0.00000000000E+00 -0.36378473342E+03  0.36378473342E+03  0.00000000000E+00 0. -1.
         23    2    1    2    0    0 -0.87558172751E+02 -0.17617947164E+02 -0.54056479156E+02  0.15253361744E+03  0.11120960316E+03 0.  0.
         23    2    1    2    0    0 -0.42229294668E+02  0.44445326306E+02 -0.10611367376E+03  0.15234079305E+03  0.90492569354E+02 0.  0.
        -11    1    4    4    0    0 -0.13512493917E+02 -0.19235325132E+02  0.20326952832E+01  0.23594852720E+02  0.00000000000E+00 0. -1.
         11    1    4    4    0    0 -0.28716800751E+02  0.63680651437E+02 -0.10814636905E+03  0.12874594033E+03  0.00000000000E+00 0.  1.
        -13    1    3    3    0    0 -0.11434778860E+03 -0.13073074871E+02 -0.47960978296E+02  0.12468591534E+03  0.00000000000E+00 0.  1.
         13    1    3    3    0    0  0.26789615853E+02 -0.45448722934E+01 -0.60955008603E+01  0.27847702104E+02  0.00000000000E+00 0. -1.
         21    1    1    2  502  501  0.12978746742E+03 -0.26827379141E+02 -0.97809444518E+02  0.16471545892E+03  0.00000000000E+00 0. -1.
<scales pt_clust_5="13000.00000" pt_clust_6="13000.00000" pt_clust_7="13000.00000" pt_clust_8="13000.00000" pt_clust_9="106.17322"></scales>
<clustering>
<clus scale="   90.493">  5  6 -1 -1</clus>
<clus scale="  109.305">  2  5  1 -1</clus>
<clus scale="  106.173">  2  9  1 -1</clus>
<clus scale="  111.210">  7  8 -1 -1</clus>
<clus scale="  109.305">  2  5  1 -1</clus>
</clustering>
</event>
<event>
 9    1  0.1484717E-005  0.9981246E+02  0.7546771E-02  0.1280829E+00
         -1   -1    0    0    0  501 -0.00000000000E+00  0.00000000000E+00  0.98314997412E+02  0.98314997412E+02  0.00000000000E+00 0.  1.
          1   -1    0    0  502    0  0.00000000000E+00 -0.00000000000E+00 -0.35473460338E+03  0.35473460338E+03  0.00000000000E+00 0. -1.
         23    2    1    2    0    0  0.11788712041E+02 -0.21636143718E+02 -0.76849802349E+02  0.12077543106E+03  0.89853860126E+02 0.  0.
         23    2    1    2    0    0 -0.86552905262E+01  0.51594635670E+02 -0.24170698819E+03  0.26322086223E+03  0.90144515566E+02 0.  0.
        -11    1    4    4    0    0 -0.43393395619E+02  0.47686932024E+02 -0.19134436576E+03  0.20191507268E+03  0.00000000000E+00 0. -1.
         11    1    4    4    0    0  0.34738105093E+02  0.39077036465E+01 -0.50362622436E+02  0.61305789546E+02  0.00000000000E+00 0.  1.
        -13    1    3    3    0    0  0.32293710244E+01  0.30415541612E+02 -0.56476404337E+02  0.64227083506E+02  0.00000000000E+00 0. -1.
         13    1    3    3    0    0  0.85593410170E+01 -0.52051685331E+02 -0.20373398012E+02  0.56548347553E+02  0.00000000000E+00 0.  1.
         21    1    1    2  502  501 -0.31334215151E+01 -0.29958491952E+02  0.62137184575E+02  0.69053307505E+02  0.00000000000E+00 0.  1.
<scales pt_clust_5="13000.00000" pt_clust_6="13000.00000" pt_clust_7="13000.00000" pt_clust_8="13000.00000" pt_clust_9="30.12191"></scales>
<clustering>
<clus scale="   30.122">  1  9  2 -1</clus>
<clus scale="   89.854">  7  8 -1 -1</clus>
<clus scale="   90.145">  5  6 -1 -1</clus>
<clus scale="   99.550">  1  7  2 -1</clus>
<clus scale="   99.812">  2  5  1 -1</clus>
</clustering>
</event>
<event>
 9    1  0.1484717E-005  0.1071805E+03  0.7546771E-02  0.1267786E+00
         -1   -1    0    0    0  501 -0.00000000000E+00  0.00000000000E+00  0.56229662690E+03  0.56229662690E+03  0.00000000000E+00 0.  1.
          1   -1    0    0  502    0  0.00000000000E+00 -0.00000000000E+00 -0.42555030798E+02  0.42555030798E+02  0.00000000000E+00 0. -1.
         23    2    1    2    0    0  0.34938449191E+02 -0.30102655719E+01  0.28824071759E+03  0.30475791877E+03  0.92546857560E+02 0.  0.
         23    2    1    2    0    0 -0.43492848157E+02  0.24368641941E+02  0.54898254881E+02  0.12199869505E+03  0.96873136901E+02 0.  0.
        -11    1    4    4    0    0  0.29966219468E+02 -0.29947700081E+01  0.10407433511E+02  0.31863107646E+02  0.00000000000E+00 0.  1.
         11    1    4    4    0    0 -0.73459067624E+02  0.27363411949E+02  0.44490821370E+02  0.90135587400E+02  0.00000000000E+00 0. -1.
        -13    1    3    3    0    0 -0.21992829345E+02 -0.15248305314E+02  0.30749754480E+02  0.40764479122E+02  0.00000000000E+00 0. -1.
         13    1    3    3    0    0  0.56931278536E+02  0.12238039743E+02  0.25749096311E+03  0.26399343964E+03  0.00000000000E+00 0.  1.
         21    1    1    2  502  501  0.85543989655E+01 -0.21358376369E+02  0.17660262363E+03  0.17809504388E+03  0.00000000000E+00 0.  1.
<scales pt_clust_5="13000.00000" pt_clust_6="13000.00000" pt_clust_7="13000.00000" pt_clust_8="13000.00000" pt_clust_9="23.00778"></scales>
<clustering>
<clus scale="   23.008">  1  9  2 -1</clus>
<clus scale="   92.547">  7  8 -1 -1</clus>
<clus scale="   96.873">  5  6 -1 -1</clus>
<clus scale="  103.287">  1  7  2 -1</clus>
<clus scale="  107.181">  2  5  1 -1</clus>
</clustering>
</event>
<event>
 9    1  0.1484717E-005  0.9231303E+02  0.7546771E-02  0.1299434E+00
         -1   -1    0    0    0  501 -0.00000000000E+00  0.00000000000E+00  0.40686403179E+02  0.40686403179E+02  0.00000000000E+00 0.  1.
          1   -1    0    0  502    0  0.00000000000E+00 -0.00000000000E+00 -0.31205474595E+03  0.31205474595E+03  0.00000000000E+00 0. -1.
         23    2    1    2    0    0 -0.14627761073E+01 -0.22864035611E+02 -0.10744171256E+03  0.14076841827E+03  0.88017737684E+02 0.  0.
         23    2    1    2    0    0  0.10833513741E+02  0.11171342820E+00 -0.16310519191E+03  0.18735254302E+03  0.91543947071E+02 0.  0.
        -11    1    3    3    0    0  0.41123371641E+02 -0.18951811792E+02 -0.37518996064E+02  0.58804574065E+02  0.00000000000E+00 0.  1.
         11    1    3    3    0    0 -0.42586147748E+02 -0.39122238198E+01 -0.69922716497E+02  0.81963844209E+02  0.00000000000E+00 0. -1.
        -11    1    4    4    0    0  0.18820499131E+02  0.43796396766E+02 -0.79967083121E+02  0.93097099526E+02  0.00000000000E+00 0.  1.
         11    1    4    4    0    0 -0.79869853893E+01 -0.43684683338E+02 -0.83138108794E+02  0.94255443491E+02  0.00000000000E+00 0. -1.
         21    1    1    2  502  501 -0.93707376341E+01  0.22752322183E+02 -0.82143830022E+00  0.24620187843E+02  0.00000000000E+00 0.  1.
<scales pt_clust_5="13000.00000" pt_clust_6="13000.00000" pt_clust_7="13000.00000" pt_clust_8="13000.00000" pt_clust_9="24.60648"></scales>
<clustering>
<clus scale="   24.606">  1  9  2 -1</clus>
<clus scale="   88.018">  5  6 -1 -1</clus>
<clus scale="   88.817">  1  5  2 -1</clus>
<clus scale="   91.544">  7  8 -1 -1</clus>
<clus scale="   92.313">  2  5  1 -1</clus>
</clustering>
</event>
<event>
 9    1  0.1484717E-005  0.1134783E+03  0.7546771E-02  0.1254896E+00
          2   -1    0    0  502    0  0.00000000000E+00  0.00000000000E+00  0.68432794452E+03  0.68432794452E+03  0.00000000000E+00 0. -1.
         -2   -1    0    0    0  501 -0.00000000000E+00 -0.00000000000E+00 -0.24318109104E+02  0.24318109104E+02  0.00000000000E+00 0.  1.
         23    2    1    2    0    0 -0.47104807921E+02  0.33951198427E+02  0.28563556099E+03  0.30525442481E+03  0.90669969456E+02 0.  0.
         23    2    1    2    0    0  0.65369116713E+02 -0.42787029942E+02  0.35880614848E+03  0.37781774683E+03  0.88885017197E+02 0.  0.
        -11    1    3    3    0    0 -0.26218508505E+01  0.42724972349E+02  0.22768938731E+03  0.23167812684E+03  0.00000000000E+00 0.  1.
         11    1    3    3    0    0 -0.44482957070E+02 -0.87737739221E+01  0.57946173679E+02  0.73576297967E+02  0.00000000000E+00 0. -1.
        -13    1    4    4    0    0 -0.21160037690E+02 -0.13204117247E+02  0.51982335442E+02  0.57656388244E+02  0.00000000000E+00 0. -1.
         13    1    4    4    0    0  0.86529154403E+02 -0.29582912695E+02  0.30682381304E+03  0.32016135859E+03  0.00000000000E+00 0.  1.
         21    1    1    2  502  501 -0.18264308793E+02  0.88358315153E+01  0.15568125955E+02  0.25573881989E+02  0.00000000000E+00 0. -1.
<scales pt_clust_5="13000.00000" pt_clust_6="13000.00000" pt_clust_7="13000.00000" pt_clust_8="13000.00000" pt_clust_9="20.28933"></scales>
<clustering>
<clus scale="   20.289">  2  9  1 -1</clus>
<clus scale="   88.885">  7  8 -1 -1</clus>
<clus scale="   90.670">  5  6 -1 -1</clus>
<clus scale="  112.057">  1  7  2 -1</clus>
<clus scale="  112.057">  1  5  2 -1</clus>
</clustering>
</event>
<event>
 9    1  0.1484717E-005  0.9979067E+02  0.7546771E-02  0.1281263E+00
          1   -1    0    0  502    0  0.00000000000E+00  0.00000000000E+00  0.26201886050E+03  0.26201886050E+03  0.00000000000E+00 0. -1.
         -1   -1    0    0    0  501 -0.00000000000E+00 -0.00000000000E+00 -0.12067933603E+03  0.12067933603E+03  0.00000000000E+00 0.  1.
         23    2    1    2    0    0  0.52864150841E+01 -0.37393412406E+02 -0.77602080180E+02  0.12556619990E+03  0.91206218171E+02 0.  0.
         23    2    1    2    0    0 -0.27591914726E+01  0.62407024221E+02  0.17544918476E+03  0.20689597148E+03  0.90118126768E+02 0.  0.
        -11    1    4    4    0    0 -0.23209481910E+02  0.10578704196E+02  0.30157907149E+01  0.25684314798E+02  0.00000000000E+00 0.  1.
         11    1    4    4    0    0  0.20450290438E+02  0.51828320026E+02  0.17243339405E+03  0.18121165668E+03  0.00000000000E+00 0. -1.
        -11    1    3    3    0    0  0.46095963723E+02 -0.27060542551E+02 -0.58789988813E+02  0.79456740553E+02  0.00000000000E+00 0.  1.
         11    1    3    3    0    0 -0.40809548639E+02 -0.10332869855E+02 -0.18812091367E+02  0.46109459346E+02  0.00000000000E+00 0. -1.
         21    1    1    2  502  501 -0.25272236115E+01 -0.25013611815E+02  0.43492419883E+02  0.50236025146E+02  0.00000000000E+00 0.  1.
<scales pt_clust_5="13000.00000" pt_clust_6="13000.00000" pt_clust_7="13000.00000" pt_clust_8="13000.00000" pt_clust_9="25.14096"></scales>
<clustering>
<clus scale="   25.141">  1  9  2 -1</clus>
<clus scale="   90.118">  5  6 -1 -1</clus>
<clus scale="   91.206">  7  8 -1 -1</clus>
<clus scale="   98.797">  1  5  2 -1</clus>
<clus scale="   25.141">  1  5  2 -1</clus>
</clustering>
</event>
<event>
 9    1  0.1484717E-005  0.1010036E+03  0.7546771E-02  0.1287286E+00
          1   -1    0    0  502    0  0.00000000000E+00  0.00000000000E+00  0.36696527951E+03  0.36696527951E+03  0.00000000000E+00 0. -1.
         -1   -1    0    0    0  501 -0.00000000000E+00 -0.00000000000E+00 -0.39171838179E+02  0.39171838179E+02  0.00000000000E+00 0.  1.
         23    2    1    2    0    0 -0.28364547569E+01 -0.34431011411E+02  0.16087386688E+03  0.18924321216E+03  0.93482898341E+02 0.  0.
         23    2    1    2    0    0 -0.24981682095E+02  0.37227172450E+02  0.16709025181E+03  0.18893507177E+03  0.75943151660E+02 0.  0.
        -11    1    4    4    0    0  0.15928283664E+02  0.41095428444E+02  0.61767978896E+02  0.75880351056E+02  0.00000000000E+00 0.  1.
         11    1    4    4    0    0 -0.40909965758E+02 -0.38682559943E+01  0.10532227292E+03  0.11305472071E+03  0.00000000000E+00 0. -1.
        -13    1    3    3    0    0 -0.15995089869E+02 -0.52766518935E+02  0.15692755140E+03  0.16633221218E+03  0.00000000000E+00 0. -1.
         13    1    3    3    0    0  0.13158635112E+02  0.18335507524E+02  0.39463154768E+01  0.22910999979E+02  0.00000000000E+00 0.  1.
         21    1    1    2  502  501  0.27818136852E+02 -0.27961610385E+01 -0.17067736060E+00  0.27958833760E+02  0.00000000000E+00 0. -1.
<scales pt_clust_5="13000.00000" pt_clust_6="13000.00000" pt_clust_7="13000.00000" pt_clust_8="13000.00000" pt_clust_9="27.95831"></scales>
<clustering>
<clus scale="   27.958">  2  9  1 -1</clus>
<clus scale="   75.943">  5  6 -1 -1</clus>
<clus scale="   85.030">  1  5  2 -1</clus>
<clus scale="   93.483">  7  8 -1 -1</clus>
<clus scale="   85.030">  1  5  2 -1</clus>
</clustering>
</event>
<event>
 9    1  0.1484717E-005  0.1377989E+03  0.7546771E-02  0.1217046E+00
         -3   -1    0    0    0  501 -0.00000000000E+00  0.00000000000E+00  0.28303886402E+03  0.28303886402E+03  0.00000000000E+00 0.  1.
          3   -1    0    0  502    0  0.00000000000E+00 -0.00000000000E+00 -0.21077831910E+03  0.21077831910E+03  0.00000000000E+00 0. -1.
         23    2    1    2    0    0 -0.72646859930E+02 -0.11331111991E+03  0.83379842795E+02  0.18091852750E+03  0.87534788839E+02 0.  0.
         23    2    1    2    0    0  0.14201823265E+02  0.97918728113E+02 -0.12534315300E+03  0.18367080601E+03  0.90742988029E+02 0.  0.
        -11    1    3    3    0    0 -0.31278381829E+02 -0.10557563005E+03  0.32334313374E+02  0.11476087596E+03  0.00000000000E+00 0.  1.
         11    1    3    3    0    0 -0.41368478101E+02 -0.77354898596E+01  0.51045529422E+02  0.66157651543E+02  0.00000000000E+00 0. -1.
        -13    1    4    4    0    0  0.46192248420E+02  0.70261811434E+02 -0.11049639287E+03  0.13885207524E+03  0.00000000000E+00 0. -1.
         13    1    4    4    0    0 -0.31990425155E+02  0.27656916679E+02 -0.14846760133E+02  0.44818730774E+02  0.00000000000E+00 0.  1.
         21    1    1    2  502  501  0.58445036665E+02  0.15392391794E+02  0.11422385512E+03  0.12922784961E+03  0.00000000000E+00 0.  1.
<scales pt_clust_5="13000.00000" pt_clust_6="13000.00000" pt_clust_7="13000.00000" pt_clust_8="13000.00000" pt_clust_9="60.43797"></scales>
<clustering>
<clus scale="   60.438">  1  9  2 -1</clus>
<clus scale="   87.535">  5  6 -1 -1</clus>
<clus scale="   90.743">  7  8 -1 -1</clus>
<clus scale="  135.708">  1  5  2 -1</clus>
<clus scale="  137.799">  2  5  1 -1</clus>
</clustering>
</event>
<event>
 9    1  0.1484717E-005  0.1071180E+03  0.7546771E-02  0.1267461E+00
         -2   -1    0    0    0  501 -0.00000000000E+00  0.00000000000E+00  0.82360903897E+02  0.82360903897E+02  0.00000000000E+00 0.  1.
          2   -1    0    0  502    0  0.00000000000E+00 -0.00000000000E+00 -0.18783129983E+03  0.18783129983E+03  0.00000000000E+00 0. -1.
         23    2    1    2    0    0 -0.38948900704E+02  0.19993460409E+02 -0.40590721595E+02  0.11003965730E+03  0.92435729959E+02 0.  0.
         23    2    1    2    0    0  0.41773281321E+02 -0.53808681871E+02 -0.44357872379E+02  0.12049664291E+03  0.88946269361E+02 0.  0.
        -11    1    4    4    0    0  0.21096061332E+02 -0.24038302142E+02  0.26087702585E+02  0.41272896673E+02  0.00000000000E+00 0.  1.
         11    1    4    4    0    0  0.20677219990E+02 -0.29770379728E+02 -0.70445574963E+02  0.79223746236E+02  0.00000000000E+00 0. -1.
        -13    1    3    3    0    0 -0.59891701502E+02  0.13558174288E+02 -0.56117365240E+02  0.83186529440E+02  0.00000000000E+00 0.  1.
         13    1    3    3    0    0  0.20942800798E+02  0.64352861213E+01  0.15526643645E+02  0.26853127856E+02  0.00000000000E+00 0. -1.
         21    1    1    2  502  501 -0.28243806178E+01  0.33815221462E+02 -0.20521801957E+02  0.39655903519E+02  0.00000000000E+00 0.  1.
<scales pt_clust_5="13000.00000" pt_clust_6="13000.00000" pt_clust_7="13000.00000" pt_clust_8="13000.00000" pt_clust_9="33.93297"></scales>
<clustering>
<clus scale="   33.933">  2  9  1 -1</clus>
<clus scale="   88.946">  5  6 -1 -1</clus>
<clus scale="   92.436">  7  8 -1 -1</clus>
<clus scale="  104.122">  2  5  1 -1</clus>
<clus scale="   33.933">  2  5  1 -1</clus>
</clustering>
</event>
<event>
 9    1  0.1484717E-005  0.9697248E+02  0.7546771E-02  0.1292675E+00
          2   -1    0    0  502    0  0.00000000000E+00  0.00000000000E+00  0.23990192821E+03  0.23990192821E+03  0.00000000000E+00 0. -1.
         -2   -1    0    0    0  501 -0.00000000000E+00 -0.00000000000E+00 -0.47759445564E+02  0.47759445564E+02  0.00000000000E+00 0.  1.
         23    2    1    2    0    0  0.33182090262E+02 -0.20121259856E+02  0.77129993685E+02  0.12642623651E+03  0.92350642342E+02 0.  0.
         23    2    1    2    0    0 -0.26350098134E+02 -0.30338174460E+01  0.10352988610E+03  0.13450156492E+03  0.81662120540E+02 0.  0.
        -11    1    4    4    0    0  0.16968510359E+02 -0.30161797046E+02  0.38030345315E+02  0.51419563491E+02  0.00000000000E+00 0.  1.
         11    1    4    4    0    0 -0.43318608493E+02  0.27127979600E+02  0.65499540782E+02  0.83082001430E+02  0.00000000000E+00 0. -1.
        -13    1    3    3    0    0 -0.31199807893E+02 -0.17389811578E+02  0.28522231388E+02  0.45709421815E+02  0.00000000000E+00 0. -1.
         13    1    3    3    0    0  0.64381898155E+02 -0.27314482778E+01  0.48607762297E+02  0.80716814700E+02  0.00000000000E+00 0.  1.
         21    1    1    2  502  501 -0.68319921286E+01  0.23155077302E+02  0.11482602860E+02  0.26733572334E+02  0.00000000000E+00 0. -1.
<scales pt_clust_5="13000.00000" pt_clust_6="13000.00000" pt_clust_7="13000.00000" pt_clust_8="13000.00000" pt_clust_9="24.14195"></scales>
<clustering>
<clus scale="   24.142">  2  9  1 -1</clus>
<clus scale="   81.662">  5  6 -1 -1</clus>
<clus scale="   86.855">  1  5  2 -1</clus>
<clus scale="   92.351">  7  8 -1 -1</clus>
<clus scale="   86.855">  1  5  2 -1</clus>
</clustering>
</event>
<event>
 9    1  0.1484717E-005  0.1540783E+03  0.7546771E-02  0.1202055E+00
          1   -1    0    0  502    0  0.00000000000E+00  0.00000000000E+00  0.97637037700E+03  0.97637037700E+03  0.00000000000E+00 0. -1.
         -1   -1    0    0    0  501 -0.00000000000E+00 -0.00000000000E+00 -0.35885243351E+02  0.35885243351E+02  0.00000000000E+00 0.  1.
         23    2    1    2    0    0  0.88982277309E+02  0.75663055840E+01  0.16075422186E+03  0.20460854669E+03  0.89708655539E+02 0.  0.
         23    2    1    2    0    0 -0.99295564880E+02 -0.28218781195E+02  0.76352730341E+03  0.77944342897E+03  0.11790762101E+03 0.  0.
        -13    1    3    3    0    0  0.16512134779E+02  0.41903239657E+02  0.72600288681E+02  0.85436139925E+02  0.00000000000E+00 0.  1.
         13    1    3    3    0    0  0.72470142529E+02 -0.34336934073E+02  0.88153933175E+02  0.11917240676E+03  0.00000000000E+00 0. -1.
        -13    1    4    4    0    0 -0.96688450542E+02  0.27370421741E+02  0.52247621782E+03  0.53205187213E+03  0.00000000000E+00 0.  1.
         13    1    4    4    0    0 -0.26071143379E+01 -0.55589202937E+02  0.24105108559E+03  0.24739155684E+03  0.00000000000E+00 0. -1.
         21    1    1    2  502  501  0.10313287571E+02  0.20652475611E+02  0.16203608383E+02  0.28203644694E+02  0.00000000000E+00 0.  1.
<scales pt_clust_5="13000.00000" pt_clust_6="13000.00000" pt_clust_7="13000.00000" pt_clust_8="13000.00000" pt_clust_9="23.08438"></scales>
<clustering>
<clus scale="   23.084">  2  9  1 -1</clus>
<clus scale="   89.709">  5  6 -1 -1</clus>
<clus scale="  117.908">  7  8 -1 -1</clus>
<clus scale="  133.737">  2  5  1 -1</clus>
<clus scale="  154.078">  1  5  2 -1</clus>
</clustering>
</event>
<event>
 9    1  0.1484717E-005  0.1183513E+03  0.7546771E-02  0.1247660E+00
          2   -1    0    0  502    0  0.00000000000E+00  0.00000000000E+00  0.67962228902E+03  0.67962228902E+03  0.00000000000E+00 0. -1.
         -2   -1    0    0    0  501 -0.00000000000E+00 -0.00000000000E+00 -0.25810947305E+02  0.25810947305E+02  0.00000000000E+00 0.  1.
         23    2    1    2    0    0 -0.10677904241E+01 -0.61686132448E+02  0.20067622323E+03  0.22935888029E+03  0.92348417883E+02 0.  0.
         23    2    1    2    0    0 -0.12899852262E+02  0.76911169524E+02  0.40089499430E+03  0.41989671483E+03  0.97543428717E+02 0.  0.
        -13    1    4    4    0    0  0.64601714645E+01 -0.19762807394E+02  0.32869535285E+02  0.38893556296E+02  0.00000000000E+00 0.  1.
         13    1    4    4    0    0 -0.19360023727E+02  0.96673976918E+02  0.36802545902E+03  0.38100315854E+03  0.00000000000E+00 0. -1.
        -13    1    3    3    0    0  0.19048288730E+02  0.12819246460E+02  0.99472260839E+02  0.10208771258E+03  0.00000000000E+00 0. -1.
         13    1    3    3    0    0 -0.20116079154E+02 -0.74505378908E+02  0.10120396239E+03  0.12727116771E+03  0.00000000000E+00 0.  1.
         21    1    1    2  502  501  0.13967642686E+02 -0.15225037076E+02  0.52240124188E+02  0.56177641205E+02  0.00000000000E+00 0.  1.
<scales pt_clust_5="13000.00000" pt_clust_6="13000.00000" pt_clust_7="13000.00000" pt_clust_8="13000.00000" pt_clust_9="20.66148"></scales>
<clustering>
<clus scale="   20.661">  1  9  2 -1</clus>
<clus scale="   92.348">  7  8 -1 -1</clus>
<clus scale="   97.543">  5  6 -1 -1</clus>
<clus scale="  114.108">  2  7  1 -1</clus>
<clus scale="   20.661">  1  5  2 -1</clus>
</clustering>
</event>
<event>
 9    1  0.1484717E-005  0.1015528E+03  0.7546771E-02  0.1277310E+00
         -1   -1    0    0    0  501 -0.00000000000E+00  0.00000000000E+00  0.11255623278E+03  0.11255623278E+03  0.00000000000E+00 0.  1.
          1   -1    0    0  502    0  0.00000000000E+00 -0.00000000000E+00 -0.38709127397E+03  0.38709127397E+03  0.00000000000E+00 0. -1.
         23    2    1    2    0    0 -0.62584242946E+02  0.90463654235E+00  0.38341027530E+02  0.11682804166E+03  0.90890874650E+02 0.  0.
         23    2    1    2    0    0  0.20712672885E+02 -0.41875151245E+02 -0.30762081454E+03  0.32400255297E+03  0.90357875596E+02 0.  0.
        -11    1    3    3    0    0 -0.55795933035E+02 -0.38148470189E+02  0.10529502806E+02  0.68405864883E+02  0.00000000000E+00 0.  1.
         11    1    3    3    0    0 -0.67883099106E+01  0.39053106731E+02  0.27811524724E+02  0.48422176781E+02  0.00000000000E+00 0. -1.
        -11    1    4    4    0    0 -0.28653610094E+02 -0.22633693600E+02 -0.55922342750E+02  0.66787887195E+02  0.00000000000E+00 0.  1.
         11    1    4    4    0    0  0.49366282979E+02 -0.19241457645E+02 -0.25169847179E+03  0.25721466577E+03  0.00000000000E+00 0. -1.
         21    1    1    2  502  501  0.41871570061E+02  0.40970514703E+02 -0.52552541799E+01  0.58816912116E+02  0.00000000000E+00 0.  1.
<scales pt_clust_5="13000.00000" pt_clust_6="13000.00000" pt_clust_7="13000.00000" pt_clust_8="13000.00000" pt_clust_9="58.58166"></scales>
<clustering>
<clus scale="   58.582">  1  9  2 -1</clus>
<clus scale="   90.358">  7  8 -1 -1</clus>
<clus scale="   90.891">  5  6 -1 -1</clus>
<clus scale="  101.076">  2  7  1 -1</clus>
<clus scale="  101.076">  2  5  1 -1</clus>
</clustering>
</event>
<event>
 9    1  0.1484717E-005  0.1616539E+03  0.7546771E-02  0.1191305E+00
         -1   -1    0    0    0  501 -0.00000000000E+00  0.00000000000E+00  0.41416367523E+03  0.41416367523E+03  0.00000000000E+00 0.  1.
          1   -1    0    0  502    0  0.00000000000E+00 -0.00000000000E+00 -0.10223524286E+03  0.10223524286E+03  0.00000000000E+00 0. -1.
         23    2    1    2    0    0  0.86247453065E+02  0.49252604457E+02  0.14996662895E+03  0.20229652038E+03  0.92571324677E+02 0.  0.
         23    2    1    2    0    0 -0.93192697064E+02 -0.78179194089E+02  0.19553028590E+02  0.16861960441E+03  0.11512334641E+03 0.  0.
        -11    1    4    4    0    0 -0.50914399368E+02  0.76117948403E+01 -0.31349787457E+02  0.60274577206E+02  0.00000000000E+00 0.  1.
         11    1    4    4    0    0 -0.42278297696E+02 -0.85790988929E+02  0.50902816047E+02  0.10834502720E+03  0.00000000000E+00 0. -1.
        -13    1    3    3    0    0  0.29543401173E+02  0.55562708877E+02  0.12514674631E+03  0.14007760450E+03  0.00000000000E+00 0.  1.
         13    1    3    3    0    0  0.56704051892E+02 -0.63101044195E+01  0.24819882641E+02  0.62218915879E+02  0.00000000000E+00 0. -1.
         21    1    1    2  502  501  0.69452439989E+01  0.28926589632E+02  0.14240877482E+03  0.14548279330E+03  0.00000000000E+00 0. -1.
<scales pt_clust_5="13000.00000" pt_clust_6="13000.00000" pt_clust_7="13000.00000" pt_clust_8="13000.00000" pt_clust_9="29.74868"></scales>
<clustering>
<clus scale="   29.749">  1  9  2 -1</clus>
<clus scale="   92.571">  7  8 -1 -1</clus>
<clus scale="  115.123">  5  6 -1 -1</clus>
<clus scale="  146.452">  1  7  2 -1</clus>
<clus scale="  161.654">  2  5  1 -1</clus>
</clustering>
</event>
<event>
 9    1  0.1484717E-005  0.9448077E+02  0.7546771E-02  0.1293169E+00
          2   -1    0    0  502    0  0.00000000000E+00  0.00000000000E+00  0.67258365685E+02  0.67258365685E+02  0.00000000000E+00 0. -1.
         -2   -1    0    0    0  501 -0.00000000000E+00 -0.00000000000E+00 -0.20736481665E+03  0.20736481665E+03  0.00000000000E+00 0.  1.
         23    2    1    2    0    0 -0.11414712100E+02  0.11890870324E+02 -0.11846291443E+03  0.15240247265E+03  0.94452967805E+02 0.  0.
         23    2    1    2    0    0 -0.57776575286E+01  0.16376746615E+01 -0.26542980841E+01  0.93251928557E+02  0.93020500839E+02 0.  0.
        -11    1    3    3    0    0  0.36794918734E+02 -0.15328686797E+02 -0.40931056970E+02  0.57133056178E+02  0.00000000000E+00 0. -1.
         11    1    3    3    0    0 -0.48209630834E+02  0.27219557121E+02 -0.77531857457E+02  0.95269416476E+02  0.00000000000E+00 0.  1.
        -13    1    4    4    0    0  0.18739618981E+02 -0.30794176000E+02 -0.27734322436E+02  0.45482383800E+02  0.00000000000E+00 0.  1.
         13    1    4    4    0    0 -0.24517276509E+02  0.32431850662E+02  0.25080024352E+02  0.47769544757E+02  0.00000000000E+00 0. -1.
         21    1    1    2  502  501  0.17192369629E+02 -0.13528544986E+02 -0.18989238457E+02  0.28968781129E+02  0.00000000000E+00 0. -1.
<scales pt_clust_5="13000.00000" pt_clust_6="13000.00000" pt_clust_7="13000.00000" pt_clust_8="13000.00000" pt_clust_9="21.87691"></scales>
<clustering>
<clus scale="   21.877">  2  9  1 -1</clus>
<clus scale="   93.021">  7  8 -1 -1</clus>
<clus scale="   93.049">  1  7  2 -1</clus>
<clus scale="   94.453">  5  6 -1 -1</clus>
<clus scale="   93.049">  1  5  2 -1</clus>
</clustering>
</event>
<event>
 9    1  0.1484717E-005  0.1218227E+03  0.7546771E-02  0.1240543E+00
         -1   -1    0    0    0  501 -0.00000000000E+00  0.00000000000E+00  0.39613866631E+02  0.39613866631E+02  0.00000000000E+00 0.  1.
          1   -1    0    0  502    0  0.00000000000E+00 -0.00000000000E+00 -0.48404116857E+03  0.48404116857E+03  0.00000000000E+00 0. -1.
         23    2    1    2    0    0 -0.28773010351E+02  0.56066889815E+02 -0.17707133953E+03  0.21068330410E+03  0.95193555901E+02 0.  0.
         23    2    1    2    0    0  0.38221278575E+02 -0.79161276080E+02 -0.25393516616E+03  0.28463909583E+03  0.93856126576E+02 0.  0.
        -11    1    3    3    0    0  0.46883333454E+01  0.65475430854E+02 -0.61330002055E+02  0.89835303012E+02  0.00000000000E+00 0.  1.
         11    1    3    3    0    0 -0.33461343696E+02 -0.94085410394E+01 -0.11574133747E+03  0.12084800109E+03  0.00000000000E+00 0. -1.
        -11    1    4    4    0    0  0.61245020488E+02 -0.84917391934E+02 -0.20125835907E+03  0.22686304918E+03  0.00000000000E+00 0. -1.
         11    1    4    4    0    0 -0.23023741912E+02  0.57561158546E+01 -0.52676807092E+02  0.57776046653E+02  0.00000000000E+00 0.  1.
         21    1    1    2  502  501 -0.94482682245E+01  0.23094386265E+02 -0.13420796249E+02  0.28332635270E+02  0.00000000000E+00 0. -1.
<scales pt_clust_5="13000.00000" pt_clust_6="13000.00000" pt_clust_7="13000.00000" pt_clust_8="13000.00000" pt_clust_9="24.95236"></scales>
<clustering>
<clus scale="   24.952">  1  9  2 -1</clus>
<clus scale="   93.856">  7  8 -1 -1</clus>
<clus scale="   95.194">  5  6 -1 -1</clus>
<clus scale="  120.780">  2  7  1 -1</clus>
<clus scale="  120.780">  2  5  1 -1</clus>
</clustering>
</event>
<event>
 9    1  0.1484717E-005  0.9356943E+02  0.7546771E-02  0.1295393E+00
         -1   -1    0    0    0  501 -0.00000000000E+00  0.00000000000E+00  0.81811514438E+02  0.81811514438E+02  0.00000000000E+00 0.  1.
          1   -1    0    0  502    0  0.00000000000E+00 -0.00000000000E+00 -0.20235425292E+03  0.20235425292E+03  0.00000000000E+00 0. -1.
         23    2    1    2    0    0 -0.40379852328E+02 -0.52388082886E+01 -0.30866567360E+02  0.10321528135E+03  0.89680944114E+02 0.  0.
         23    2    1    2    0    0  0.10738165386E+02 -0.18859165562E-01 -0.11091390364E+03  0.14410874400E+03  0.91379032201E+02 0.  0.
        -11    1    4    4    0    0  0.44222349110E+02 -0.15790082720E+02 -0.90209138357E+02  0.10169872918E+03  0.00000000000E+00 0.  1.
         11    1    4    4    0    0 -0.33484183724E+02  0.15771223555E+02 -0.20704765281E+02  0.42410014824E+02  0.00000000000E+00 0. -1.
        -13    1    3    3    0    0 -0.15422051650E+02 -0.40468040872E+02 -0.40149162231E+02  0.59054696994E+02  0.00000000000E+00 0.  1.
         13    1    3    3    0    0 -0.24957800679E+02  0.35229232584E+02  0.92825948714E+01  0.44160584356E+02  0.00000000000E+00 0. -1.
         21    1    1    2  502  501  0.29641686942E+02  0.52576674542E+01  0.21237732515E+02  0.36841742008E+02  0.00000000000E+00 0.  1.
<scales pt_clust_5="13000.00000" pt_clust_6="13000.00000" pt_clust_7="13000.00000" pt_clust_8="13000.00000" pt_clust_9="30.10436"></scales>
<clustering>
<clus scale="   30.104">  1  9  2 -1</clus>
<clus scale="   89.681">  7  8 -1 -1</clus>
<clus scale="   91.379">  5  6 -1 -1</clus>
<clus scale="   91.912">  1  7  2 -1</clus>
<clus scale="   93.569">  2  5  1 -1</clus>
</clustering>
</event>
<event>
 9    1  0.1484717E-005  0.2274027E+03  0.7546771E-02  0.1128686E+00
         -1   -1    0    0    0  501 -0.00000000000E+00  0.00000000000E+00  0.54834478761E+03  0.54834478761E+03  0.00000000000E+00 0.  1.
          1   -1    0    0  502    0  0.00000000000E+00 -0.00000000000E+00 -0.19175287790E+03  0.19175287790E+03  0.00000000000E+00 0. -1.
         23    2    1    2    0    0  0.50210216307E+02 -0.18158775539E+03  0.22836830950E+03  0.30959621444E+03  0.90567944016E+02 0.  0.
         23    2    1    2    0    0 -0.58523384982E+02  0.20723870195E+03 -0.60190504594E+02  0.24016765290E+03  0.87662640178E+02 0.  0.
        -11    1    3    3    0    0  0.36521341082E+01 -0.14584819658E+03  0.18968238836E+03  0.23929990176E+03  0.00000000000E+00 0.  1.
         11    1    3    3    0    0  0.46558082199E+02 -0.35739558817E+02  0.38685921140E+02  0.70296312684E+02  0.00000000000E+00 0. -1.
        -11    1    4    4    0    0 -0.76073723318E+02  0.13089303699E+03 -0.56989760939E+02  0.16176535897E+03  0.00000000000E+00 0. -1.
         11    1    4    4    0    0  0.17550338336E+02  0.76345664954E+02 -0.32007436543E+01  0.78402293927E+02  0.00000000000E+00 0.  1.
         21    1    1    2  502  501  0.83131686741E+01 -0.25650946553E+02  0.18841410481E+03  0.19033379817E+03  0.00000000000E+00 0.  1.
<scales pt_clust_5="13000.00000" pt_clust_6="13000.00000" pt_clust_7="13000.00000" pt_clust_8="13000.00000" pt_clust_9="26.96442"></scales>
<clustering>
<clus scale="   26.964">  1  9  2 -1</clus>
<clus scale="   87.663">  7  8 -1 -1</clus>
<clus scale="   90.568">  5  6 -1 -1</clus>
<clus scale="  226.261">  2  7  1 -1</clus>
<clus scale="  226.261">  2  5  1 -1</clus>
</clustering>
</event>
<event>
 9    1  0.1484717E-005  0.1049827E+03  0.7546771E-02  0.1271565E+00
         -3   -1    0    0    0  501 -0.00000000000E+00  0.00000000000E+00  0.25994758538E+03  0.25994758538E+03  0.00000000000E+00 0.  1.
          3   -1    0    0  502    0  0.00000000000E+00 -0.00000000000E+00 -0.11483230162E+03  0.11483230162E+03  0.00000000000E+00 0. -1.
         23    2    1    2    0    0  0.29759820716E+02 -0.64515903797E+02  0.12896513611E+03  0.17343543211E+03  0.91650935655E+02 0.  0.
         23    2    1    2    0    0 -0.34734352817E+02  0.33421363382E+02 -0.61199247162E+02  0.11783071176E+03  0.88403993032E+02 0.  0.
        -11    1    4    4    0    0  0.21924490480E+02 -0.14664643283E+02 -0.15799197952E+02  0.30746539664E+02  0.00000000000E+00 0.  1.
         11    1    4    4    0    0 -0.56658843297E+02  0.48086006665E+02 -0.45400049211E+02  0.87084172093E+02  0.00000000000E+00 0. -1.
        -13    1    3    3    0    0  0.40353943029E+02 -0.82945414729E+02  0.89045904696E+02  0.12820903122E+03  0.00000000000E+00 0.  1.
         13    1    3    3    0    0 -0.10594122313E+02  0.18429510932E+02  0.39919231415E+02  0.45226400891E+02  0.00000000000E+00 0. -1.
         21    1    1    2  502  501  0.49745321013E+01  0.31094540416E+02  0.77349394820E+02  0.83513743134E+02  0.00000000000E+00 0.  1.
<scales pt_clust_5="13000.00000" pt_clust_6="13000.00000" pt_clust_7="13000.00000" pt_clust_8="13000.00000" pt_clust_9="31.48994"></scales>
<clustering>
<clus scale="   31.490">  1  9  2 -1</clus>
<clus scale="   88.404">  5  6 -1 -1</clus>
<clus scale="   91.651">  7  8 -1 -1</clus>
<clus scale="  102.160">  2  5  1 -1</clus>
<clus scale="  102.160">  2  5  1 -1</clus>
</clustering>
</event>
<event>
 9    1  0.1484717E-005  0.1373092E+03  0.7546771E-02  0.1217172E+00
         -1   -1    0    0    0  501 -0.00000000000E+00  0.00000000000E+00  0.72706061649E+03  0.72706061649E+03  0.00000000000E+00 0.  1.
          1   -1    0    0  502    0  0.00000000000E+00 -0.00000000000E+00 -0.32496759686E+02  0.32496759686E+02  0.00000000000E+00 0. -1.
         23    2    1    2    0    0 -0.65254874252E+01 -0.77470157686E+02  0.34200718058E+03  0.36515389461E+03  0.10160830607E+03 0.  0.
         23    2    1    2    0    0  0.24100426877E+02  0.10208698073E+03  0.27477418959E+03  0.31094701567E+03  0.10091882419E+03 0.  0.
        -11    1    3    3    0    0 -0.48035385670E+02 -0.69118030796E+02  0.25198511701E+03  0.26567122473E+03  0.00000000000E+00 0.  1.
         11    1    3    3    0    0  0.41509898245E+02 -0.83521268897E+01  0.90022063572E+02  0.99482669876E+02  0.00000000000E+00 0. -1.
        -13    1    4    4    0    0  0.59192528869E+02  0.66762472632E+02  0.21729444214E+03  0.23489967606E+03  0.00000000000E+00 0. -1.
         13    1    4    4    0    0 -0.35092101992E+02  0.35324508103E+02  0.57479747447E+02  0.76047339608E+02  0.00000000000E+00 0.  1.
         21    1    1    2  502  501 -0.17574939452E+02 -0.24616823049E+02  0.77782486632E+02  0.83456465900E+02  0.00000000000E+00 0.  1.
<scales pt_clust_5="13000.00000" pt_clust_6="13000.00000" pt_clust_7="13000.00000" pt_clust_8="13000.00000" pt_clust_9="30.24676"></scales>
<clustering>
<clus scale="   30.247">  1  9  2 -1</clus>
<clus scale="  100.919">  7  8 -1 -1</clus>
<clus scale="  101.608">  5  6 -1 -1</clus>
<clus scale="  136.800">  2  7  1 -1</clus>
<clus scale="  136.800">  2  5  1 -1</clus>
</clustering>
</event>
<event>
 9    1  0.1484717E-005  0.1630501E+03  0.7546771E-02  0.1208479E+00
         -1   -1    0    0    0  501 -0.00000000000E+00  0.00000000000E+00  0.29909038307E+03  0.29909038307E+03  0.00000000000E+00 0.  1.
          1   -1    0    0  502    0  0.00000000000E+00 -0.00000000000E+00 -0.40364648691E+03  0.40364648691E+03  0.00000000000E+00 0. -1.
         23    2    1    2    0    0 -0.82442936362E+02 -0.72959309007E+02 -0.33568608608E+01  0.14238606211E+03  0.90236487301E+02 0.  0.
         23    2    1    2    0    0 -0.13987217367E+02 -0.34350431019E+02 -0.29944839724E+03  0.31516336526E+03  0.91011042377E+02 0.  0.
        -13    1    4    4    0    0  0.30189018450E+02  0.70283210836E+01 -0.53072028729E+02  0.61460673326E+02  0.00000000000E+00 0.  1.
         13    1    4    4    0    0 -0.44176235817E+02 -0.41378752103E+02 -0.24637636851E+03  0.25370269194E+03  0.00000000000E+00 0. -1.
        -13    1    3    3    0    0 -0.25611983676E+02 -0.69180529062E+02  0.26116089541E+02  0.78255794942E+02  0.00000000000E+00 0. -1.
         13    1    3    3    0    0 -0.56830952686E+02 -0.37787799449E+01 -0.29472950402E+02  0.64130267164E+02  0.00000000000E+00 0.  1.
         21    1    1    2  502  501  0.96430153729E+02  0.10730974003E+03  0.19824915426E+03  0.24518744261E+03  0.00000000000E+00 0.  1.
<scales pt_clust_5="13000.00000" pt_clust_6="13000.00000" pt_clust_7="13000.00000" pt_clust_8="13000.00000" pt_clust_9="135.80395"></scales>
<clustering>
<clus scale="   90.236">  7  8 -1 -1</clus>
<clus scale="   91.011">  5  6 -1 -1</clus>
<clus scale="   98.278">  2  5  1 -1</clus>
<clus scale="  135.804">  1  9  2 -1</clus>
<clus scale="   98.278">  2  5  1 -1</clus>
</clustering>
</event>
<event>
 9    1  0.1484717E-005  0.1146196E+03  0.7546771E-02  0.1252999E+00
         -1   -1    0    0    0  501 -0.00000000000E+00  0.00000000000E+00  0.48867179051E+02  0.48867179051E+02  0.00000000000E+00 0.  1.
          1   -1    0    0  502    0  0.00000000000E+00 -0.00000000000E+00 -0.52911854506E+03  0.52911854506E+03  0.00000000000E+00 0. -1.
         23    2    1    2    0    0 -0.69430797967E+02 -0.26229282836E+02 -0.66387956548E+02  0.13558214845E+03  0.92013842542E+02 0.  0.
         23    2    1    2    0    0  0.68038091784E+02 -0.31228561988E+01 -0.38514110886E+03  0.40131272208E+03  0.89884887506E+02 0.  0.
        -11    1    4    4    0    0 -0.30796181815E+01  0.27356607320E+02 -0.47331320327E+02  0.54755108401E+02  0.00000000000E+00 0.  1.
         11    1    4    4    0    0  0.71117709966E+02 -0.30479463519E+02 -0.33780978853E+03  0.34655761367E+03  0.00000000000E+00 0. -1.
        -13    1    3    3    0    0 -0.19581110163E+01 -0.43068844552E+02 -0.60949155176E+01  0.43542020680E+02  0.00000000000E+00 0. -1.
         13    1    3    3    0    0 -0.67472686951E+02  0.16839561716E+02 -0.60293041030E+02  0.92040127770E+02  0.00000000000E+00 0.  1.
         21    1    1    2  502  501  0.13927061831E+01  0.29352139034E+02 -0.28722300598E+02  0.41090853581E+02  0.00000000000E+00 0. -1.
<scales pt_clust_5="13000.00000" pt_clust_6="13000.00000" pt_clust_7="13000.00000" pt_clust_8="13000.00000" pt_clust_9="29.38516"></scales>
<clustering>
<clus scale="   29.385">  1  9  2 -1</clus>
<clus scale="   89.885">  5  6 -1 -1</clus>
<clus scale="   92.014">  7  8 -1 -1</clus>
<clus scale="  112.918">  2  5  1 -1</clus>
<clus scale="  112.918">  2  5  1 -1</clus>
</clustering>
</event>
<event>
 9    1  0.1484717E-005  0.1405573E+03  0.7546771E-02  0.1213255E+00
         -1   -1    0    0    0  501 -0.00000000000E+00  0.00000000000E+00  0.93776679421E+02  0.93776679421E+02  0.00000000000E+00 0.  1.
          1   -1    0    0  502    0  0.00000000000E+00 -0.00000000000E+00 -0.34996535716E+03  0.34996535716E+03  0.00000000000E+00 0. -1.
         23    2    1    2    0    0 -0.76372171059E+02  0.41369696624E+01 -0.26980312207E+01  0.11549248803E+03  0.86495158186E+02 0.  0.
         23    2    1    2    0    0  0.11771043045E+03 -0.30706799813E+02 -0.22620341407E+03  0.27204100277E+03  0.89664205011E+02 0.  0.
        -11    1    3    3    0    0 -0.78318057579E+02 -0.23569437222E+02 -0.18052277257E+02  0.83756320526E+02  0.00000000000E+00 0.  1.
         11    1    3    3    0    0  0.19458865198E+01  0.27706406884E+02  0.15354246036E+02  0.31736167508E+02  0.00000000000E+00 0. -1.
        -13    1    4    4    0    0  0.27168630131E+02 -0.44633901503E+02 -0.44837184680E+02  0.68852688811E+02  0.00000000000E+00 0.  1.
         13    1    4    4    0    0  0.90541800318E+02  0.13927101690E+02 -0.18136622939E+03  0.20318831396E+03  0.00000000000E+00 0. -1.
         21    1    1    2  502  501 -0.41338259390E+02  0.26569830150E+02 -0.27287232448E+02  0.56208545776E+02  0.00000000000E+00 0. -1.
<scales pt_clust_5="13000.00000" pt_clust_6="13000.00000" pt_clust_7="13000.00000" pt_clust_8="13000.00000" pt_clust_9="49.14069"></scales>
<clustering>
<clus scale="   49.141">  1  9  2 -1</clus>
<clus scale="   86.495">  5  6 -1 -1</clus>
<clus scale="   89.664">  7  8 -1 -1</clus>
<clus scale="  138.557">  1  5  2 -1</clus>
<clus scale="  140.557">  2  5  1 -1</clus>
</clustering>
</event>
<event>
 9    1  0.1484717E-005  0.1070808E+03  0.7546771E-02  0.1277484E+00
         -1   -1    0    0    0  501 -0.00000000000E+00  0.00000000000E+00  0.28220521016E+03  0.28220521016E+03  0.00000000000E+00 0.  1.
          1   -1    0    0  502    0  0.00000000000E+00 -0.00000000000E+00 -0.49018846487E+02  0.49018846487E+02  0.00000000000E+00 0. -1.
         23    2    1    2    0    0  0.12054350835E+02 -0.42067772098E+02  0.72033695864E+02  0.11155240496E+03  0.73075857096E+02 0.  0.
         23    2    1    2    0    0 -0.31923247136E+02  0.37364507670E+02  0.77544848278E+02  0.13360678531E+03  0.97068890207E+02 0.  0.
        -11    1    3    3    0    0  0.35679010120E+02 -0.17835682845E+02  0.66086147661E+02  0.77191205836E+02  0.00000000000E+00 0. -1.
         11    1    3    3    0    0 -0.23624659286E+02 -0.24232089253E+02  0.59475482027E+01  0.34361199129E+02  0.00000000000E+00 0.  1.
        -13    1    4    4    0    0  0.25059026977E+02  0.19224370158E+02 -0.46876662070E+01  0.31929695512E+02  0.00000000000E+00 0. -1.
         13    1    4    4    0    0 -0.56982274112E+02  0.18140137512E+02  0.82232514485E+02  0.10167708980E+03  0.00000000000E+00 0.  1.
         21    1    1    2  502  501  0.19868896301E+02  0.47032644278E+01  0.83607819536E+02  0.86064866375E+02  0.00000000000E+00 0.  1.
<scales pt_clust_5="13000.00000" pt_clust_6="13000.00000" pt_clust_7="13000.00000" pt_clust_8="13000.00000" pt_clust_9="20.41798"></scales>
<clustering>
<clus scale="   20.418">  1  9  2 -1</clus>
<clus scale="   73.076">  5  6 -1 -1</clus>
<clus scale="   85.930">  1  5  2 -1</clus>
<clus scale="   97.069">  7  8 -1 -1</clus>
<clus scale="  107.081">  2  5  1 -1</clus>
</clustering>
</event>
<event>
 9    1  0.1484717E-005  0.9331794E+02  0.7546771E-02  0.1295654E+00
          1   -1    0    0  502    0  0.00000000000E+00  0.00000000000E+00  0.87219836409E+02  0.87219836409E+02  0.00000000000E+00 0. -1.
         -1   -1    0    0    0  501 -0.00000000000E+00 -0.00000000000E+00 -0.44307432467E+03  0.44307432467E+03  0.00000000000E+00 0.  1.
         23    2    1    2    0    0 -0.20982414429E+02 -0.15035665056E+02 -0.43346354916E+02  0.10369765052E+03  0.90597810683E+02 0.  0.
         23    2    1    2    0    0 -0.40246838799E+02 -0.22221237084E+02  0.34002163017E+01  0.10265950497E+03  0.91726883082E+02 0.  0.
        -13    1    4    4    0    0 -0.22230376048E+01 -0.53371673999E+02  0.30269864340E+01  0.53503645937E+02  0.00000000000E+00 0. -1.
         13    1    4    4    0    0 -0.38023801194E+02  0.31150436915E+02  0.37322986762E+00  0.49155859038E+02  0.00000000000E+00 0.  1.
        -13    1    3    3    0    0  0.31535240184E+02  0.83668900940E+01 -0.30759748378E+02  0.44840142101E+02  0.00000000000E+00 0.  1.
         13    1    3    3    0    0 -0.52517654613E+02 -0.23402555150E+02 -0.12586606538E+02  0.58857508423E+02  0.00000000000E+00 0. -1.
         21    1    1    2  502  501  0.61229253227E+02  0.37256902140E+02 -0.31590834965E+03  0.32393700559E+03  0.00000000000E+00 0.  1.
<scales pt_clust_5="13000.00000" pt_clust_6="13000.00000" pt_clust_7="13000.00000" pt_clust_8="13000.00000" pt_clust_9="71.67355"></scales>
<clustering>
<clus scale="   71.674">  2  9  1 -1</clus>
<clus scale="   90.598">  7  8 -1 -1</clus>
<clus scale="   91.727">  5  6 -1 -1</clus>
<clus scale="   92.208">  2  7  1 -1</clus>
<clus scale="   93.318">  1  5  2 -1</clus>
</clustering>
</event>
<event>
 9    1  0.1484717E-005  0.1000300E+03  0.7546771E-02  0.1281789E+00
         -2   -1    0    0    0  501 -0.00000000000E+00  0.00000000000E+00  0.25109252460E+02  0.25109252460E+02  0.00000000000E+00 0.  1.
          2   -1    0    0  502    0  0.00000000000E+00 -0.00000000000E+00 -0.81390648245E+03  0.81390648245E+03  0.00000000000E+00 0. -1.
         23    2    1    2    0    0 -0.39208853123E+02 -0.27825047856E+02 -0.15830952835E+03  0.18782924649E+03  0.88917667645E+02 0.  0.
         23    2    1    2    0    0 -0.90837828345E+01  0.40796974949E+02 -0.29182327329E+03  0.30885033110E+03  0.92091236878E+02 0.  0.
        -11    1    4    4    0    0 -0.39385984085E+02 -0.74443428759E+01 -0.79721797896E+02  0.89231379251E+02  0.00000000000E+00 0. -1.
         11    1    4    4    0    0  0.30302201250E+02  0.48241317825E+02 -0.21210147539E+03  0.21961895185E+03  0.00000000000E+00 0.  1.
        -13    1    3    3    0    0  0.21396093346E+02 -0.29289690431E+02 -0.86844244393E+02  0.94114831776E+02  0.00000000000E+00 0. -1.
         13    1    3    3    0    0 -0.60604946468E+02  0.14646425754E+01 -0.71465283960E+02  0.93714414717E+02  0.00000000000E+00 0.  1.
         21    1    1    2  502  501  0.48292635957E+02 -0.12971927093E+02 -0.33866442834E+03  0.34233615731E+03  0.00000000000E+00 0. -1.
<scales pt_clust_5="13000.00000" pt_clust_6="13000.00000" pt_clust_7="13000.00000" pt_clust_8="13000.00000" pt_clust_9="50.00450"></scales>
<clustering>
<clus scale="   50.004">  2  9  1 -1</clus>
<clus scale="   88.918">  7  8 -1 -1</clus>
<clus scale="   92.091">  5  6 -1 -1</clus>
<clus scale="   97.116">  1  7  2 -1</clus>
<clus scale="   50.004">  2  5  1 -1</clus>
</clustering>
</event>
<event>
 9    1  0.1484717E-005  0.1032236E+03  0.7546771E-02  0.1277080E+00
         -2   -1    0    0    0  501 -0.00000000000E+00  0.00000000000E+00  0.37240100415E+02  0.37240100415E+02  0.00000000000E+00 0. -1.
          2   -1    0    0  502    0  0.00000000000E+00 -0.00000000000E+00 -0.35509156001E+03  0.35509156001E+03  0.00000000000E+00 0.  1.
         23    2    1    2    0    0  0.33660092085E+02  0.27232052325E+02 -0.12747147320E+03  0.16670259717E+03  0.98316798928E+02 0.  0.
         23    2    1    2    0    0 -0.20136321855E+02 -0.33746547275E+01 -0.14640348511E+03  0.17380242486E+03  0.91413580413E+02 0.  0.
        -11    1    3    3    0    0 -0.23860934340E+02  0.36793260872E+02 -0.30039952311E+02  0.53155309876E+02  0.00000000000E+00 0. -1.
         11    1    3    3    0    0  0.57521026424E+02 -0.95612085466E+01 -0.97431520889E+02  0.11354728730E+03  0.00000000000E+00 0.  1.
        -11    1    4    4    0    0 -0.52078155747E+02 -0.16709156864E+02 -0.62570143990E+02  0.83104471288E+02  0.00000000000E+00 0.  1.
         11    1    4    4    0    0  0.31941833892E+02  0.13334502137E+02 -0.83833341115E+02  0.90697953572E+02  0.00000000000E+00 0. -1.
         21    1    1    2  502  501 -0.13523770229E+02 -0.23857397598E+02 -0.43976501288E+02  0.51826638391E+02  0.00000000000E+00 0. -1.
<scales pt_clust_5="13000.00000" pt_clust_6="13000.00000" pt_clust_7="13000.00000" pt_clust_8="13000.00000" pt_clust_9="27.42385"></scales>
<clustering>
<clus scale="   27.424">  2  9  1 -1</clus>
<clus scale="   91.414">  7  8 -1 -1</clus>
<clus scale="   96.671">  2  7  1 -1</clus>
<clus scale="   98.317">  5  6 -1 -1</clus>
<clus scale="   27.424">  2  5  1 -1</clus>
</clustering>
</event>
<event>
 9    1  0.1484717E-005  0.9103970E+02  0.7546771E-02  0.1301547E+00
         -2   -1    0    0    0  501 -0.00000000000E+00  0.00000000000E+00  0.15890270162E+02  0.15890270162E+02  0.00000000000E+00 0.  1.
          2   -1    0    0  502    0  0.00000000000E+00 -0.00000000000E+00 -0.64500614107E+03  0.64500614107E+03  0.00000000000E+00 0. -1.
         23    2    1    2    0    0  0.51989237292E+01  0.17316665526E+02 -0.27333882306E+03  0.28852255931E+03  0.90577366536E+02 0.  0.
         23    2    1    2    0    0 -0.64923321778E+01  0.36740767972E+01 -0.28782155225E+03  0.30123853333E+03  0.88587577037E+02 0.  0.
        -13    1    4    4    0    0 -0.33453901805E+02  0.24262893989E+02 -0.23397594909E+03  0.23759755118E+03  0.00000000000E+00 0.  1.
         13    1    4    4    0    0  0.26961569627E+02 -0.20588817192E+02 -0.53845603155E+02  0.63640982152E+02  0.00000000000E+00 0. -1.
        -13    1    3    3    0    0 -0.27112652259E+02 -0.84641104984E+01 -0.28564166699E+02  0.40282113875E+02  0.00000000000E+00 0.  1.
         13    1    3    3    0    0  0.32311575988E+02  0.25780776024E+02 -0.24477465636E+03  0.24824044543E+03  0.00000000000E+00 0. -1.
         21    1    1    2  502  501  0.12934084486E+01 -0.20990742323E+02 -0.67955495600E+02  0.71135318590E+02  0.00000000000E+00 0.  1.
<scales pt_clust_5="13000.00000" pt_clust_6="13000.00000" pt_clust_7="13000.00000" pt_clust_8="13000.00000" pt_clust_9="21.03055"></scales>
<clustering>
<clus scale="   21.031">  2  9  1 -1</clus>
<clus scale="   88.588">  5  6 -1 -1</clus>
<clus scale="   89.060">  2  5  1 -1</clus>
<clus scale="   90.577">  7  8 -1 -1</clus>
<clus scale="   21.031">  2  5  1 -1</clus>
</clustering>
</event>
<event>
 9    1  0.1484717E-005  0.1502572E+03  0.7546771E-02  0.1201425E+00
          1   -1    0    0  502    0  0.00000000000E+00  0.00000000000E+00  0.20760708932E+03  0.20760708932E+03  0.00000000000E+00 0. -1.
         -1   -1    0    0    0  501 -0.00000000000E+00 -0.00000000000E+00 -0.24920146780E+03  0.24920146780E+03  0.00000000000E+00 0.  1.
         23    2    1    2    0    0 -0.85110326405E+02 -0.44034266426E+02 -0.17420897651E+03  0.21843519974E+03  0.90456534899E+02 0.  0.
         23    2    1    2    0    0  0.10573443907E+03  0.64643197316E+02  0.14356553287E+03  0.20722845364E+03  0.83510808907E+02 0.  0.
        -11    1    3    3    0    0 -0.56260839979E+02  0.19791481649E+02 -0.99667929235E+02  0.11614939078E+03  0.00000000000E+00 0.  1.
         11    1    3    3    0    0 -0.28849486426E+02 -0.63825748075E+02 -0.74541047279E+02  0.10228580896E+03  0.00000000000E+00 0. -1.
        -11    1    4    4    0    0  0.23553586825E+02  0.59632261294E+02  0.83683091732E+02  0.10542124018E+03  0.00000000000E+00 0. -1.
         11    1    4    4    0    0  0.82180852243E+02  0.50109360223E+01  0.59882441137E+02  0.10180721346E+03  0.00000000000E+00 0.  1.
         21    1    1    2  502  501 -0.20624112663E+02 -0.20608930890E+02 -0.10950934836E+02  0.31144903746E+02  0.00000000000E+00 0.  1.
<scales pt_clust_5="13000.00000" pt_clust_6="13000.00000" pt_clust_7="13000.00000" pt_clust_8="13000.00000" pt_clust_9="29.15617"></scales>
<clustering>
<clus scale="   29.156">  2  9  1 -1</clus>
<clus scale="   83.511">  7  8 -1 -1</clus>
<clus scale="   90.457">  5  6 -1 -1</clus>
<clus scale="  146.181">  1  7  2 -1</clus>
<clus scale="  146.181">  1  5  2 -1</clus>
</clustering>
</event>
<event>
 9    1  0.1484717E-005  0.1484898E+03  0.7546771E-02  0.1202708E+00
         -2   -1    0    0    0  501 -0.00000000000E+00  0.00000000000E+00  0.14125302304E+03  0.14125302304E+03  0.00000000000E+00 0.  1.
          2   -1    0    0  502    0  0.00000000000E+00 -0.00000000000E+00 -0.46852335667E+03  0.46852335667E+03  0.00000000000E+00 0. -1.
         23    2    1    2    0    0  0.99242095402E+02 -0.42160209035E+02  0.45949090655E+02  0.14933790139E+03  0.92541953365E+02 0.  0.
         23    2    1    2    0    0 -0.16441078910E+03  0.53447635211E+02 -0.32296373445E+03  0.37737224579E+03  0.90645909132E+02 0.  0.
        -11    1    3    3    0    0  0.49301610670E+02 -0.53972756342E+02 -0.95810089183E+01  0.73725863668E+02  0.00000000000E+00 0. -1.
         11    1    3    3    0    0  0.49940484733E+02  0.11812547307E+02  0.55530099573E+02  0.75612037718E+02  0.00000000000E+00 0.  1.
        -13    1    4    4    0    0 -0.11360574545E+02 -0.21844549630E+02 -0.39285360482E+02  0.46363633924E+02  0.00000000000E+00 0.  1.
         13    1    4    4    0    0 -0.15305021455E+03  0.75292184841E+02 -0.28367837397E+03  0.33100861187E+03  0.00000000000E+00 0. -1.
         21    1    1    2  502  501  0.65168693693E+02 -0.11287426176E+02 -0.50255689829E+02  0.83066232534E+02  0.00000000000E+00 0.  1.
<scales pt_clust_5="13000.00000" pt_clust_6="13000.00000" pt_clust_7="13000.00000" pt_clust_8="13000.00000" pt_clust_9="66.13898"></scales>
<clustering>
<clus scale="   66.139">  2  9  1 -1</clus>
<clus scale="   90.646">  7  8 -1 -1</clus>
<clus scale="   92.542">  5  6 -1 -1</clus>
<clus scale="  147.316">  2  7  1 -1</clus>
<clus scale="   66.139">  2  5  1 -1</clus>
</clustering>
</event>
<event>
 9    1  0.2464675E-005  0.9984960E+02  0.7546771E-02  0.1281547E+00
          1   -1    0    0  502    0  0.00000000000E+00  0.00000000000E+00  0.26217038893E+03  0.26217038893E+03  0.00000000000E+00 0. -1.
         -1   -1    0    0    0  501 -0.00000000000E+00 -0.00000000000E+00 -0.11441140716E+03  0.11441140716E+03  0.00000000000E+00 0.  1.
         23    2    1    2    0    0 -0.30172209571E+02  0.23811267431E+02 -0.62930634430E+02  0.11761813699E+03  0.91631996111E+02 0.  0.
         23    2    1    2    0    0  0.35549632125E+02  0.55238062786E+01  0.20559285994E+03  0.22870741765E+03  0.93511336480E+02 0.  0.
        -13    1    3    3    0    0  0.44364151316E+01 -0.26915405030E+02  0.30904593475E+01  0.27453082634E+02  0.00000000000E+00 0.  1.
         13    1    3    3    0    0 -0.34608624703E+02  0.50726672461E+02 -0.66021093777E+02  0.90165054352E+02  0.00000000000E+00 0. -1.
        -13    1    4    4    0    0  0.67409177086E+02  0.16335978716E+01  0.15114123184E+03  0.16550026513E+03  0.00000000000E+00 0. -1.
         13    1    4    4    0    0 -0.31859544960E+02  0.38902084070E+01  0.54451628097E+02  0.63207152514E+02  0.00000000000E+00 0.  1.
         21    1    1    2  502  501 -0.53774225542E+01 -0.29335073709E+02  0.50967562672E+01  0.30256241460E+02  0.00000000000E+00 0.  1.
<scales pt_clust_5="13000.00000" pt_clust_6="13000.00000" pt_clust_7="13000.00000" pt_clust_8="13000.00000" pt_clust_9="29.82387"></scales>
<clustering>
<clus scale="   29.824">  2  9  1 -1</clus>
<clus scale="   91.632">  5  6 -1 -1</clus>
<clus scale="   93.511">  7  8 -1 -1</clus>
<clus scale="   98.092">  2  5  1 -1</clus>
<clus scale="   99.850">  1  5  2 -1</clus>
</clustering>
</event>
<event>
 9    1  0.1484717E-005  0.1260589E+03  0.7546771E-02  0.1233764E+00
         -1   -1    0    0    0  501 -0.00000000000E+00  0.00000000000E+00  0.25854608063E+03  0.25854608063E+03  0.00000000000E+00 0.  1.
          1   -1    0    0  502    0  0.00000000000E+00 -0.00000000000E+00 -0.10914705503E+03  0.10914705503E+03  0.00000000000E+00 0. -1.
         23    2    1    2    0    0 -0.91706894928E+02 -0.38572684858E+02  0.13692126643E+03  0.19372158216E+03  0.94247607932E+02 0.  0.
         23    2    1    2    0    0  0.73225344760E+02  0.25138341549E+02 -0.29335364676E+02  0.12632297952E+03  0.95409874761E+02 0.  0.
        -11    1    4    4    0    0  0.86049193370E+01  0.20415767688E+02 -0.52920613141E+02  0.57371068513E+02  0.00000000000E+00 0.  1.
         11    1    4    4    0    0  0.64620425423E+02  0.47225738607E+01  0.23585248465E+02  0.68951911002E+02  0.00000000000E+00 0. -1.
        -13    1    3    3    0    0 -0.30552173480E+02 -0.12199187605E+02 -0.83247871102E+01  0.33934607158E+02  0.00000000000E+00 0. -1.
         13    1    3    3    0    0 -0.61154721448E+02 -0.26373497254E+02  0.14524605354E+03  0.15978697500E+03  0.00000000000E+00 0.  1.
         21    1    1    2  502  501  0.18481550168E+02  0.13434343310E+02  0.41813123851E+02  0.47648573987E+02  0.00000000000E+00 0. -1.
<scales pt_clust_5="13000.00000" pt_clust_6="13000.00000" pt_clust_7="13000.00000" pt_clust_8="13000.00000" pt_clust_9="22.84840"></scales>
<clustering>
<clus scale="   22.848">  1  9  2 -1</clus>
<clus scale="   94.248">  7  8 -1 -1</clus>
<clus scale="   95.410">  5  6 -1 -1</clus>
<clus scale="  125.182">  1  7  2 -1</clus>
<clus scale="  126.059">  2  5  1 -1</clus>
</clustering>
</event>
<event>
 9    1  0.1484717E-005  0.9425900E+02  0.7546771E-02  0.1293914E+00
          2   -1    0    0  502    0  0.00000000000E+00  0.00000000000E+00  0.24061516086E+03  0.24061516086E+03  0.00000000000E+00 0. -1.
         -2   -1    0    0    0  501 -0.00000000000E+00 -0.00000000000E+00 -0.12283968662E+03  0.12283968662E+03  0.00000000000E+00 0.  1.
         23    2    1    2    0    0 -0.28049484493E+01  0.19331576773E+02 -0.72191699859E+02  0.11799887482E+03  0.91271656798E+02 0.  0.
         23    2    1    2    0    0 -0.16588122758E+02  0.23513132661E+02  0.16640245803E+03  0.19285315732E+03  0.93137151700E+02 0.  0.
        -11    1    4    4    0    0 -0.54944548180E+01 -0.22767354352E+02  0.13216928430E+03  0.13422839182E+03  0.00000000000E+00 0.  1.
         11    1    4    4    0    0 -0.11093667940E+02  0.46280487013E+02  0.34233173724E+02  0.58624765498E+02  0.00000000000E+00 0. -1.
        -13    1    3    3    0    0 -0.40277676193E+01  0.44184796071E+02 -0.30005568576E+01  0.44469342892E+02  0.00000000000E+00 0. -1.
         13    1    3    3    0    0  0.12228191700E+01 -0.24853219297E+02 -0.69191143002E+02  0.73529531931E+02  0.00000000000E+00 0.  1.
         21    1    1    2  502  501  0.19393071208E+02 -0.42844709434E+02  0.23564716067E+02  0.52602815331E+02  0.00000000000E+00 0.  1.
<scales pt_clust_5="13000.00000" pt_clust_6="13000.00000" pt_clust_7="13000.00000" pt_clust_8="13000.00000" pt_clust_9="47.02936"></scales>
<clustering>
<clus scale="   47.029">  1  9  2 -1</clus>
<clus scale="   91.272">  7  8 -1 -1</clus>
<clus scale="   92.416">  2  7  1 -1</clus>
<clus scale="   93.137">  5  6 -1 -1</clus>
<clus scale="   47.029">  1  5  2 -1</clus>
</clustering>
</event>
<event>
 9    1  0.1484717E-005  0.1612465E+03  0.7546771E-02  0.1187999E+00
          1   -1    0    0  502    0  0.00000000000E+00  0.00000000000E+00  0.35455206784E+03  0.35455206784E+03  0.00000000000E+00 0. -1.
         -1   -1    0    0    0  501 -0.00000000000E+00 -0.00000000000E+00 -0.12716186300E+03  0.12716186300E+03  0.00000000000E+00 0.  1.
         23    2    1    2    0    0  0.35715860395E+02 -0.13035490679E+03 -0.16595854365E+02  0.16395032278E+03  0.91303130012E+02 0.  0.
         23    2    1    2    0    0 -0.15319711052E+02  0.13175945949E+03  0.25037315473E+03  0.29634467564E+03  0.86822816470E+02 0.  0.
        -11    1    4    4    0    0  0.31086660502E+02  0.87405869906E+02  0.16800451237E+03  0.19191582200E+03  0.00000000000E+00 0. -1.
         11    1    4    4    0    0 -0.46406371554E+02  0.44353589580E+02  0.82368642361E+02  0.10442885365E+03  0.00000000000E+00 0.  1.
        -13    1    3    3    0    0  0.59422950034E+02 -0.11841359783E+03 -0.27400364094E+02  0.13529097196E+03  0.00000000000E+00 0.  1.
         13    1    3    3    0    0 -0.23707089640E+02 -0.11941308957E+02  0.10804509729E+02  0.28659350818E+02  0.00000000000E+00 0. -1.
         21    1    1    2  502  501 -0.20396149343E+02 -0.14045527012E+01 -0.63870955293E+01  0.21418932411E+02  0.00000000000E+00 0. -1.
<scales pt_clust_5="13000.00000" pt_clust_6="13000.00000" pt_clust_7="13000.00000" pt_clust_8="13000.00000" pt_clust_9="20.44445"></scales>
<clustering>
<clus scale="   20.444">  2  9  1 -1</clus>
<clus scale="   86.823">  5  6 -1 -1</clus>
<clus scale="   91.303">  7  8 -1 -1</clus>
<clus scale="  158.753">  1  5  2 -1</clus>
<clus scale="  158.753">  1  5  2 -1</clus>
</clustering>
</event>
<event>
 9    1  0.1484717E-005  0.9032575E+02  0.7546771E-02  0.1302102E+00
         -4   -1    0    0    0  501 -0.00000000000E+00  0.00000000000E+00  0.24163603749E+03  0.24163603749E+03  0.00000000000E+00 0.  1.
          4   -1    0    0  502    0  0.00000000000E+00 -0.00000000000E+00 -0.63482844110E+02  0.63482844110E+02  0.00000000000E+00 0. -1.
         23    2    1    2    0    0 -0.14490268669E+02  0.12488592832E+01  0.10243256270E+03  0.13719159247E+03  0.90097589348E+02 0.  0.
         23    2    1    2    0    0 -0.46327059770E+01 -0.83452860746E+01  0.10774634478E+01  0.90547383171E+02  0.90036447660E+02 0.  0.
        -13    1    3    3    0    0  0.81541166372E+01  0.39591375331E+02  0.74111535553E+02  0.84418518826E+02  0.00000000000E+00 0.  1.
         13    1    3    3    0    0 -0.22644385306E+02 -0.38342516048E+02  0.28321027149E+02  0.52773073641E+02  0.00000000000E+00 0. -1.
        -13    1    4    4    0    0  0.33227859947E+02  0.21969728772E+01  0.27502107734E+02  0.43188925621E+02  0.00000000000E+00 0.  1.
         13    1    4    4    0    0 -0.37860565924E+02 -0.10542258952E+02 -0.26424644286E+02  0.47358457550E+02  0.00000000000E+00 0. -1.
         21    1    1    2  502  501  0.19122974646E+02  0.70964267914E+01  0.74643167234E+02  0.77379905966E+02  0.00000000000E+00 0.  1.
<scales pt_clust_5="13000.00000" pt_clust_6="13000.00000" pt_clust_7="13000.00000" pt_clust_8="13000.00000" pt_clust_9="20.39724"></scales>
<clustering>
<clus scale="   20.397">  1  9  2 -1</clus>
<clus scale="   90.036">  7  8 -1 -1</clus>
<clus scale="   90.098">  5  6 -1 -1</clus>
<clus scale="   90.265">  2  7  1 -1</clus>
<clus scale="   90.265">  2  5  1 -1</clus>
</clustering>
</event>
<event>
 9    1  0.1484717E-005  0.1287739E+03  0.7546771E-02  0.1231774E+00
          2   -1    0    0  502    0  0.00000000000E+00  0.00000000000E+00  0.16027961566E+03  0.16027961566E+03  0.00000000000E+00 0. -1.
         -2   -1    0    0    0  501 -0.00000000000E+00 -0.00000000000E+00 -0.16932966930E+03  0.16932966930E+03  0.00000000000E+00 0.  1.
         23    2    1    2    0    0  0.43721854596E+02 -0.66168036906E+02  0.12611173362E+02  0.11439116693E+03  0.81464640807E+02 0.  0.
         23    2    1    2    0    0 -0.45329762102E+02  0.93011765745E+02  0.43763030573E+02  0.14448266281E+03  0.90851863542E+02 0.  0.
        -11    1    3    3    0    0  0.67980136035E+02 -0.47134356266E+02  0.11683064508E+02  0.83543045385E+02  0.00000000000E+00 0.  1.
         11    1    3    3    0    0 -0.24258281439E+02 -0.19033680641E+02  0.92810885457E+00  0.30848121550E+02  0.00000000000E+00 0. -1.
        -13    1    4    4    0    0 -0.36462333845E+02  0.49287217546E+02  0.69739626606E+02  0.92856594392E+02  0.00000000000E+00 0. -1.
         13    1    4    4    0    0 -0.88674282575E+01  0.43724548198E+02 -0.25976596033E+02  0.51626068420E+02  0.00000000000E+00 0.  1.
         21    1    1    2  502  501  0.16079075059E+01 -0.26843728838E+02 -0.65424257575E+02  0.70735455210E+02  0.00000000000E+00 0.  1.
<scales pt_clust_5="13000.00000" pt_clust_6="13000.00000" pt_clust_7="13000.00000" pt_clust_8="13000.00000" pt_clust_9="26.89184"></scales>
<clustering>
<clus scale="   26.892">  2  9  1 -1</clus>
<clus scale="   81.465">  5  6 -1 -1</clus>
<clus scale="   90.852">  7  8 -1 -1</clus>
<clus scale="  122.332">  2  5  1 -1</clus>
<clus scale="  128.774">  1  5  2 -1</clus>
</clustering>
</event>
<event>
 9    1  0.1484717E-005  0.9274616E+02  0.7546771E-02  0.1297229E+00
          2   -1    0    0  502    0  0.00000000000E+00  0.00000000000E+00  0.38045859078E+03  0.38045859078E+03  0.00000000000E+00 0. -1.
         -2   -1    0    0    0  501 -0.00000000000E+00 -0.00000000000E+00 -0.37302870359E+02  0.37302870359E+02  0.00000000000E+00 0.  1.
         23    2    1    2    0    0 -0.59027135774E+01 -0.58500182385E+01  0.61212925553E+02  0.11004523364E+03  0.91070667353E+02 0.  0.
         23    2    1    2    0    0  0.27438385720E+01 -0.21439859305E+02  0.23171334309E+03  0.25046490669E+03  0.92598055603E+02 0.  0.
        -11    1    4    4    0    0  0.44647862899E+02 -0.25238203951E+02  0.15050461680E+03  0.15900326499E+03  0.00000000000E+00 0.  1.
         11    1    4    4    0    0 -0.41904024327E+02  0.37983446467E+01  0.81208726295E+02  0.91461641705E+02  0.00000000000E+00 0. -1.
        -13    1    3    3    0    0  0.20182635060E+02  0.21888304575E+02 -0.81936848512E+01  0.30879979057E+02  0.00000000000E+00 0.  1.
         13    1    3    3    0    0 -0.26085348638E+02 -0.27738322813E+02  0.69406610405E+02  0.79165254587E+02  0.00000000000E+00 0. -1.
         21    1    1    2  502  501  0.31588750054E+01  0.27289877543E+02  0.50229451774E+02  0.57251320798E+02  0.00000000000E+00 0.  1.
<scales pt_clust_5="13000.00000" pt_clust_6="13000.00000" pt_clust_7="13000.00000" pt_clust_8="13000.00000" pt_clust_9="27.47209"></scales>
<clustering>
<clus scale="   27.472">  1  9  2 -1</clus>
<clus scale="   91.071">  7  8 -1 -1</clus>
<clus scale="   91.221">  2  7  1 -1</clus>
<clus scale="   92.598">  5  6 -1 -1</clus>
<clus scale="   27.472">  1  5  2 -1</clus>
</clustering>
</event>
<event>
 9    1  0.1484717E-005  0.1107257E+03  0.7546771E-02  0.1264832E+00
          2   -1    0    0  502    0  0.00000000000E+00  0.00000000000E+00  0.63186792816E+03  0.63186792816E+03  0.00000000000E+00 0. -1.
         -2   -1    0    0    0  501 -0.00000000000E+00 -0.00000000000E+00 -0.34741802516E+02  0.34741802516E+02  0.00000000000E+00 0.  1.
         23    2    1    2    0    0 -0.12111658063E+02  0.34200357305E+02  0.10498624733E+03  0.14005838970E+03  0.85310513392E+02 0.  0.
         23    2    1    2    0    0  0.30987902962E+02 -0.82353333562E+02  0.30414317745E+03  0.33156985140E+03  0.98453909459E+02 0.  0.
        -13    1    4    4    0    0  0.20302022952E+02 -0.10501899035E+03  0.24874906431E+03  0.27077159649E+03  0.00000000000E+00 0.  1.
         13    1    4    4    0    0  0.10685880010E+02  0.22665656790E+02  0.55394113141E+02  0.60798254909E+02  0.00000000000E+00 0. -1.
        -13    1    3    3    0    0  0.19070312391E+02 -0.13143567344E+02  0.29721327724E+01  0.23350883290E+02  0.00000000000E+00 0.  1.
         13    1    3    3    0    0 -0.31181970454E+02  0.47343924649E+02  0.10201411456E+03  0.11670750641E+03  0.00000000000E+00 0. -1.
         21    1    1    2  502  501 -0.18876244899E+02  0.48152976257E+02  0.18799670086E+03  0.19498148958E+03  0.00000000000E+00 0. -1.
<scales pt_clust_5="13000.00000" pt_clust_6="13000.00000" pt_clust_7="13000.00000" pt_clust_8="13000.00000" pt_clust_9="51.72061"></scales>
<clustering>
<clus scale="   51.721">  1  9  2 -1</clus>
<clus scale="   85.311">  7  8 -1 -1</clus>
<clus scale="   98.454">  5  6 -1 -1</clus>
<clus scale="   99.221">  2  7  1 -1</clus>
<clus scale="   51.721">  1  5  2 -1</clus>
</clustering>
</event>
<event>
 9    1  0.1484717E-005  0.2045347E+03  0.7546771E-02  0.1146048E+00
         -1   -1    0    0    0  501 -0.00000000000E+00  0.00000000000E+00  0.98696459022E+02  0.98696459022E+02  0.00000000000E+00 0.  1.
          1   -1    0    0  502    0  0.00000000000E+00 -0.00000000000E+00 -0.68281980019E+03  0.68281980019E+03  0.00000000000E+00 0. -1.
         23    2    1    2    0    0  0.75086221251E+02 -0.15860534950E+03 -0.97801019464E+02  0.22075552063E+03  0.91511545546E+02 0.  0.
         23    2    1    2    0    0 -0.48958764910E+02  0.17963982808E+03 -0.48480875011E+03  0.52718419673E+03  0.90643392485E+02 0.  0.
        -11    1    4    4    0    0 -0.46063453102E+02  0.46555221674E+02 -0.23703304844E+03  0.24591440874E+03  0.00000000000E+00 0. -1.
         11    1    4    4    0    0 -0.28953118078E+01  0.13308460640E+03 -0.24777570168E+03  0.28126978799E+03  0.00000000000E+00 0.  1.
        -11    1    3    3    0    0  0.37529252152E+01 -0.28603309007E+02 -0.61739446730E+02  0.68146848910E+02  0.00000000000E+00 0. -1.
         11    1    3    3    0    0  0.71333296036E+02 -0.13000204049E+03 -0.36061572734E+02  0.15260867172E+03  0.00000000000E+00 0.  1.
         21    1    1    2  502  501 -0.26127456341E+02 -0.21034478575E+02 -0.15135715886E+01  0.33576541852E+02  0.00000000000E+00 0.  1.
<scales pt_clust_5="13000.00000" pt_clust_6="13000.00000" pt_clust_7="13000.00000" pt_clust_8="13000.00000" pt_clust_9="33.54241"></scales>
<clustering>
<clus scale="   33.542">  1  9  2 -1</clus>
<clus scale="   90.643">  5  6 -1 -1</clus>
<clus scale="   91.512">  7  8 -1 -1</clus>
<clus scale="  204.148">  2  5  1 -1</clus>
<clus scale="  204.148">  2  5  1 -1</clus>
</clustering>
</event>
<event>
 9    1  0.1484717E-005  0.1036704E+03  0.7546771E-02  0.1274324E+00
         -2   -1    0    0    0  501 -0.00000000000E+00  0.00000000000E+00  0.14452631162E+03  0.14452631162E+03  0.00000000000E+00 0.  1.
          2   -1    0    0  502    0  0.00000000000E+00 -0.00000000000E+00 -0.29959592526E+03  0.29959592526E+03  0.00000000000E+00 0. -1.
         23    2    1    2    0    0  0.16519366474E+02 -0.49795365804E+02  0.82324604467E+02  0.13481722157E+03  0.92983196369E+02 0.  0.
         23    2    1    2    0    0 -0.31014250611E+02  0.21863529280E+02 -0.25360016785E+03  0.27390837754E+03  0.96295672274E+02 0.  0.
        -11    1    3    3    0    0  0.22263630976E+02  0.18164551984E+02  0.10981563815E+01  0.28754585034E+02  0.00000000000E+00 0. -1.
         11    1    3    3    0    0 -0.57442645016E+01 -0.67959917788E+02  0.81226448085E+02  0.10606263654E+03  0.00000000000E+00 0.  1.
        -13    1    4    4    0    0 -0.58555758553E+02  0.39530920448E+02 -0.17961675486E+03  0.19301204407E+03  0.00000000000E+00 0. -1.
         13    1    4    4    0    0  0.27541507942E+02 -0.17667391168E+02 -0.73983412995E+02  0.80896333470E+02  0.00000000000E+00 0.  1.
         21    1    1    2  502  501  0.14494884137E+02  0.27931836524E+02  0.16205949751E+02  0.35396637765E+02  0.00000000000E+00 0.  1.
<scales pt_clust_5="13000.00000" pt_clust_6="13000.00000" pt_clust_7="13000.00000" pt_clust_8="13000.00000" pt_clust_9="31.46886"></scales>
<clustering>
<clus scale="   31.469">  1  9  2 -1</clus>
<clus scale="   92.983">  5  6 -1 -1</clus>
<clus scale="   96.296">  7  8 -1 -1</clus>
<clus scale="  100.601">  1  5  2 -1</clus>
<clus scale="  103.670">  2  5  1 -1</clus>
</clustering>
</event>
<event>
 9    1  0.1484717E-005  0.1160614E+03  0.7546771E-02  0.1250171E+00
         -1   -1    0    0    0  501 -0.00000000000E+00  0.00000000000E+00  0.77495738665E+02  0.77495738665E+02  0.00000000000E+00 0.  1.
          1   -1    0    0  502    0  0.00000000000E+00 -0.00000000000E+00 -0.50766068291E+03  0.50766068291E+03  0.00000000000E+00 0. -1.
         23    2    1    2    0    0  0.49858845600E+02 -0.59688475719E+01 -0.48092573389E+02  0.11422859363E+03  0.90629710142E+02 0.  0.
         23    2    1    2    0    0 -0.10732257948E+02  0.89038260938E+02 -0.35138919148E+03  0.37411421943E+03  0.91891740751E+02 0.  0.
        -11    1    4    4    0    0  0.29582699866E+02  0.82374610632E+02 -0.24216437357E+03  0.25749620665E+03  0.00000000000E+00 0. -1.
         11    1    4    4    0    0 -0.40314957814E+02  0.66636503058E+01 -0.10922481790E+03  0.11661801278E+03  0.00000000000E+00 0.  1.
        -11    1    3    3    0    0  0.73596866372E+02  0.96514057571E+01 -0.41564600236E+02  0.85072112738E+02  0.00000000000E+00 0. -1.
         11    1    3    3    0    0 -0.23738020772E+02 -0.15620253329E+02 -0.65279731535E+01  0.29156480887E+02  0.00000000000E+00 0.  1.
         21    1    1    2  502  501 -0.39126587652E+02 -0.83069413366E+02 -0.30683179374E+02  0.96813608520E+02  0.00000000000E+00 0.  1.
<scales pt_clust_5="13000.00000" pt_clust_6="13000.00000" pt_clust_7="13000.00000" pt_clust_8="13000.00000" pt_clust_9="91.82275"></scales>
<clustering>
<clus scale="   90.630">  7  8 -1 -1</clus>
<clus scale="   91.823">  1  9  2 -1</clus>
<clus scale="   91.892">  5  6 -1 -1</clus>
<clus scale="  115.065">  1  7  2 -1</clus>
<clus scale="  116.061">  2  5  1 -1</clus>
</clustering>
</event>
<event>
 9    1  0.1484717E-005  0.1028853E+03  0.7546771E-02  0.1275462E+00
         -2   -1    0    0    0  501 -0.00000000000E+00  0.00000000000E+00  0.43775449383E+02  0.43775449383E+02  0.00000000000E+00 0.  1.
          2   -1    0    0  502    0  0.00000000000E+00 -0.00000000000E+00 -0.30771134348E+03  0.30771134348E+03  0.00000000000E+00 0. -1.
         23    2    1    2    0    0 -0.23251505515E+02  0.27915702915E+02 -0.92436028701E+02  0.13689679821E+03  0.94214621904E+02 0.  0.
         23    2    1    2    0    0  0.44031104656E+02 -0.16664423375E+02 -0.15315850760E+03  0.18467698013E+03  0.91823838718E+02 0.  0.
        -11    1    4    4    0    0  0.43751166220E+02  0.57754759826E+01 -0.15593946551E+03  0.16206368370E+03  0.00000000000E+00 0. -1.
         11    1    4    4    0    0  0.27993843607E+00 -0.22439899358E+02  0.27809579156E+01  0.22613296435E+02  0.00000000000E+00 0.  1.
        -13    1    3    3    0    0 -0.40352057971E+02  0.54855462905E+02 -0.53790339830E+02  0.86780245747E+02  0.00000000000E+00 0.  1.
         13    1    3    3    0    0  0.17100552455E+02 -0.26939759989E+02 -0.38645688871E+02  0.50116552464E+02  0.00000000000E+00 0. -1.
         21    1    1    2  502  501 -0.20779599141E+02 -0.11251279540E+02 -0.18341357794E+02  0.29913014516E+02  0.00000000000E+00 0.  1.
<scales pt_clust_5="13000.00000" pt_clust_6="13000.00000" pt_clust_7="13000.00000" pt_clust_8="13000.00000" pt_clust_9="23.63013"></scales>
<clustering>
<clus scale="   23.630">  1  9  2 -1</clus>
<clus scale="   91.824">  5  6 -1 -1</clus>
<clus scale="   94.215">  7  8 -1 -1</clus>
<clus scale="  100.701">  2  5  1 -1</clus>
<clus scale="  100.701">  2  5  1 -1</clus>
</clustering>
</event>
<event>
 9    1  0.1484717E-005  0.1534748E+03  0.7546771E-02  0.1196620E+00
         -1   -1    0    0    0  501 -0.00000000000E+00  0.00000000000E+00  0.51151724021E+03  0.51151724021E+03  0.00000000000E+00 0.  1.
          1   -1    0    0  502    0  0.00000000000E+00 -0.00000000000E+00 -0.96648638803E+02  0.96648638803E+02  0.00000000000E+00 0. -1.
         23    2    1    2    0    0  0.10214962971E+03  0.10822890970E+03  0.33503039464E+03  0.37723533264E+03  0.88955534486E+02 0.  0.
         23    2    1    2    0    0 -0.77859140300E+02 -0.88939642591E+02  0.42330401054E+01  0.14921001696E+03  0.90958258451E+02 0.  0.
        -11    1    3    3    0    0  0.53506010679E+02  0.41901193514E+02  0.61677366209E+02  0.91775272809E+02  0.00000000000E+00 0. -1.
         11    1    3    3    0    0  0.48643619032E+02  0.66327716184E+02  0.27335302843E+03  0.28546005983E+03  0.00000000000E+00 0.  1.
        -13    1    4    4    0    0  0.20580172668E+02 -0.12450122258E+02  0.48893888477E+01  0.24544962306E+02  0.00000000000E+00 0.  1.
         13    1    4    4    0    0 -0.98439312968E+02 -0.76489520333E+02 -0.65634874225E+00  0.12466505466E+03  0.00000000000E+00 0. -1.
         21    1    1    2  502  501 -0.24290489411E+02 -0.19289267107E+02  0.75605166661E+02  0.81720529410E+02  0.00000000000E+00 0.  1.
<scales pt_clust_5="13000.00000" pt_clust_6="13000.00000" pt_clust_7="13000.00000" pt_clust_8="13000.00000" pt_clust_9="31.01780"></scales>
<clustering>
<clus scale="   31.018">  1  9  2 -1</clus>
<clus scale="   88.956">  5  6 -1 -1</clus>
<clus scale="   90.958">  7  8 -1 -1</clus>
<clus scale="  152.296">  1  5  2 -1</clus>
<clus scale="  153.475">  2  5  1 -1</clus>
</clustering>
</event>
<event>
 9    1  0.1484717E-005  0.9817586E+02  0.7546771E-02  0.1285174E+00
         -1   -1    0    0    0  501 -0.00000000000E+00  0.00000000000E+00  0.26045473952E+03  0.26045473952E+03  0.00000000000E+00 0.  1.
          1   -1    0    0  502    0  0.00000000000E+00 -0.00000000000E+00 -0.88017927153E+02  0.88017927153E+02  0.00000000000E+00 0. -1.
         23    2    1    2    0    0 -0.13892989176E+02 -0.43485836488E+02  0.12258042336E+03  0.16003099534E+03  0.92195044090E+02 0.  0.
         23    2    1    2    0    0  0.48262300667E+01  0.23186176918E+02 -0.33122989125E+02  0.10253556274E+03  0.94103761457E+02 0.  0.
        -11    1    3    3    0    0 -0.35951468140E+02 -0.11976402181E+02  0.74152318739E+01  0.38612535974E+02  0.00000000000E+00 0.  1.
         11    1    3    3    0    0  0.22058478964E+02 -0.31509434307E+02  0.11516519149E+03  0.12141845936E+03  0.00000000000E+00 0. -1.
        -13    1    4    4    0    0 -0.44037275510E+02  0.17405569521E+02 -0.21347968365E+02  0.51941998787E+02  0.00000000000E+00 0. -1.
         13    1    4    4    0    0  0.48863505577E+02  0.57806073972E+01 -0.11775020760E+02  0.50593563949E+02  0.00000000000E+00 0.  1.
         21    1    1    2  502  501  0.90667591092E+01  0.20299659570E+02  0.82979378135E+02  0.85906108601E+02  0.00000000000E+00 0.  1.
<scales pt_clust_5="13000.00000" pt_clust_6="13000.00000" pt_clust_7="13000.00000" pt_clust_8="13000.00000" pt_clust_9="22.23246"></scales>
<clustering>
<clus scale="   22.232">  1  9  2 -1</clus>
<clus scale="   92.195">  5  6 -1 -1</clus>
<clus scale="   94.104">  7  8 -1 -1</clus>
<clus scale="   96.348">  1  5  2 -1</clus>
<clus scale="   98.176">  2  5  1 -1</clus>
</clustering>
</event>
<event>
 9    1  0.1484717E-005  0.1350944E+03  0.7546771E-02  0.1223937E+00
         -1   -1    0    0    0  501 -0.00000000000E+00  0.00000000000E+00  0.51698120150E+03  0.51698120150E+03  0.00000000000E+00 0.  1.
          1   -1    0    0  502    0  0.00000000000E+00 -0.00000000000E+00 -0.50208939112E+02  0.50208939112E+02  0.00000000000E+00 0. -1.
         23    2    1    2    0    0 -0.49239454302E+02 -0.58537105877E+02  0.28569241170E+03  0.31311458181E+03  0.10280793069E+03 0.  0.
         23    2    1    2    0    0  0.74750846476E+02  0.54797186104E+02  0.83205540831E+02  0.15286192998E+03  0.88618208955E+02 0.  0.
        -13    1    3    3    0    0 -0.76084791087E+02 -0.30530989531E+02  0.23747690179E+03  0.25122960741E+03  0.00000000000E+00 0.  1.
         13    1    3    3    0    0  0.26845336785E+02 -0.28006116346E+02  0.48215509913E+02  0.61884974396E+02  0.00000000000E+00 0. -1.
        -13    1    4    4    0    0  0.84633291987E+02  0.30337236256E+02  0.32310256987E+02  0.95535829524E+02  0.00000000000E+00 0. -1.
         13    1    4    4    0    0 -0.98824455118E+01  0.24459949847E+02  0.50895283844E+02  0.57326100455E+02  0.00000000000E+00 0.  1.
         21    1    1    2  502  501 -0.25511392173E+02  0.37399197730E+01  0.97874309856E+02  0.10121362883E+03  0.00000000000E+00 0.  1.
<scales pt_clust_5="13000.00000" pt_clust_6="13000.00000" pt_clust_7="13000.00000" pt_clust_8="13000.00000" pt_clust_9="25.78407"></scales>
<clustering>
<clus scale="   25.784">  1  9  2 -1</clus>
<clus scale="   88.618">  7  8 -1 -1</clus>
<clus scale="  102.808">  5  6 -1 -1</clus>
<clus scale="  124.636">  2  7  1 -1</clus>
<clus scale="  124.636">  2  5  1 -1</clus>
</clustering>
</event>
<event>
 9    1  0.1484717E-005  0.1062433E+03  0.7546771E-02  0.1268286E+00
         -1   -1    0    0    0  501 -0.00000000000E+00  0.00000000000E+00  0.34381610429E+03  0.34381610429E+03  0.00000000000E+00 0.  1.
          1   -1    0    0  502    0  0.00000000000E+00 -0.00000000000E+00 -0.57678875030E+02  0.57678875030E+02  0.00000000000E+00 0. -1.
         23    2    1    2    0    0  0.60490227476E+02 -0.83368401124E+01  0.23203803672E+03  0.25648731521E+03  0.90639515973E+02 0.  0.
         23    2    1    2    0    0 -0.33598695130E+02  0.26123691281E+02  0.25895568689E+02  0.10217110280E+03  0.89202209664E+02 0.  0.
        -11    1    4    4    0    0  0.27531258545E+02  0.14151467481E+02 -0.69860103741E+01  0.31733871020E+02  0.00000000000E+00 0.  1.
         11    1    4    4    0    0 -0.61129953675E+02  0.11972223800E+02  0.32881579063E+02  0.70437231779E+02  0.00000000000E+00 0. -1.
        -11    1    3    3    0    0 -0.22054143454E+02 -0.88912861836E+01  0.30314764623E+02  0.38528238574E+02  0.00000000000E+00 0. -1.
         11    1    3    3    0    0  0.82544370930E+02  0.55444607121E+00  0.20172327210E+03  0.21795907664E+03  0.00000000000E+00 0.  1.
         21    1    1    2  502  501 -0.26891532347E+02 -0.17786851169E+02  0.28203623849E+02  0.42836561307E+02  0.00000000000E+00 0.  1.
<scales pt_clust_5="13000.00000" pt_clust_6="13000.00000" pt_clust_7="13000.00000" pt_clust_8="13000.00000" pt_clust_9="32.24169"></scales>
<clustering>
<clus scale="   32.242">  2  9  1 -1</clus>
<clus scale="   89.202">  5  6 -1 -1</clus>
<clus scale="   90.640">  7  8 -1 -1</clus>
<clus scale="  105.020">  2  5  1 -1</clus>
<clus scale="   32.242">  2  5  1 -1</clus>
</clustering>
</event>
<event>
 9    1  0.1484717E-005  0.1520836E+03  0.7546771E-02  0.1199629E+00
         -1   -1    0    0    0  501 -0.00000000000E+00  0.00000000000E+00  0.46196213642E+02  0.46196213642E+02  0.00000000000E+00 0.  1.
          1   -1    0    0  502    0  0.00000000000E+00 -0.00000000000E+00 -0.63225870992E+03  0.63225870992E+03  0.00000000000E+00 0. -1.
         23    2    1    2    0    0 -0.11621932216E+03  0.94977113997E+01 -0.28828112539E+03  0.32421156922E+03  0.91706035794E+02 0.  0.
         23    2    1    2    0    0  0.11239223570E+03  0.14329926416E+02 -0.29283240838E+03  0.32960811242E+03  0.10026628015E+03 0.  0.
        -11    1    4    4    0    0  0.12385114009E+03  0.33750083601E+02 -0.25691262794E+03  0.28719726921E+03  0.00000000000E+00 0.  1.
         11    1    4    4    0    0 -0.11458904385E+02 -0.19420157185E+02 -0.35919780443E+02  0.42410843211E+02  0.00000000000E+00 0. -1.
        -11    1    3    3    0    0 -0.43286040837E+01  0.27144838859E+02 -0.23298720386E+02  0.36033449205E+02  0.00000000000E+00 0.  1.
         11    1    3    3    0    0 -0.11189071807E+03 -0.17647127459E+02 -0.26498240500E+03  0.28817812002E+03  0.00000000000E+00 0. -1.
         21    1    1    2  502  501  0.38270864531E+01 -0.23827637816E+02 -0.49489625089E+01  0.24635241921E+02  0.00000000000E+00 0.  1.
<scales pt_clust_5="13000.00000" pt_clust_6="13000.00000" pt_clust_7="13000.00000" pt_clust_8="13000.00000" pt_clust_9="24.13303"></scales>
<clustering>
<clus scale="   24.133">  1  9  2 -1</clus>
<clus scale="   91.706">  7  8 -1 -1</clus>
<clus scale="  100.266">  5  6 -1 -1</clus>
<clus scale="  146.581">  1  7  2 -1</clus>
<clus scale="  152.084">  2  5  1 -1</clus>
</clustering>
</event>
<event>
 9    1  0.1484717E-005  0.9867225E+02  0.7546771E-02  0.1287674E+00
          1   -1    0    0  502    0  0.00000000000E+00  0.00000000000E+00  0.12736512181E+03  0.12736512181E+03  0.00000000000E+00 0. -1.
         -1   -1    0    0    0  501 -0.00000000000E+00 -0.00000000000E+00 -0.22132333325E+03  0.22132333325E+03  0.00000000000E+00 0.  1.
         23    2    1    2    0    0  0.44061018980E+02 -0.62447506081E+00 -0.16471222247E+03  0.19290728195E+03  0.90229373473E+02 0.  0.
         23    2    1    2    0    0 -0.10775512197E+02 -0.17542234527E+02  0.80936177556E+02  0.11651756637E+03  0.81251687865E+02 0.  0.
        -11    1    3    3    0    0  0.96340240687E+01 -0.42423817449E+02 -0.51535028835E+02  0.67442226414E+02  0.00000000000E+00 0.  1.
         11    1    3    3    0    0  0.34426994912E+02  0.41799342388E+02 -0.11317719363E+03  0.12546505554E+03  0.00000000000E+00 0. -1.
        -13    1    4    4    0    0  0.20344897098E+02  0.14513846161E+02  0.64054395822E+02  0.68757051947E+02  0.00000000000E+00 0.  1.
         13    1    4    4    0    0 -0.31120409295E+02 -0.32056080688E+02  0.16881781734E+02  0.47760514426E+02  0.00000000000E+00 0. -1.
         21    1    1    2  502  501 -0.33285506783E+02  0.18166709587E+02 -0.10182166530E+02  0.39263606741E+02  0.00000000000E+00 0. -1.
<scales pt_clust_5="13000.00000" pt_clust_6="13000.00000" pt_clust_7="13000.00000" pt_clust_8="13000.00000" pt_clust_9="37.92037"></scales>
<clustering>
<clus scale="   37.920">  1  9  2 -1</clus>
<clus scale="   81.252">  7  8 -1 -1</clus>
<clus scale="   90.229">  5  6 -1 -1</clus>
<clus scale="   90.536">  1  7  2 -1</clus>
<clus scale="   37.920">  1  5  2 -1</clus>
</clustering>
</event>
<event>
 9    1  0.1484717E-005  0.9457637E+02  0.7546771E-02  0.1293740E+00
          1   -1    0    0  502    0  0.00000000000E+00  0.00000000000E+00  0.13151690689E+03  0.13151690689E+03  0.00000000000E+00 0. -1.
         -1   -1    0    0    0  501 -0.00000000000E+00 -0.00000000000E+00 -0.14242213540E+03  0.14242213540E+03  0.00000000000E+00 0.  1.
         23    2    1    2    0    0  0.12984047938E+02 -0.26019703249E+02 -0.28319444429E+02  0.97539106461E+02  0.88692028382E+02 0.  0.
         23    2    1    2    0    0 -0.28003531396E+02 -0.10497829425E+02  0.63751314535E+02  0.11552102499E+03  0.91577698794E+02 0.  0.
        -11    1    4    4    0    0 -0.88244048276E+01 -0.47466112626E+02  0.13255010827E+02  0.50065929337E+02  0.00000000000E+00 0.  1.
         11    1    4    4    0    0 -0.19179126569E+02  0.36968283201E+02  0.50496303708E+02  0.65455095653E+02  0.00000000000E+00 0. -1.
        -13    1    3    3    0    0  0.34120719517E+02 -0.28179104987E+02  0.17063927790E+02  0.47428505035E+02  0.00000000000E+00 0.  1.
         13    1    3    3    0    0 -0.21136671579E+02  0.21594017381E+01 -0.45383372219E+02  0.50110601426E+02  0.00000000000E+00 0. -1.
         21    1    1    2  502  501  0.15019483459E+02  0.36517532674E+02 -0.46337098617E+02  0.60878910833E+02  0.00000000000E+00 0.  1.
<scales pt_clust_5="13000.00000" pt_clust_6="13000.00000" pt_clust_7="13000.00000" pt_clust_8="13000.00000" pt_clust_9="39.48563"></scales>
<clustering>
<clus scale="   39.486">  2  9  1 -1</clus>
<clus scale="   88.692">  7  8 -1 -1</clus>
<clus scale="   91.578">  5  6 -1 -1</clus>
<clus scale="   91.785">  2  7  1 -1</clus>
<clus scale="   94.576">  1  5  2 -1</clus>
</clustering>
</event>
<event>
 9    1  0.1484717E-005  0.4098572E+03  0.7546771E-02  0.1040568E+00
         -2   -1    0    0    0  501 -0.00000000000E+00  0.00000000000E+00  0.22349930321E+03  0.22349930321E+03  0.00000000000E+00 0.  1.
          2   -1    0    0  502    0  0.00000000000E+00 -0.00000000000E+00 -0.15289926395E+04  0.15289926395E+04  0.00000000000E+00 0. -1.
         23    2    1    2    0    0  0.39245615035E+03 -0.14736873637E+03 -0.78059427737E+02  0.43517632668E+03  0.86866487400E+02 0.  0.
         23    2    1    2    0    0 -0.36809759112E+03  0.14915766110E+03 -0.12278893261E+04  0.12928872091E+04  0.78110779760E+02 0.  0.
        -13    1    4    4    0    0 -0.32988544688E+03  0.10650174002E+03 -0.10813495242E+04  0.11355544118E+04  0.00000000000E+00 0. -1.
         13    1    4    4    0    0 -0.38212144247E+02  0.42655921085E+02 -0.14653980195E+03  0.15733279737E+03  0.00000000000E+00 0.  1.
        -13    1    3    3    0    0  0.66036094347E+02 -0.61387242662E+02 -0.88027507829E+01  0.90590549946E+02  0.00000000000E+00 0. -1.
         13    1    3    3    0    0  0.32642005601E+03 -0.85981493710E+02 -0.69256676954E+02  0.34458577673E+03  0.00000000000E+00 0.  1.
         21    1    1    2  502  501 -0.24358559230E+02 -0.17889247323E+01  0.45541754119E+00  0.24428406919E+02  0.00000000000E+00 0. -1.
<scales pt_clust_5="13000.00000" pt_clust_6="13000.00000" pt_clust_7="13000.00000" pt_clust_8="13000.00000" pt_clust_9="24.42416"></scales>
<clustering>
<clus scale="   24.424">  1  9  2 -1</clus>
<clus scale="   78.111">  5  6 -1 -1</clus>
<clus scale="   86.866">  7  8 -1 -1</clus>
<clus scale="  408.091">  2  5  1 -1</clus>
<clus scale="  408.091">  2  5  1 -1</clus>
</clustering>
</event>
<event>
 9    1  0.1484717E-005  0.1122564E+03  0.7546771E-02  0.1257819E+00
         -3   -1    0    0    0  501 -0.00000000000E+00  0.00000000000E+00  0.13829416097E+03  0.13829416097E+03  0.00000000000E+00 0.  1.
          3   -1    0    0  502    0  0.00000000000E+00 -0.00000000000E+00 -0.15090738072E+03  0.15090738072E+03  0.00000000000E+00 0. -1.
         23    2    1    2    0    0 -0.51675359554E+02  0.70803052643E+02  0.28317872017E+02  0.12864763965E+03  0.89804778622E+02 0.  0.
         23    2    1    2    0    0  0.24543998444E+02 -0.45791977833E+02 -0.56013612184E+02  0.12068979486E+03  0.93430127583E+02 0.  0.
        -11    1    3    3    0    0 -0.58756709682E+02  0.49126514040E+02  0.54445201249E+02  0.93968320478E+02  0.00000000000E+00 0.  1.
         11    1    3    3    0    0  0.70813501281E+01  0.21676538603E+02 -0.26127329232E+02  0.34679319172E+02  0.00000000000E+00 0. -1.
        -13    1    4    4    0    0  0.52010088970E+02  0.24863905050E+00 -0.36911270045E+02  0.63777370849E+02  0.00000000000E+00 0.  1.
         13    1    4    4    0    0 -0.27466090526E+02 -0.46040616883E+02 -0.19102342138E+02  0.56912424012E+02  0.00000000000E+00 0. -1.
         21    1    1    2  502  501  0.27131361110E+02 -0.25011074810E+02  0.15082520424E+02  0.39864107179E+02  0.00000000000E+00 0. -1.
<scales pt_clust_5="13000.00000" pt_clust_6="13000.00000" pt_clust_7="13000.00000" pt_clust_8="13000.00000" pt_clust_9="36.90074"></scales>
<clustering>
<clus scale="   36.901">  1  9  2 -1</clus>
<clus scale="   89.805">  5  6 -1 -1</clus>
<clus scale="   93.430">  7  8 -1 -1</clus>
<clus scale="  109.258">  1  5  2 -1</clus>
<clus scale="  112.256">  2  5  1 -1</clus>
</clustering>
</event>
<event>
 9    1  0.1484717E-005  0.1691471E+03  0.7546771E-02  0.1180877E+00
         -2   -1    0    0    0  501 -0.00000000000E+00  0.00000000000E+00  0.11331465042E+03  0.11331465042E+03  0.00000000000E+00 0.  1.
          2   -1    0    0  502    0  0.00000000000E+00 -0.00000000000E+00 -0.37781977615E+03  0.37781977615E+03  0.00000000000E+00 0. -1.
         23    2    1    2    0    0 -0.80748572922E+02  0.13311499973E+03 -0.40366703327E+02  0.18507966896E+03  0.91570071216E+02 0.  0.
         23    2    1    2    0    0  0.83461243165E+02 -0.10981485726E+03 -0.23280689455E+03  0.28104680632E+03  0.75915579470E+02 0.  0.
        -11    1    4    4    0    0  0.32742137071E+01 -0.63407975492E+02 -0.77297431192E+02  0.10003091872E+03  0.00000000000E+00 0.  1.
         11    1    4    4    0    0  0.80187029458E+02 -0.46406881768E+02 -0.15550946336E+03  0.18101588760E+03  0.00000000000E+00 0. -1.
        -13    1    3    3    0    0 -0.19237186430E+01  0.67909841881E+02 -0.46930011808E+02  0.82570414350E+02  0.00000000000E+00 0. -1.
         13    1    3    3    0    0 -0.78824854279E+02  0.65205157846E+02  0.65633084811E+01  0.10250925461E+03  0.00000000000E+00 0.  1.
         21    1    1    2  502  501 -0.27126702432E+01 -0.23300142467E+02  0.86684721373E+01  0.25007951296E+02  0.00000000000E+00 0.  1.
<scales pt_clust_5="13000.00000" pt_clust_6="13000.00000" pt_clust_7="13000.00000" pt_clust_8="13000.00000" pt_clust_9="23.45752"></scales>
<clustering>
<clus scale="   23.458">  1  9  2 -1</clus>
<clus scale="   75.916">  5  6 -1 -1</clus>
<clus scale="   91.570">  7  8 -1 -1</clus>
<clus scale="  161.211">  2  5  1 -1</clus>
<clus scale="  161.211">  2  5  1 -1</clus>
</clustering>
</event>
<event>
 9    1  0.1484717E-005  0.1071976E+03  0.7546771E-02  0.1265911E+00
          1   -1    0    0  502    0  0.00000000000E+00  0.00000000000E+00  0.54986112677E+03  0.54986112677E+03  0.00000000000E+00 0. -1.
         -1   -1    0    0    0  501 -0.00000000000E+00 -0.00000000000E+00 -0.35404176806E+02  0.35404176806E+02  0.00000000000E+00 0.  1.
         23    2    1    2    0    0  0.36250711764E+01 -0.59014190677E+02  0.19793107960E+03  0.22560619580E+03  0.90695245022E+02 0.  0.
         23    2    1    2    0    0  0.38706025474E+02  0.48998691340E+02  0.28627014584E+03  0.30667193162E+03  0.90543078606E+02 0.  0.
        -11    1    4    4    0    0 -0.19958680465E+02  0.35870561214E+01  0.14425229765E+02  0.24885802203E+02  0.00000000000E+00 0.  1.
         11    1    4    4    0    0  0.58664705939E+02  0.45411635219E+02  0.27184491607E+03  0.28178612941E+03  0.00000000000E+00 0. -1.
        -13    1    3    3    0    0 -0.14483883674E+01 -0.82778619030E+02  0.13790917839E+03  0.16085191662E+03  0.00000000000E+00 0.  1.
         13    1    3    3    0    0  0.50734595437E+01  0.23764428354E+02  0.60021901215E+02  0.64754279181E+02  0.00000000000E+00 0. -1.
         21    1    1    2  502  501 -0.42331096651E+02  0.10015499336E+02  0.30255724528E+02  0.52987176159E+02  0.00000000000E+00 0.  1.
<scales pt_clust_5="13000.00000" pt_clust_6="13000.00000" pt_clust_7="13000.00000" pt_clust_8="13000.00000" pt_clust_9="43.49979"></scales>
<clustering>
<clus scale="   43.500">  2  9  1 -1</clus>
<clus scale="   90.543">  5  6 -1 -1</clus>
<clus scale="   90.695">  7  8 -1 -1</clus>
<clus scale="  107.069">  1  5  2 -1</clus>
<clus scale="  107.069">  1  5  2 -1</clus>
</clustering>
</event>
<event>
 9    1  0.1484717E-005  0.1051627E+03  0.7546771E-02  0.1270204E+00
          1   -1    0    0  502    0  0.00000000000E+00  0.00000000000E+00  0.19139166920E+03  0.19139166920E+03  0.00000000000E+00 0. -1.
         -1   -1    0    0    0  501 -0.00000000000E+00 -0.00000000000E+00 -0.10296353448E+03  0.10296353448E+03  0.00000000000E+00 0.  1.
         23    2    1    2    0    0 -0.40988795261E+01  0.23534545804E+02  0.22006179219E+02  0.96945173582E+02  0.91342318218E+02 0.  0.
         23    2    1    2    0    0  0.12873912156E+02 -0.69856222359E+02  0.87606092922E+02  0.14572379793E+03  0.92276586141E+02 0.  0.
        -11    1    4    4    0    0 -0.21677259248E+02  0.11200548415E+02  0.49234889626E+01  0.24891697348E+02  0.00000000000E+00 0.  1.
         11    1    4    4    0    0  0.34551171404E+02 -0.81056770774E+02  0.82682603960E+02  0.12083210058E+03  0.00000000000E+00 0. -1.
        -13    1    3    3    0    0 -0.40518976347E+02 -0.91813881376E+01 -0.35899752317E+01  0.41700998244E+02  0.00000000000E+00 0.  1.
         13    1    3    3    0    0  0.36420096821E+02  0.32715933941E+02  0.25596154451E+02  0.55244175338E+02  0.00000000000E+00 0. -1.
         21    1    1    2  502  501 -0.87750326298E+01  0.46321676556E+02 -0.21184137425E+02  0.51686232161E+02  0.00000000000E+00 0. -1.
<scales pt_clust_5="13000.00000" pt_clust_6="13000.00000" pt_clust_7="13000.00000" pt_clust_8="13000.00000" pt_clust_9="47.14551"></scales>
<clustering>
<clus scale="   47.146">  2  9  1 -1</clus>
<clus scale="   91.342">  7  8 -1 -1</clus>
<clus scale="   92.277">  5  6 -1 -1</clus>
<clus scale="  104.344">  2  7  1 -1</clus>
<clus scale="  105.163">  1  5  2 -1</clus>
</clustering>
</event>
<event>
 9    1  0.1484717E-005  0.1014055E+03  0.7546771E-02  0.1277615E+00
          1   -1    0    0  502    0  0.00000000000E+00  0.00000000000E+00  0.61979507674E+03  0.61979507674E+03  0.00000000000E+00 0. -1.
         -1   -1    0    0    0  501 -0.00000000000E+00 -0.00000000000E+00 -0.22331594147E+03  0.22331594147E+03  0.00000000000E+00 0.  1.
         23    2    1    2    0    0 -0.49513635214E+02 -0.17860678439E+02  0.17618330789E+03  0.20564929650E+03  0.92089474244E+02 0.  0.
         23    2    1    2    0    0  0.21585453958E+02  0.33205472543E+02  0.42169458545E+03  0.43355756343E+03  0.92613725675E+02 0.  0.
        -11    1    4    4    0    0 -0.91620870787E+01  0.59516721050E+02  0.25818564962E+03  0.26511509499E+03  0.00000000000E+00 0.  1.
         11    1    4    4    0    0  0.30747541036E+02 -0.26311248506E+02  0.16350893583E+03  0.16844246844E+03  0.00000000000E+00 0. -1.
        -13    1    3    3    0    0 -0.42884602537E+02  0.30883294976E+02  0.62951715503E+02  0.82193585687E+02  0.00000000000E+00 0.  1.
         13    1    3    3    0    0 -0.66290326774E+01 -0.48743973415E+02  0.11323159239E+03  0.12345571081E+03  0.00000000000E+00 0. -1.
         21    1    1    2  502  501  0.27928181257E+02 -0.15344794104E+02 -0.20139875806E+03  0.20390415828E+03  0.00000000000E+00 0.  1.
<scales pt_clust_5="13000.00000" pt_clust_6="13000.00000" pt_clust_7="13000.00000" pt_clust_8="13000.00000" pt_clust_9="31.86606"></scales>
<clustering>
<clus scale="   31.866">  2  9  1 -1</clus>
<clus scale="   92.089">  7  8 -1 -1</clus>
<clus scale="   92.614">  5  6 -1 -1</clus>
<clus scale="  100.927">  2  7  1 -1</clus>
<clus scale="  101.405">  1  5  2 -1</clus>
</clustering>
</event>
<event>
 9    1  0.1484717E-005  0.2510167E+03  0.7546771E-02  0.1113600E+00
         -1   -1    0    0    0  501 -0.00000000000E+00  0.00000000000E+00  0.59774021928E+03  0.59774021928E+03  0.00000000000E+00 0.  1.
          1   -1    0    0  502    0  0.00000000000E+00 -0.00000000000E+00 -0.31730184442E+03  0.31730184442E+03  0.00000000000E+00 0. -1.
         23    2    1    2    0    0  0.69059877622E+02 -0.24478979958E+03  0.45146022268E+03  0.52903554709E+03  0.10663472578E+03 0.  0.
         23    2    1    2    0    0 -0.16168909940E+02  0.22408827102E+03 -0.20678120951E+03  0.31888915897E+03  0.91950205240E+02 0.  0.
        -11    1    3    3    0    0  0.95793136533E+02 -0.16582664901E+03  0.33382012991E+03  0.38485150599E+03  0.00000000000E+00 0.  1.
         11    1    3    3    0    0 -0.26733258912E+02 -0.78963150573E+02  0.11764009277E+03  0.14418404110E+03  0.00000000000E+00 0. -1.
        -13    1    4    4    0    0  0.36676121465E+01  0.45526000319E+02 -0.99885595211E+02  0.10983260087E+03  0.00000000000E+00 0.  1.
         13    1    4    4    0    0 -0.19836522086E+02  0.17856227070E+03 -0.10689561430E+03  0.20905655810E+03  0.00000000000E+00 0. -1.
         21    1    1    2  502  501 -0.52890967682E+02  0.20701528564E+02  0.35759361696E+02  0.67117357637E+02  0.00000000000E+00 0. -1.
<scales pt_clust_5="13000.00000" pt_clust_6="13000.00000" pt_clust_7="13000.00000" pt_clust_8="13000.00000" pt_clust_9="56.79796"></scales>
<clustering>
<clus scale="   56.798">  1  9  2 -1</clus>
<clus scale="   91.950">  7  8 -1 -1</clus>
<clus scale="  106.635">  5  6 -1 -1</clus>
<clus scale="  245.139">  2  7  1 -1</clus>
<clus scale="  245.139">  2  5  1 -1</clus>
</clustering>
</event>
<event>
 9    1  0.1484717E-005  0.1724585E+03  0.7546771E-02  0.1175317E+00
          2   -1    0    0  502    0  0.00000000000E+00  0.00000000000E+00  0.11167028186E+04  0.11167028186E+04  0.00000000000E+00 0. -1.
         -2   -1    0    0    0  501 -0.00000000000E+00 -0.00000000000E+00 -0.32293457879E+02  0.32293457879E+02  0.00000000000E+00 0.  1.
         23    2    1    2    0    0  0.73040257676E+02 -0.13512810889E+03  0.56329555882E+03  0.59088551641E+03  0.90825777553E+02 0.  0.
         23    2    1    2    0    0 -0.51112971568E+02  0.13052582263E+03  0.50056810644E+03  0.52771154104E+03  0.90892877197E+02 0.  0.
        -11    1    4    4    0    0  0.26534097423E+02  0.30186354614E+02  0.12129532681E+03  0.12778040005E+03  0.00000000000E+00 0.  1.
         11    1    4    4    0    0 -0.77647068991E+02  0.10033946801E+03  0.37927277963E+03  0.39993114099E+03  0.00000000000E+00 0. -1.
        -11    1    3    3    0    0  0.32619845649E+02 -0.12973052499E+03  0.37277373904E+03  0.39604838589E+03  0.00000000000E+00 0.  1.
         11    1    3    3    0    0  0.40420412027E+02 -0.53975838989E+01  0.19052181978E+03  0.19483713053E+03  0.00000000000E+00 0. -1.
         21    1    1    2  502  501 -0.21927286108E+02  0.46022862644E+01  0.20545695435E+02  0.30399219000E+02  0.00000000000E+00 0.  1.
<scales pt_clust_5="13000.00000" pt_clust_6="13000.00000" pt_clust_7="13000.00000" pt_clust_8="13000.00000" pt_clust_9="22.40506"></scales>
<clustering>
<clus scale="   22.405">  2  9  1 -1</clus>
<clus scale="   90.826">  7  8 -1 -1</clus>
<clus scale="   90.893">  5  6 -1 -1</clus>
<clus scale="  172.423">  2  7  1 -1</clus>
<clus scale="  172.459">  1  5  2 -1</clus>
</clustering>
</event>
<event>
 9    1  0.1484717E-005  0.1114841E+03  0.7546771E-02  0.1259487E+00
         -1   -1    0    0    0  501 -0.00000000000E+00  0.00000000000E+00  0.17648679335E+03  0.17648679335E+03  0.00000000000E+00 0.  1.
          1   -1    0    0  502    0  0.00000000000E+00 -0.00000000000E+00 -0.11132971643E+03  0.11132971643E+03  0.00000000000E+00 0. -1.
         23    2    1    2    0    0  0.12269810683E+01  0.74498062714E+02  0.46531989225E+02  0.12622103030E+03  0.90636944106E+02 0.  0.
         23    2    1    2    0    0 -0.12370305128E+02 -0.49744231918E+02 -0.24584233224E+02  0.11056635815E+03  0.94831545242E+02 0.  0.
        -11    1    3    3    0    0 -0.34427517801E+02  0.29176638516E+02  0.51341591152E+02  0.68355608395E+02  0.00000000000E+00 0.  1.
         11    1    3    3    0    0  0.35654498869E+02  0.45321424198E+02 -0.48096019276E+01  0.57865421900E+02  0.00000000000E+00 0. -1.
        -13    1    4    4    0    0 -0.40067045607E+02  0.17522354070E+01 -0.32421571118E+02  0.51571278308E+02  0.00000000000E+00 0.  1.
         13    1    4    4    0    0  0.27696740479E+02 -0.51496467325E+02  0.78373378945E+01  0.58995079840E+02  0.00000000000E+00 0. -1.
         21    1    1    2  502  501  0.11143324060E+02 -0.24753830796E+02  0.43209320920E+02  0.51029121338E+02  0.00000000000E+00 0.  1.
<scales pt_clust_5="13000.00000" pt_clust_6="13000.00000" pt_clust_7="13000.00000" pt_clust_8="13000.00000" pt_clust_9="27.14638"></scales>
<clustering>
<clus scale="   27.146">  1  9  2 -1</clus>
<clus scale="   90.637">  5  6 -1 -1</clus>
<clus scale="   94.832">  7  8 -1 -1</clus>
<clus scale="  107.939">  1  5  2 -1</clus>
<clus scale="  111.484">  2  5  1 -1</clus>
</clustering>
</event>
<event>
 9    1  0.1484717E-005  0.1215784E+03  0.7546771E-02  0.1241268E+00
          1   -1    0    0  502    0  0.00000000000E+00  0.00000000000E+00  0.18791010198E+03  0.18791010198E+03  0.00000000000E+00 0. -1.
         -1   -1    0    0    0  501 -0.00000000000E+00 -0.00000000000E+00 -0.34913277211E+03  0.34913277211E+03  0.00000000000E+00 0.  1.
         23    2    1    2    0    0  0.74969486897E+02  0.73520795295E+02 -0.20169582972E+03  0.24363745529E+03  0.87477257561E+02 0.  0.
         23    2    1    2    0    0 -0.72086854594E+02 -0.34553843976E+02  0.14109769554E+03  0.18546084923E+03  0.89981576859E+02 0.  0.
        -11    1    3    3    0    0 -0.13717205420E+02  0.38162573785E+02 -0.71285997418E+02  0.82013640270E+02  0.00000000000E+00 0. -1.
         11    1    3    3    0    0  0.88686692318E+02  0.35358221510E+02 -0.13040983230E+03  0.16162381502E+03  0.00000000000E+00 0.  1.
        -13    1    4    4    0    0  0.13610468828E+02 -0.30279140998E+02  0.27554547058E+02  0.43143067866E+02  0.00000000000E+00 0.  1.
         13    1    4    4    0    0 -0.85697323422E+02 -0.42747029783E+01  0.11354314848E+03  0.14231778137E+03  0.00000000000E+00 0. -1.
         21    1    1    2  502  501 -0.28826323030E+01 -0.38966951319E+02 -0.10062453594E+03  0.10794456956E+03  0.00000000000E+00 0. -1.
<scales pt_clust_5="13000.00000" pt_clust_6="13000.00000" pt_clust_7="13000.00000" pt_clust_8="13000.00000" pt_clust_9="39.07343"></scales>
<clustering>
<clus scale="   39.073">  2  9  1 -1</clus>
<clus scale="   87.477">  5  6 -1 -1</clus>
<clus scale="   89.982">  7  8 -1 -1</clus>
<clus scale="  119.737">  2  5  1 -1</clus>
<clus scale="  121.578">  1  5  2 -1</clus>
</clustering>
</event>
<event>
 9    1  0.1484717E-005  0.1215525E+03  0.7546771E-02  0.1240767E+00
         -1   -1    0    0    0  501 -0.00000000000E+00  0.00000000000E+00  0.23325014527E+02  0.23325014527E+02  0.00000000000E+00 0.  1.
          1   -1    0    0  502    0  0.00000000000E+00 -0.00000000000E+00 -0.94169780283E+03  0.94169780283E+03  0.00000000000E+00 0. -1.
         23    2    1    2    0    0  0.17267393746E+02 -0.79496911109E+02 -0.42753208123E+03  0.44461512621E+03  0.91000045099E+02 0.  0.
         23    2    1    2    0    0 -0.37033136393E+02  0.70689466696E+02 -0.48190173026E+03  0.49699485352E+03  0.91685074574E+02 0.  0.
        -11    1    4    4    0    0  0.22207130664E+01  0.71991836911E+02 -0.39657853389E+03  0.40306611082E+03  0.00000000000E+00 0.  1.
         11    1    4    4    0    0 -0.39253849460E+02 -0.13023702148E+01 -0.85323196368E+02  0.93928742693E+02  0.00000000000E+00 0. -1.
        -13    1    3    3    0    0 -0.23618259619E+02  0.80732907674E+01 -0.10424311291E+03  0.10718967674E+03  0.00000000000E+00 0.  1.
         13    1    3    3    0    0  0.40885653365E+02 -0.87570201877E+02 -0.32328896832E+03  0.33742544947E+03  0.00000000000E+00 0. -1.
         21    1    1    2  502  501  0.19765742648E+02  0.88074444129E+01 -0.89389768052E+01  0.23412837629E+02  0.00000000000E+00 0.  1.
<scales pt_clust_5="13000.00000" pt_clust_6="13000.00000" pt_clust_7="13000.00000" pt_clust_8="13000.00000" pt_clust_9="21.63922"></scales>
<clustering>
<clus scale="   21.639">  1  9  2 -1</clus>
<clus scale="   91.000">  7  8 -1 -1</clus>
<clus scale="   91.685">  5  6 -1 -1</clus>
<clus scale="  121.037">  1  7  2 -1</clus>
<clus scale="  121.553">  2  5  1 -1</clus>
</clustering>
</event>
<event>
 9    1  0.1484717E-005  0.9464767E+02  0.7546771E-02  0.1293720E+00
         -3   -1    0    0    0  501 -0.00000000000E+00  0.00000000000E+00  0.39025530063E+03  0.39025530063E+03  0.00000000000E+00 0.  1.
          3   -1    0    0  502    0  0.00000000000E+00 -0.00000000000E+00 -0.51187036849E+02  0.51187036849E+02  0.00000000000E+00 0. -1.
         23    2    1    2    0    0  0.22557365566E+02 -0.35859917891E+02  0.22415383961E+03  0.24496071121E+03  0.89252662563E+02 0.  0.
         23    2    1    2    0    0  0.15306867335E+02  0.14893999477E+02  0.27130977322E+02  0.98608221252E+02  0.92365361256E+02 0.  0.
        -11    1    3    3    0    0  0.47758633918E+01  0.21873378393E+02  0.14254713244E+02  0.26541484569E+02  0.00000000000E+00 0.  1.
         11    1    3    3    0    0  0.17781502174E+02 -0.57733296284E+02  0.20989912636E+03  0.21841922664E+03  0.00000000000E+00 0. -1.
        -13    1    4    4    0    0 -0.23235414710E+02 -0.13576008641E+02 -0.18327348726E+02  0.32558934544E+02  0.00000000000E+00 0. -1.
         13    1    4    4    0    0  0.38542282045E+02  0.28470008118E+02  0.45458326048E+02  0.66049286707E+02  0.00000000000E+00 0.  1.
         21    1    1    2  502  501 -0.37864232901E+02  0.20965918414E+02  0.87783446852E+02  0.97873405016E+02  0.00000000000E+00 0.  1.
<scales pt_clust_5="13000.00000" pt_clust_6="13000.00000" pt_clust_7="13000.00000" pt_clust_8="13000.00000" pt_clust_9="43.28129"></scales>
<clustering>
<clus scale="   43.281">  1  9  2 -1</clus>
<clus scale="   89.253">  5  6 -1 -1</clus>
<clus scale="   91.613">  1  5  2 -1</clus>
<clus scale="   92.365">  7  8 -1 -1</clus>
<clus scale="   94.648">  2  5  1 -1</clus>
</clustering>
</event>
<event>
 9    1  0.1484717E-005  0.1296274E+03  0.7546771E-02  0.1228535E+00
         -2   -1    0    0    0  501 -0.00000000000E+00  0.00000000000E+00  0.66565046150E+02  0.66565046150E+02  0.00000000000E+00 0.  1.
          2   -1    0    0  502    0  0.00000000000E+00 -0.00000000000E+00 -0.56755965219E+03  0.56755965219E+03  0.00000000000E+00 0. -1.
         23    2    1    2    0    0 -0.13966305617E-02  0.91264747234E+02 -0.11632706243E+03  0.17446246202E+03  0.92606215301E+02 0.  0.
         23    2    1    2    0    0  0.44539873008E+02 -0.82192309663E+02 -0.39250541280E+03  0.41353830332E+03  0.90631413896E+02 0.  0.
        -13    1    3    3    0    0 -0.43590824920E+02  0.66952853738E+02 -0.66660787552E+02  0.10405049369E+03  0.00000000000E+00 0.  1.
         13    1    3    3    0    0  0.43589428289E+02  0.24311893496E+02 -0.49666274879E+02  0.70411968331E+02  0.00000000000E+00 0. -1.
        -13    1    4    4    0    0  0.66843593132E+02 -0.34337368397E+02 -0.26714915813E+03  0.27751719496E+03  0.00000000000E+00 0.  1.
         13    1    4    4    0    0 -0.22303720124E+02 -0.47854941266E+02 -0.12535625467E+03  0.13602110836E+03  0.00000000000E+00 0. -1.
         21    1    1    2  502  501 -0.44538476378E+02 -0.90724375713E+01  0.78378691854E+01  0.46123932995E+02  0.00000000000E+00 0.  1.
<scales pt_clust_5="13000.00000" pt_clust_6="13000.00000" pt_clust_7="13000.00000" pt_clust_8="13000.00000" pt_clust_9="45.45311"></scales>
<clustering>
<clus scale="   45.453">  1  9  2 -1</clus>
<clus scale="   90.631">  7  8 -1 -1</clus>
<clus scale="   92.606">  5  6 -1 -1</clus>
<clus scale="  128.224">  2  7  1 -1</clus>
<clus scale="  128.224">  2  5  1 -1</clus>
</clustering>
</event>
<event>
 9    1  0.1484717E-005  0.1006927E+03  0.7546771E-02  0.1279728E+00
         -3   -1    0    0    0  501 -0.00000000000E+00  0.00000000000E+00  0.79562536016E+02  0.79562536016E+02  0.00000000000E+00 0.  1.
          3   -1    0    0  502    0  0.00000000000E+00 -0.00000000000E+00 -0.33571743064E+03  0.33571743064E+03  0.00000000000E+00 0. -1.
         23    2    1    2    0    0 -0.26510048874E+02 -0.22262576743E+02 -0.24659307402E+02  0.99789303432E+02  0.90285207113E+02 0.  0.
         23    2    1    2    0    0  0.44075453781E+02 -0.68733490293E+00 -0.25725006820E+03  0.27677974507E+03  0.92121179078E+02 0.  0.
        -11    1    3    3    0    0  0.13949274925E+02  0.23387806407E+02 -0.27529299240E+02  0.38722526727E+02  0.00000000000E+00 0. -1.
         11    1    3    3    0    0 -0.40459323799E+02 -0.45650383150E+02  0.28699918387E+01  0.61066776705E+02  0.00000000000E+00 0.  1.
        -11    1    4    4    0    0  0.25659347825E+02 -0.45024747868E+02 -0.16245134912E+03  0.17051706918E+03  0.00000000000E+00 0.  1.
         11    1    4    4    0    0  0.18416105956E+02  0.44337412965E+02 -0.94798719081E+02  0.10626267589E+03  0.00000000000E+00 0. -1.
         21    1    1    2  502  501 -0.17565404907E+02  0.22949911646E+02  0.25754480978E+02  0.38710918157E+02  0.00000000000E+00 0. -1.
<scales pt_clust_5="13000.00000" pt_clust_6="13000.00000" pt_clust_7="13000.00000" pt_clust_8="13000.00000" pt_clust_9="28.90055"></scales>
<clustering>
<clus scale="   28.901">  1  9  2 -1</clus>
<clus scale="   90.285">  5  6 -1 -1</clus>
<clus scale="   92.121">  7  8 -1 -1</clus>
<clus scale="   99.016">  1  5  2 -1</clus>
<clus scale="  100.693">  2  5  1 -1</clus>
</clustering>
</event>
<event>
 9    1  0.1484717E-005  0.1423075E+03  0.7546771E-02  0.1211197E+00
         -2   -1    0    0    0  501 -0.00000000000E+00  0.00000000000E+00  0.12166757017E+03  0.12166757017E+03  0.00000000000E+00 0.  1.
          2   -1    0    0  502    0  0.00000000000E+00 -0.00000000000E+00 -0.46263958205E+03  0.46263958205E+03  0.00000000000E+00 0. -1.
         23    2    1    2    0    0 -0.10807244669E+03 -0.62581161548E+02 -0.17922479863E+03  0.23454264268E+03  0.85397115154E+02 0.  0.
         23    2    1    2    0    0  0.84552028987E+02  0.54975150605E+02 -0.23575637369E+03  0.27173619877E+03  0.89934316021E+02 0.  0.
        -11    1    3    3    0    0 -0.71334340019E+02  0.42669106042E+01 -0.61583249376E+02  0.94336054591E+02  0.00000000000E+00 0. -1.
         11    1    3    3    0    0 -0.36738106668E+02 -0.66848072153E+02 -0.11764154926E+03  0.14020658809E+03  0.00000000000E+00 0.  1.
        -11    1    4    4    0    0  0.54312627527E+02  0.79439077374E+02 -0.16822664644E+03  0.19380565806E+03  0.00000000000E+00 0. -1.
         11    1    4    4    0    0  0.30239401460E+02 -0.24463926769E+02 -0.67529727246E+02  0.77930540711E+02  0.00000000000E+00 0.  1.
         21    1    1    2  502  501  0.23520417701E+02  0.76060109435E+01  0.74009160444E+02  0.78028310765E+02  0.00000000000E+00 0.  1.
<scales pt_clust_5="13000.00000" pt_clust_6="13000.00000" pt_clust_7="13000.00000" pt_clust_8="13000.00000" pt_clust_9="24.71966"></scales>
<clustering>
<clus scale="   24.720">  1  9  2 -1</clus>
<clus scale="   85.397">  5  6 -1 -1</clus>
<clus scale="   89.934">  7  8 -1 -1</clus>
<clus scale="  139.484">  1  5  2 -1</clus>
<clus scale="  142.308">  2  5  1 -1</clus>
</clustering>
</event>
<event>
 9    1  0.1484717E-005  0.1048973E+03  0.7546771E-02  0.1270391E+00
          1   -1    0    0  502    0  0.00000000000E+00  0.00000000000E+00  0.30445047531E+03  0.30445047531E+03  0.00000000000E+00 0. -1.
         -1   -1    0    0    0  501 -0.00000000000E+00 -0.00000000000E+00 -0.10316194609E+03  0.10316194609E+03  0.00000000000E+00 0.  1.
         23    2    1    2    0    0 -0.13711852463E+02 -0.63805886515E+02  0.11386050079E+03  0.15973459348E+03  0.91058885699E+02 0.  0.
         23    2    1    2    0    0 -0.28156394843E+02  0.41069356073E+02  0.14165846328E+03  0.17569167957E+03  0.91219359083E+02 0.  0.
        -11    1    3    3    0    0 -0.32217139568E+02 -0.52308233662E+02  0.21887130935E+02  0.65216116806E+02  0.00000000000E+00 0.  1.
         11    1    3    3    0    0  0.18505287105E+02 -0.11497652853E+02  0.91973369851E+02  0.94518476679E+02  0.00000000000E+00 0. -1.
        -11    1    4    4    0    0  0.13606293454E+02 -0.20874931897E+02  0.16349003905E+02  0.29802414867E+02  0.00000000000E+00 0. -1.
         11    1    4    4    0    0 -0.41762688297E+02  0.61944287970E+02  0.12530945937E+03  0.14588926470E+03  0.00000000000E+00 0.  1.
         21    1    1    2  502  501  0.41868247306E+02  0.22736530442E+02 -0.54230434848E+02  0.72186148344E+02  0.00000000000E+00 0. -1.
<scales pt_clust_5="13000.00000" pt_clust_6="13000.00000" pt_clust_7="13000.00000" pt_clust_8="13000.00000" pt_clust_9="47.64347"></scales>
<clustering>
<clus scale="   47.643">  2  9  1 -1</clus>
<clus scale="   91.059">  5  6 -1 -1</clus>
<clus scale="   91.219">  7  8 -1 -1</clus>
<clus scale="  104.758">  2  5  1 -1</clus>
<clus scale="  104.897">  1  5  2 -1</clus>
</clustering>
</event>
<event>
 9    1  0.1484717E-005  0.1171287E+03  0.7546771E-02  0.1248140E+00
          4   -1    0    0  502    0  0.00000000000E+00  0.00000000000E+00  0.10118329126E+03  0.10118329126E+03  0.00000000000E+00 0. -1.
         -4   -1    0    0    0  501 -0.00000000000E+00 -0.00000000000E+00 -0.19474326801E+03  0.19474326801E+03  0.00000000000E+00 0.  1.
         23    2    1    2    0    0 -0.68151057474E+02  0.46441102544E+02 -0.71050436285E+02  0.14140363446E+03  0.90252316883E+02 0.  0.
         23    2    1    2    0    0  0.47732205196E+02 -0.51458541217E+02  0.10528523497E+02  0.11536149111E+03  0.90945472386E+02 0.  0.
        -11    1    4    4    0    0  0.17063182019E+02 -0.73874468444E+02 -0.44449162798E+00  0.75820754687E+02  0.00000000000E+00 0.  1.
         11    1    4    4    0    0  0.30669023177E+02  0.22415927227E+02  0.10973015125E+02  0.39540736425E+02  0.00000000000E+00 0. -1.
        -11    1    3    3    0    0 -0.79716078498E+02  0.63033525733E+02 -0.54805314595E+02  0.11546211953E+03  0.00000000000E+00 0. -1.
         11    1    3    3    0    0  0.11565021023E+02 -0.16592423189E+02 -0.16245121690E+02  0.25941514938E+02  0.00000000000E+00 0.  1.
         21    1    1    2  502  501  0.20418852278E+02  0.50174386731E+01 -0.33038063964E+02  0.39161433703E+02  0.00000000000E+00 0.  1.
<scales pt_clust_5="13000.00000" pt_clust_6="13000.00000" pt_clust_7="13000.00000" pt_clust_8="13000.00000" pt_clust_9="21.02627"></scales>
<clustering>
<clus scale="   21.026">  2  9  1 -1</clus>
<clus scale="   90.252">  7  8 -1 -1</clus>
<clus scale="   90.945">  5  6 -1 -1</clus>
<clus scale="  116.591">  2  7  1 -1</clus>
<clus scale="  117.129">  1  5  2 -1</clus>
</clustering>
</event>
<event>
 9    1  0.1484717E-005  0.2218638E+03  0.7546771E-02  0.1133791E+00
         -1   -1    0    0    0  501 -0.00000000000E+00  0.00000000000E+00  0.87494675777E+02  0.87494675777E+02  0.00000000000E+00 0.  1.
          1   -1    0    0  502    0  0.00000000000E+00 -0.00000000000E+00 -0.75892408214E+03  0.75892408214E+03  0.00000000000E+00 0. -1.
         23    2    1    2    0    0 -0.82658186556E+02  0.15816318188E+03 -0.23603480079E+03  0.31344729671E+03  0.10338671446E+03 0.  0.
         23    2    1    2    0    0  0.10169649472E+03 -0.18238504446E+03 -0.44614919499E+03  0.50033992741E+03  0.87661036357E+02 0.  0.
        -13    1    3    3    0    0  0.14669392169E+02  0.14579415634E+02 -0.19169997832E+00  0.20683016601E+02  0.00000000000E+00 0.  1.
         13    1    3    3    0    0 -0.97327578725E+02  0.14358376625E+03 -0.23584310081E+03  0.29276428011E+03  0.00000000000E+00 0. -1.
        -13    1    4    4    0    0  0.30481144375E+02 -0.33607766228E+02 -0.34885865194E+02  0.57232907523E+02  0.00000000000E+00 0. -1.
         13    1    4    4    0    0  0.71215350345E+02 -0.14877727823E+03 -0.41126332979E+03  0.44310701989E+03  0.00000000000E+00 0.  1.
         21    1    1    2  502  501 -0.19038308164E+02  0.24221862579E+02  0.10754589406E+02  0.32631533796E+02  0.00000000000E+00 0.  1.
<scales pt_clust_5="13000.00000" pt_clust_6="13000.00000" pt_clust_7="13000.00000" pt_clust_8="13000.00000" pt_clust_9="30.80837"></scales>
<clustering>
<clus scale="   30.808">  1  9  2 -1</clus>
<clus scale="   87.661">  7  8 -1 -1</clus>
<clus scale="  103.387">  5  6 -1 -1</clus>
<clus scale="  214.986">  2  7  1 -1</clus>
<clus scale="  214.986">  2  5  1 -1</clus>
</clustering>
</event>
<event>
 9    1  0.1484717E-005  0.1075953E+03  0.7546771E-02  0.1270012E+00
         -1   -1    0    0    0  501 -0.00000000000E+00  0.00000000000E+00  0.41831302051E+02  0.41831302051E+02  0.00000000000E+00 0.  1.
          1   -1    0    0  502    0  0.00000000000E+00 -0.00000000000E+00 -0.39487026799E+03  0.39487026799E+03  0.00000000000E+00 0. -1.
         23    2    1    2    0    0 -0.22546618133E+02 -0.14582484204E+02 -0.94762298242E+02  0.14074809561E+03  0.10054419135E+03 0.  0.
         23    2    1    2    0    0  0.58688421634E+02  0.13954143211E+02 -0.19641308708E+03  0.22430344038E+03  0.89971571310E+02 0.  0.
        -11    1    4    4    0    0 -0.20285018796E+02  0.17073241449E+02 -0.29752197668E+02  0.39851861026E+02  0.00000000000E+00 0.  1.
         11    1    4    4    0    0  0.78973440430E+02 -0.31190982374E+01 -0.16666088941E+03  0.18445157935E+03  0.00000000000E+00 0. -1.
        -11    1    3    3    0    0 -0.72808478899E+01  0.20334943306E+02  0.13840576677E+02  0.25653113417E+02  0.00000000000E+00 0.  1.
         11    1    3    3    0    0 -0.15265770243E+02 -0.34917427511E+02 -0.10860287492E+03  0.11509498219E+03  0.00000000000E+00 0. -1.
         21    1    1    2  502  501 -0.36141803501E+02  0.62834099326E+00 -0.61863580620E+02  0.71650034053E+02  0.00000000000E+00 0.  1.
<scales pt_clust_5="13000.00000" pt_clust_6="13000.00000" pt_clust_7="13000.00000" pt_clust_8="13000.00000" pt_clust_9="36.14727"></scales>
<clustering>
<clus scale="   36.147">  2  9  1 -1</clus>
<clus scale="   89.972">  5  6 -1 -1</clus>
<clus scale="   97.788">  2  5  1 -1</clus>
<clus scale="  100.544">  7  8 -1 -1</clus>
<clus scale="   36.147">  2  5  1 -1</clus>
</clustering>
</event>
<event>
 9    1  0.1484717E-005  0.9376265E+02  0.7546771E-02  0.1294347E+00
         -1   -1    0    0    0  501 -0.00000000000E+00  0.00000000000E+00  0.30512835527E+02  0.30512835527E+02  0.00000000000E+00 0.  1.
          1   -1    0    0  502    0  0.00000000000E+00 -0.00000000000E+00 -0.40140199074E+03  0.40140199074E+03  0.00000000000E+00 0. -1.
         23    2    1    2    0    0  0.12741545011E+01 -0.32496630031E+02 -0.15654426891E+03  0.18433839892E+03  0.91743570638E+02 0.  0.
         23    2    1    2    0    0  0.12924040705E+02  0.67619531422E+01 -0.18076533890E+03  0.20295078063E+03  0.91105196185E+02 0.  0.
        -13    1    3    3    0    0  0.42424286362E+02 -0.36522049841E+02 -0.88642943155E+02  0.10483917001E+03  0.00000000000E+00 0.  1.
         13    1    3    3    0    0 -0.41150131861E+02  0.40254198099E+01 -0.67901325758E+02  0.79499228905E+02  0.00000000000E+00 0. -1.
        -13    1    4    4    0    0  0.31103302326E+02 -0.25553115688E+02 -0.37673338843E+02  0.55133089852E+02  0.00000000000E+00 0.  1.
         13    1    4    4    0    0 -0.18179261622E+02  0.32315068831E+02 -0.14309200005E+03  0.14781769078E+03  0.00000000000E+00 0. -1.
         21    1    1    2  502  501 -0.14198195206E+02  0.25734676889E+02 -0.33579547406E+02  0.44625646725E+02  0.00000000000E+00 0.  1.
<scales pt_clust_5="13000.00000" pt_clust_6="13000.00000" pt_clust_7="13000.00000" pt_clust_8="13000.00000" pt_clust_9="29.39154"></scales>
<clustering>
<clus scale="   29.392">  1  9  2 -1</clus>
<clus scale="   91.105">  7  8 -1 -1</clus>
<clus scale="   91.744">  5  6 -1 -1</clus>
<clus scale="   93.138">  2  7  1 -1</clus>
<clus scale="   93.138">  2  5  1 -1</clus>
</clustering>
</event>
<event>
 9    1  0.1484717E-005  0.1262869E+03  0.7546771E-02  0.1233719E+00
         -1   -1    0    0    0  501 -0.00000000000E+00  0.00000000000E+00  0.12484903366E+03  0.12484903366E+03  0.00000000000E+00 0.  1.
          1   -1    0    0  502    0  0.00000000000E+00 -0.00000000000E+00 -0.34711759327E+03  0.34711759327E+03  0.00000000000E+00 0. -1.
         23    2    1    2    0    0  0.59056556348E+02 -0.48444337406E+02  0.45641395841E+02  0.12577018944E+03  0.88884604199E+02 0.  0.
         23    2    1    2    0    0 -0.46713362367E+02  0.76587039172E+02 -0.28401733794E+03  0.31150041653E+03  0.91208269637E+02 0.  0.
        -11    1    4    4    0    0 -0.35761934204E+02  0.97646586506E+02 -0.22406537552E+03  0.24702037224E+03  0.00000000000E+00 0. -1.
         11    1    4    4    0    0 -0.10951428163E+02 -0.21059547334E+02 -0.59951962421E+02  0.64480044284E+02  0.00000000000E+00 0.  1.
        -13    1    3    3    0    0  0.76506705011E+02 -0.28680571579E+02  0.11312589086E+02  0.82485306386E+02  0.00000000000E+00 0. -1.
         13    1    3    3    0    0 -0.17450148663E+02 -0.19763765827E+02  0.34328806755E+02  0.43284883056E+02  0.00000000000E+00 0.  1.
         21    1    1    2  502  501 -0.12343193980E+02 -0.28142701766E+02  0.16107382491E+02  0.34696020969E+02  0.00000000000E+00 0.  1.
<scales pt_clust_5="13000.00000" pt_clust_6="13000.00000" pt_clust_7="13000.00000" pt_clust_8="13000.00000" pt_clust_9="30.73054"></scales>
<clustering>
<clus scale="   30.731">  1  9  2 -1</clus>
<clus scale="   88.885">  7  8 -1 -1</clus>
<clus scale="   91.208">  5  6 -1 -1</clus>
<clus scale="  124.619">  1  7  2 -1</clus>
<clus scale="  126.287">  2  5  1 -1</clus>
</clustering>
</event>
<event>
 9    1  0.1484717E-005  0.9524430E+02  0.7546771E-02  0.1291390E+00
          3   -1    0    0  502    0  0.00000000000E+00  0.00000000000E+00  0.70373869132E+02  0.70373869132E+02  0.00000000000E+00 0. -1.
         -3   -1    0    0    0  501 -0.00000000000E+00 -0.00000000000E+00 -0.24731331671E+03  0.24731331671E+03  0.00000000000E+00 0.  1.
         23    2    1    2    0    0 -0.50067266248E+02  0.65840100192E+01 -0.76978913427E+02  0.12933699508E+03  0.90841757172E+02 0.  0.
         23    2    1    2    0    0  0.19832165204E+01 -0.17405935033E+02 -0.22506915000E+02  0.96544673396E+02  0.92235638537E+02 0.  0.
        -11    1    3    3    0    0 -0.19886067118E+01  0.33867893235E+02  0.77429533638E+00  0.33935059778E+02  0.00000000000E+00 0. -1.
         11    1    3    3    0    0 -0.48078659536E+02 -0.27283883216E+02 -0.77753208763E+02  0.95401935301E+02  0.00000000000E+00 0.  1.
        -13    1    4    4    0    0  0.21108881468E+02  0.32892907715E+02 -0.16407105988E+02  0.42387750373E+02  0.00000000000E+00 0. -1.
         13    1    4    4    0    0 -0.19125664947E+02 -0.50298842747E+02 -0.60998090116E+01  0.54156923024E+02  0.00000000000E+00 0.  1.
         21    1    1    2  502  501  0.48084049728E+02  0.10821925013E+02 -0.77453619151E+02  0.91805517366E+02  0.00000000000E+00 0. -1.
<scales pt_clust_5="13000.00000" pt_clust_6="13000.00000" pt_clust_7="13000.00000" pt_clust_8="13000.00000" pt_clust_9="49.28681"></scales>
<clustering>
<clus scale="   49.287">  2  9  1 -1</clus>
<clus scale="   90.842">  5  6 -1 -1</clus>
<clus scale="   92.236">  7  8 -1 -1</clus>
<clus scale="   93.895">  2  5  1 -1</clus>
<clus scale="   95.244">  1  5  2 -1</clus>
</clustering>
</event>
<event>
 9    1  0.1484717E-005  0.1674308E+03  0.7546771E-02  0.1180820E+00
         -2   -1    0    0    0  501 -0.00000000000E+00  0.00000000000E+00  0.18237001354E+03  0.18237001354E+03  0.00000000000E+00 0.  1.
          2   -1    0    0  502    0  0.00000000000E+00 -0.00000000000E+00 -0.27794339030E+03  0.27794339030E+03  0.00000000000E+00 0. -1.
         23    2    1    2    0    0  0.37282892588E-02  0.16878682614E+03 -0.12409892197E+02  0.19210119734E+03  0.90883837413E+02 0.  0.
         23    2    1    2    0    0  0.73834526143E+01 -0.12718992344E+03 -0.13062879172E+03  0.20466829932E+03  0.92700806497E+02 0.  0.
        -11    1    4    4    0    0  0.32500384431E+02 -0.96388369003E+02 -0.46953974569E+02  0.11203422868E+03  0.00000000000E+00 0.  1.
         11    1    4    4    0    0 -0.25116931816E+02 -0.30801554433E+02 -0.83674817150E+02  0.92634070646E+02  0.00000000000E+00 0. -1.
        -11    1    3    3    0    0  0.42511192367E+01  0.13088176958E+03 -0.48448973733E+02  0.13962597423E+03  0.00000000000E+00 0.  1.
         11    1    3    3    0    0 -0.42473909474E+01  0.37905056559E+02  0.36039081537E+02  0.52475223112E+02  0.00000000000E+00 0. -1.
         21    1    1    2  502  501 -0.73871809036E+01 -0.41596902708E+02  0.47465307154E+02  0.63543907181E+02  0.00000000000E+00 0.  1.
<scales pt_clust_5="13000.00000" pt_clust_6="13000.00000" pt_clust_7="13000.00000" pt_clust_8="13000.00000" pt_clust_9="42.24775"></scales>
<clustering>
<clus scale="   42.248">  1  9  2 -1</clus>
<clus scale="   90.884">  7  8 -1 -1</clus>
<clus scale="   92.701">  5  6 -1 -1</clus>
<clus scale="  166.432">  1  7  2 -1</clus>
<clus scale="  167.431">  2  5  1 -1</clus>
</clustering>
</event>
<event>
 9    1  0.1484717E-005  0.9287661E+02  0.7546771E-02  0.1296169E+00
          3   -1    0    0  502    0  0.00000000000E+00  0.00000000000E+00  0.14685523523E+03  0.14685523523E+03  0.00000000000E+00 0. -1.
         -3   -1    0    0    0  501 -0.00000000000E+00 -0.00000000000E+00 -0.15937560702E+03  0.15937560702E+03  0.00000000000E+00 0.  1.
         23    2    1    2    0    0 -0.17991099609E+01  0.13375150108E+01 -0.73190143591E+02  0.11600556357E+03  0.89974818245E+02 0.  0.
         23    2    1    2    0    0 -0.91802553188E+01  0.25055974248E+02  0.10277394973E+03  0.13933397749E+03  0.90218587925E+02 0.  0.
        -11    1    3    3    0    0 -0.37841039197E+02 -0.11268502726E+02 -0.77442238570E+01  0.40235511732E+02  0.00000000000E+00 0. -1.
         11    1    3    3    0    0  0.36041929236E+02  0.12606017736E+02 -0.65445919734E+02  0.75770051842E+02  0.00000000000E+00 0.  1.
        -13    1    4    4    0    0  0.38737685278E+02  0.20912096047E+02  0.63353657911E+02  0.77146678429E+02  0.00000000000E+00 0.  1.
         13    1    4    4    0    0 -0.47917940597E+02  0.41438782005E+01  0.39420291816E+02  0.62187299061E+02  0.00000000000E+00 0. -1.
         21    1    1    2  502  501  0.10979365280E+02 -0.26393489259E+02 -0.42104177929E+02  0.50891301184E+02  0.00000000000E+00 0. -1.
<scales pt_clust_5="13000.00000" pt_clust_6="13000.00000" pt_clust_7="13000.00000" pt_clust_8="13000.00000" pt_clust_9="28.58606"></scales>
<clustering>
<clus scale="   28.586">  2  9  1 -1</clus>
<clus scale="   89.975">  5  6 -1 -1</clus>
<clus scale="   90.219">  7  8 -1 -1</clus>
<clus scale="   92.640">  2  5  1 -1</clus>
<clus scale="   92.877">  1  5  2 -1</clus>
</clustering>
</event>
<event>
 9    1  0.1484717E-005  0.1859908E+03  0.7546771E-02  0.1162211E+00
          1   -1    0    0  502    0  0.00000000000E+00  0.00000000000E+00  0.16831528077E+03  0.16831528077E+03  0.00000000000E+00 0. -1.
         -1   -1    0    0    0  501 -0.00000000000E+00 -0.00000000000E+00 -0.48148701338E+03  0.48148701338E+03  0.00000000000E+00 0.  1.
         23    2    1    2    0    0 -0.38029736356E+02  0.15635327369E+03 -0.32709921967E+03  0.37592322322E+03  0.91824632915E+02 0.  0.
         23    2    1    2    0    0  0.12595563727E+02 -0.16170645218E+03  0.80284903776E+02  0.20261294705E+03  0.91097286666E+02 0.  0.
        -13    1    3    3    0    0 -0.31808884059E+02  0.96321052745E+02 -0.28451981650E+03  0.30206137834E+03  0.00000000000E+00 0.  1.
         13    1    3    3    0    0 -0.62208522972E+01  0.60032220944E+02 -0.42579403175E+02  0.73861844883E+02  0.00000000000E+00 0. -1.
        -13    1    4    4    0    0  0.40624641984E+02 -0.42635501199E+02  0.52888205473E+01  0.59127989325E+02  0.00000000000E+00 0.  1.
         13    1    4    4    0    0 -0.28029078256E+02 -0.11907095098E+03  0.74996083229E+02  0.14348495773E+03  0.00000000000E+00 0. -1.
         21    1    1    2  502  501  0.25434172629E+02  0.53531784876E+01 -0.66357416724E+02  0.71266123870E+02  0.00000000000E+00 0. -1.
<scales pt_clust_5="13000.00000" pt_clust_6="13000.00000" pt_clust_7="13000.00000" pt_clust_8="13000.00000" pt_clust_9="25.99142"></scales>
<clustering>
<clus scale="   25.991">  2  9  1 -1</clus>
<clus scale="   91.097">  7  8 -1 -1</clus>
<clus scale="   91.825">  5  6 -1 -1</clus>
<clus scale="  185.633">  1  7  2 -1</clus>
<clus scale="  185.633">  1  5  2 -1</clus>
</clustering>
</event>
<event>
 9    1  0.1484717E-005  0.9515060E+02  0.7546771E-02  0.1291856E+00
         -3   -1    0    0    0  501 -0.00000000000E+00  0.00000000000E+00  0.47469647102E+03  0.47469647102E+03  0.00000000000E+00 0.  1.
          3   -1    0    0  502    0  0.00000000000E+00 -0.00000000000E+00 -0.36300419977E+02  0.36300419977E+02  0.00000000000E+00 0. -1.
         23    2    1    2    0    0  0.33396530278E+02 -0.57685942478E+01  0.22296535162E+03  0.24332448113E+03  0.91349056830E+02 0.  0.
         23    2    1    2    0    0 -0.10368725445E+02 -0.31423117016E+02  0.77316893815E+02  0.12279685470E+03  0.89477610080E+02 0.  0.
        -11    1    3    3    0    0 -0.14509347152E+02  0.32686998440E+02  0.73961457194E+02  0.82153868880E+02  0.00000000000E+00 0.  1.
         11    1    3    3    0    0  0.47905877429E+02 -0.38455592688E+02  0.14900389442E+03  0.16117061225E+03  0.00000000000E+00 0. -1.
        -11    1    4    4    0    0 -0.39046787636E+02  0.14164952678E+02  0.34298353434E+02  0.53867193702E+02  0.00000000000E+00 0.  1.
         11    1    4    4    0    0  0.28678062191E+02 -0.45588069693E+02  0.43018540381E+02  0.68929661002E+02  0.00000000000E+00 0. -1.
         21    1    1    2  502  501 -0.23027804832E+02  0.37191711263E+02  0.13811380561E+03  0.14487555516E+03  0.00000000000E+00 0.  1.
<scales pt_clust_5="13000.00000" pt_clust_6="13000.00000" pt_clust_7="13000.00000" pt_clust_8="13000.00000" pt_clust_9="43.74361"></scales>
<clustering>
<clus scale="   43.744">  1  9  2 -1</clus>
<clus scale="   89.478">  7  8 -1 -1</clus>
<clus scale="   91.349">  5  6 -1 -1</clus>
<clus scale="   93.355">  2  7  1 -1</clus>
<clus scale="   93.355">  2  5  1 -1</clus>
</clustering>
</event>
<event>
 9    1  0.1484717E-005  0.1495398E+03  0.7546771E-02  0.1201329E+00
         -3   -1    0    0    0  501 -0.00000000000E+00  0.00000000000E+00  0.30744549845E+03  0.30744549845E+03  0.00000000000E+00 0.  1.
          3   -1    0    0  502    0  0.00000000000E+00 -0.00000000000E+00 -0.25340405193E+03  0.25340405193E+03  0.00000000000E+00 0. -1.
         23    2    1    2    0    0  0.15236422331E+02 -0.10629170297E+03  0.22360615113E+03  0.26477104155E+03  0.92595458503E+02 0.  0.
         23    2    1    2    0    0 -0.39169278988E+02  0.11195914834E+03 -0.20450483591E+03  0.25335013020E+03  0.91076765673E+02 0.  0.
        -11    1    4    4    0    0 -0.29060669103E+02  0.49175641864E+02 -0.23976110682E+02  0.61948528029E+02  0.00000000000E+00 0.  1.
         11    1    4    4    0    0 -0.10108609884E+02  0.62783506477E+02 -0.18052872523E+03  0.19140160217E+03  0.00000000000E+00 0. -1.
        -13    1    3    3    0    0 -0.10896680737E+02 -0.44549190805E+02  0.19322630288E+02  0.49766777007E+02  0.00000000000E+00 0. -1.
         13    1    3    3    0    0  0.26133103068E+02 -0.61742512163E+02  0.20428352084E+03  0.21500426454E+03  0.00000000000E+00 0.  1.
         21    1    1    2  502  501  0.23932856657E+02 -0.56674453735E+01  0.34940131303E+02  0.42728378629E+02  0.00000000000E+00 0. -1.
<scales pt_clust_5="13000.00000" pt_clust_6="13000.00000" pt_clust_7="13000.00000" pt_clust_8="13000.00000" pt_clust_9="24.59475"></scales>
<clustering>
<clus scale="   24.595">  1  9  2 -1</clus>
<clus scale="   91.077">  5  6 -1 -1</clus>
<clus scale="   92.595">  7  8 -1 -1</clus>
<clus scale="  148.604">  2  5  1 -1</clus>
<clus scale="  148.604">  2  5  1 -1</clus>
</clustering>
</event>
<event>
 9    1  0.1484717E-005  0.1497823E+03  0.7546771E-02  0.1201026E+00
         -1   -1    0    0    0  501 -0.00000000000E+00  0.00000000000E+00  0.12472551621E+03  0.12472551621E+03  0.00000000000E+00 0.  1.
          1   -1    0    0  502    0  0.00000000000E+00 -0.00000000000E+00 -0.36355056473E+03  0.36355056473E+03  0.00000000000E+00 0. -1.
         23    2    1    2    0    0  0.14963660590E+03 -0.79961096815E+02 -0.10710240783E+03  0.22065009719E+03  0.91818564569E+02 0.  0.
         23    2    1    2    0    0 -0.91468788293E+02  0.17183703197E+02 -0.12522464442E+03  0.18179638448E+03  0.93310744034E+02 0.  0.
        -11    1    4    4    0    0 -0.12670810764E+02  0.45875420771E+02 -0.39169581517E+02  0.61638947043E+02  0.00000000000E+00 0.  1.
         11    1    4    4    0    0 -0.78797977529E+02 -0.28691717574E+02 -0.86055062902E+02  0.12015743744E+03  0.00000000000E+00 0. -1.
        -11    1    3    3    0    0  0.85986581995E+02 -0.36052681291E+02 -0.60886491821E+01  0.93437464436E+02  0.00000000000E+00 0.  1.
         11    1    3    3    0    0  0.63650023902E+02 -0.43908415524E+02 -0.10101375865E+03  0.12721263275E+03  0.00000000000E+00 0. -1.
         21    1    1    2  502  501 -0.58167817603E+02  0.62777393618E+02 -0.64979962741E+01  0.85829599264E+02  0.00000000000E+00 0.  1.
<scales pt_clust_5="13000.00000" pt_clust_6="13000.00000" pt_clust_7="13000.00000" pt_clust_8="13000.00000" pt_clust_9="85.58327"></scales>
<clustering>
<clus scale="   85.583">  1  9  2 -1</clus>
<clus scale="   91.819">  7  8 -1 -1</clus>
<clus scale="   93.311">  5  6 -1 -1</clus>
<clus scale="  148.857">  1  7  2 -1</clus>
<clus scale="  149.782">  2  5  1 -1</clus>
</clustering>
</event>
