<event>
 9    2  0.6085395E-005  0.2578612E+03  0.7546771E-02  0.1131733E+00
         -1   -1    0    0    0  501 -0.00000000000E+00  0.00000000000E+00  0.22906773509E+03  0.22906773509E+03  0.00000000000E+00 0.  1.
         21   -1    0    0  501  502  0.00000000000E+00 -0.00000000000E+00 -0.18535390781E+03  0.18535390781E+03  0.00000000000E+00 0.  1.
         23    2    1    2    0    0  0.82190058447E+02  0.76039209774E+02 -0.28179990523E+02  0.14672568181E+03  0.90538095328E+02 0.  0.
         24    2    1    2    0    0 -0.18774717864E+02 -0.34058527833E+02  0.14039938127E+03  0.16533925490E+03  0.78183179781E+02 0.  0.
        -13    1    4    4    0    0 -0.28860754337E+02  0.76843134690E+01  0.16310979303E+02  0.34029984722E+02  0.00000000000E+00 0.  1.
         14    1    4    4    0    0  0.10086036473E+02 -0.41742841302E+02  0.12408840196E+03  0.13130927017E+03  0.00000000000E+00 0. -1.
        -11    1    3    3    0    0  0.55371117033E+02  0.21636240748E+02  0.26477299280E+02  0.65077914013E+02  0.00000000000E+00 0.  1.
         11    1    3    3    0    0  0.26818941414E+02  0.54402969025E+02 -0.54657289803E+02  0.81647767795E+02  0.00000000000E+00 0. -1.
         -2    1    1    2    0  502 -0.63415340583E+02 -0.41980681940E+02 -0.68505563467E+02  0.10235670620E+03  0.00000000000E+00 0.  1.
<scales pt_clust_5="13000.00000" pt_clust_6="13000.00000" pt_clust_7="13000.00000" pt_clust_8="13000.00000" pt_clust_9="13000.00000"></scales>
<clustering>
<clus scale="   78.183">  5  6 -1 -1</clus>
<clus scale="   76.052">  5  9 -1 -1</clus>
<clus scale="   90.538">  7  8 -1 -1</clus>
<clus scale="  143.994">  1  7  2 -1</clus>
<clus scale="  257.861">  2  5  1 -1</clus>
</clustering>
</event>
<event>
 9    2  0.6085395E-005  0.1404096E+03  0.7546771E-02  0.1227527E+00
          4   -1    0    0  502    0 -0.00000000000E+00  0.00000000000E+00  0.22174253360E+03  0.22174253360E+03  0.00000000000E+00 0. -1.
         21   -1    0    0  501  502  0.00000000000E+00 -0.00000000000E+00 -0.10022441059E+03  0.10022441059E+03  0.00000000000E+00 0. -1.
         23    2    1    2    0    0  0.27350097554E+02 -0.36329098422E+02 -0.37677298845E+02  0.10969813729E+03  0.92446045066E+02 0.  0.
         24    2    1    2    0    0  0.11781261824E+02  0.20867486609E+02  0.55372019477E+02  0.10024370433E+03  0.80053042346E+02 0.  0.
        -13    1    4    4    0    0  0.36635458029E+02  0.32688288416E+02  0.53564341819E+02  0.72662367833E+02  0.00000000000E+00 0.  1.
         14    1    4    4    0    0 -0.24854196205E+02 -0.11820801807E+02  0.18076776579E+01  0.27581336495E+02  0.00000000000E+00 0. -1.
        -13    1    3    3    0    0  0.99855904847E+01  0.18515027661E+02 -0.46932197323E+02  0.51431016052E+02  0.00000000000E+00 0.  1.
         13    1    3    3    0    0  0.17364507069E+02 -0.54844126083E+02  0.92548984774E+01  0.58267121238E+02  0.00000000000E+00 0. -1.
          3    1    1    2  501    0 -0.39131359378E+02  0.15461611813E+02  0.10382340237E+03  0.11202510257E+03  0.00000000000E+00 0. -1.
<scales pt_clust_5="13000.00000" pt_clust_6="13000.00000" pt_clust_7="13000.00000" pt_clust_8="13000.00000" pt_clust_9="13000.00000"></scales>
<clustering>
<clus scale="   80.053">  5  6 -1 -1</clus>
<clus scale="   42.075">  5  9 -1 -1</clus>
<clus scale="   92.446">  7  8 -1 -1</clus>
<clus scale="  103.025">  1  7  2 -1</clus>
<clus scale="  140.410">  2  5  1 -1</clus>
</clustering>
</event>
<event>
 9    2  0.6085395E-005  0.3338877E+03  0.7546771E-02  0.1109069E+00
         -3   -1    0    0    0  501 -0.00000000000E+00  0.00000000000E+00  0.25820665580E+03  0.25820665580E+03  0.00000000000E+00 0.  1.
         21   -1    0    0  501  502  0.00000000000E+00 -0.00000000000E+00 -0.53180403990E+03  0.53180403990E+03  0.00000000000E+00 0.  1.
         23    2    1    2    0    0 -0.29231601068E+02 -0.69001187026E+02  0.18736546458E+03  0.22082903131E+03  0.89688312724E+02 0.  0.
         24    2    1    2    0    0 -0.11265711200E+03 -0.37858583368E+02 -0.25589083737E+03  0.29787750436E+03  0.95530046249E+02 0.  0.
        -13    1    4    4    0    0 -0.11660398745E+03 -0.27141871544E+02 -0.25959460009E+03  0.28587152267E+03  0.00000000000E+00 0.  1.
         14    1    4    4    0    0  0.39468754476E+01 -0.10716711824E+02  0.37037627167E+01  0.12005981692E+02  0.00000000000E+00 0. -1.
        -13    1    3    3    0    0  0.31859560449E+02 -0.17624724283E+02  0.69806379865E+02  0.78731144841E+02  0.00000000000E+00 0. -1.
         13    1    3    3    0    0 -0.61091161517E+02 -0.51376462742E+02  0.11755908472E+03  0.14209788647E+03  0.00000000000E+00 0.  1.
         -4    1    1    2    0  502  0.14188871307E+03  0.10685977039E+03 -0.20507201132E+03  0.27130416003E+03  0.00000000000E+00 0.  1.
<scales pt_clust_5="13000.00000" pt_clust_6="13000.00000" pt_clust_7="13000.00000" pt_clust_8="13000.00000" pt_clust_9="13000.00000"></scales>
<clustering>
<clus scale="   89.688">  7  8 -1 -1</clus>
<clus scale="   95.530">  5  6 -1 -1</clus>
<clus scale="  116.874">  1  7  2 -1</clus>
<clus scale="  139.831">  5  9 -1 -1</clus>
<clus scale="  333.888">  2  5  1 -1</clus>
</clustering>
</event>
<event>
 9    2  0.6085395E-005  0.1205885E+03  0.7546771E-02  0.1250715E+00
         21   -1    0    0  501  502  0.00000000000E+00  0.00000000000E+00  0.20968925563E+03  0.20968925563E+03  0.00000000000E+00 0.  1.
         -3   -1    0    0    0  501 -0.00000000000E+00 -0.00000000000E+00 -0.10075055155E+03  0.10075055155E+03  0.00000000000E+00 0.  1.
         23    2    1    2    0    0  0.42951599981E+02  0.30310772887E+02 -0.48216634720E+02  0.11235045681E+03  0.86799760304E+02 0.  0.
         24    2    1    2    0    0 -0.18330023675E+02 -0.24119283595E+02  0.14782870087E+03  0.17104230368E+03  0.80525866891E+02 0.  0.
        -11    1    4    4    0    0 -0.41167478460E+02 -0.28179787991E+02  0.13629276945E+03  0.14513642113E+03  0.00000000000E+00 0.  1.
         12    1    4    4    0    0  0.22837454785E+02  0.40605043957E+01  0.11535931418E+02  0.25905882550E+02  0.00000000000E+00 0. -1.
        -11    1    3    3    0    0  0.50436415491E+02 -0.14630366538E+02 -0.40095513865E+02  0.66072156501E+02  0.00000000000E+00 0.  1.
         11    1    3    3    0    0 -0.74848155097E+01  0.44941139425E+02 -0.81211208552E+01  0.46278300314E+02  0.00000000000E+00 0. -1.
         -4    1    1    2    0  502 -0.24621576306E+02 -0.61914892920E+01  0.93266379352E+01  0.27047046690E+02  0.00000000000E+00 0.  1.
<scales pt_clust_5="13000.00000" pt_clust_6="13000.00000" pt_clust_7="13000.00000" pt_clust_8="13000.00000" pt_clust_9="13000.00000"></scales>
<clustering>
<clus scale="   80.526">  5  6 -1 -1</clus>
<clus scale="   25.388">  5  9 -1 -1</clus>
<clus scale="   86.800">  7  8 -1 -1</clus>
<clus scale="  101.478">  2  7  1 -1</clus>
<clus scale="  120.589">  1  5  2 -1</clus>
</clustering>
</event>
<event>
 9    2  0.6085395E-005  0.3105884E+03  0.7546771E-02  0.1125631E+00
         21   -1    0    0  501  502  0.00000000000E+00  0.00000000000E+00  0.22547843011E+03  0.22547843011E+03  0.00000000000E+00 0.  1.
         -1   -1    0    0    0  501 -0.00000000000E+00 -0.00000000000E+00 -0.19147444072E+03  0.19147444072E+03  0.00000000000E+00 0.  1.
         23    2    1    2    0    0 -0.10928125821E+02 -0.28271022575E+02 -0.28962942110E+02  0.10004591509E+03  0.90838639682E+02 0.  0.
         24    2    1    2    0    0 -0.50948342428E+02 -0.11159049265E+03  0.70867001018E+02  0.16376534852E+03  0.82150994501E+02 0.  0.
        -13    1    4    4    0    0 -0.56791234619E+02 -0.12075953288E+03  0.54567852282E+02  0.14417267291E+03  0.00000000000E+00 0.  1.
         14    1    4    4    0    0  0.58428921909E+01  0.91690402368E+01  0.16299148736E+02  0.19592675610E+02  0.00000000000E+00 0. -1.
        -13    1    3    3    0    0  0.24050069775E+02 -0.41170765785E+02 -0.38818382713E+02  0.61484182096E+02  0.00000000000E+00 0.  1.
         13    1    3    3    0    0 -0.34978195596E+02  0.12899743210E+02  0.98554406037E+01  0.38561732995E+02  0.00000000000E+00 0. -1.
         -2    1    1    2    0  502  0.61876468249E+02  0.13986151522E+03 -0.79000695163E+01  0.15314160722E+03  0.00000000000E+00 0.  1.
<scales pt_clust_5="13000.00000" pt_clust_6="13000.00000" pt_clust_7="13000.00000" pt_clust_8="13000.00000" pt_clust_9="13000.00000"></scales>
<clustering>
<clus scale="   82.151">  5  6 -1 -1</clus>
<clus scale="   90.839">  7  8 -1 -1</clus>
<clus scale="   95.762">  2  7  1 -1</clus>
<clus scale="  133.741">  5  9 -1 -1</clus>
<clus scale="  310.588">  1  5  2 -1</clus>
</clustering>
</event>
<event>
 9    2  0.6085395E-005  0.1357318E+03  0.7546771E-02  0.1233433E+00
         21   -1    0    0  501  502  0.00000000000E+00  0.00000000000E+00  0.12148124072E+03  0.12148124072E+03  0.00000000000E+00 0.  1.
         -1   -1    0    0    0  501 -0.00000000000E+00 -0.00000000000E+00 -0.21750216203E+03  0.21750216203E+03  0.00000000000E+00 0.  1.
         23    2    1    2    0    0 -0.33565468031E+02 -0.26539304179E+02  0.71248849443E+02  0.12357149512E+03  0.91446927502E+02 0.  0.
         24    2    1    2    0    0 -0.10644762444E+02  0.89775978479E+01 -0.71998867095E+02  0.10892480469E+03  0.80541095001E+02 0.  0.
        -11    1    4    4    0    0 -0.42268213340E+02  0.97021031276E+01 -0.62169723775E+02  0.75801103015E+02  0.00000000000E+00 0.  1.
         12    1    4    4    0    0  0.31623450896E+02 -0.72450527972E+00 -0.98291433195E+01  0.33123701678E+02  0.00000000000E+00 0. -1.
        -13    1    3    3    0    0 -0.29715629473E+02 -0.52551303637E+02  0.16109966538E+02  0.62483511192E+02  0.00000000000E+00 0. -1.
         13    1    3    3    0    0 -0.38498385575E+01  0.26011999458E+02  0.55138882905E+02  0.61087983931E+02  0.00000000000E+00 0.  1.
         -2    1    1    2    0  502  0.44210230474E+02  0.17561706331E+02 -0.95270903658E+02  0.10648710294E+03  0.00000000000E+00 0.  1.
<scales pt_clust_5="13000.00000" pt_clust_6="13000.00000" pt_clust_7="13000.00000" pt_clust_8="13000.00000" pt_clust_9="13000.00000"></scales>
<clustering>
<clus scale="   80.541">  5  6 -1 -1</clus>
<clus scale="   47.571">  5  9 -1 -1</clus>
<clus scale="   91.447">  7  8 -1 -1</clus>
<clus scale="  100.963">  2  7  1 -1</clus>
<clus scale="  135.732">  1  5  2 -1</clus>
</clustering>
</event>
<event>
 9    2  0.6085395E-005  0.1388145E+03  0.7546771E-02  0.1230094E+00
         21   -1    0    0  501  502  0.00000000000E+00  0.00000000000E+00  0.13881458823E+03  0.13881458823E+03  0.00000000000E+00 0. -1.
          4   -1    0    0  502    0 -0.00000000000E+00 -0.00000000000E+00 -0.32400158843E+03  0.32400158843E+03  0.00000000000E+00 0. -1.
         23    2    1    2    0    0  0.43508751224E+02 -0.57784202556E+01 -0.27801247758E+03  0.29582501994E+03  0.91077456912E+02 0.  0.
         24    2    1    2    0    0  0.12619979455E+02  0.87724520515E+01  0.60976403473E+02  0.10238649634E+03  0.80800080791E+02 0.  0.
        -13    1    4    4    0    0 -0.21613832350E+02 -0.15904527295E+02 -0.16307750769E+01  0.26884403744E+02  0.00000000000E+00 0.  1.
         14    1    4    4    0    0  0.34233811805E+02  0.24676979346E+02  0.62607178550E+02  0.75502092596E+02  0.00000000000E+00 0. -1.
        -11    1    3    3    0    0 -0.11682247474E+02 -0.20729660511E+02 -0.18645818369E+02  0.30230121958E+02  0.00000000000E+00 0.  1.
         11    1    3    3    0    0  0.55190998698E+02  0.14951240256E+02 -0.25936665921E+03  0.26559489798E+03  0.00000000000E+00 0. -1.
          3    1    1    2  501    0 -0.56128730678E+02 -0.29940317959E+01  0.31849073912E+02  0.64604660382E+02  0.00000000000E+00 0. -1.
<scales pt_clust_5="13000.00000" pt_clust_6="13000.00000" pt_clust_7="13000.00000" pt_clust_8="13000.00000" pt_clust_9="13000.00000"></scales>
<clustering>
<clus scale="   80.800">  5  6 -1 -1</clus>
<clus scale="   56.209">  5  9 -1 -1</clus>
<clus scale="   91.077">  7  8 -1 -1</clus>
<clus scale="  101.101">  2  7  1 -1</clus>
<clus scale="  138.815">  1  5  2 -1</clus>
</clustering>
</event>
<event>
 9    2  0.6085395E-005  0.1789417E+03  0.7546771E-02  0.1199539E+00
         -1   -1    0    0    0  501 -0.00000000000E+00  0.00000000000E+00  0.18190581394E+03  0.18190581394E+03  0.00000000000E+00 0.  1.
         21   -1    0    0  501  502  0.00000000000E+00 -0.00000000000E+00 -0.10499791429E+03  0.10499791429E+03  0.00000000000E+00 0. -1.
         23    2    1    2    0    0  0.16465278295E+02  0.38464009362E+01  0.57438593645E+02  0.10690603692E+03  0.88565278187E+02 0.  0.
         24    2    1    2    0    0 -0.74545854555E+02 -0.13147300101E+02 -0.17267090997E+02  0.11064768823E+03  0.78834145818E+02 0.  0.
        -13    1    4    4    0    0 -0.14316379292E+02 -0.29168864090E+02 -0.33059274519E+02  0.46354039523E+02  0.00000000000E+00 0.  1.
         14    1    4    4    0    0 -0.60229475263E+02  0.16021563989E+02  0.15792183522E+02  0.64293648702E+02  0.00000000000E+00 0. -1.
        -13    1    3    3    0    0 -0.14231237064E+02 -0.36653927885E+02  0.23775338343E+02  0.45948941784E+02  0.00000000000E+00 0. -1.
         13    1    3    3    0    0  0.30696515359E+02  0.40500328821E+02  0.33663255302E+02  0.60957095135E+02  0.00000000000E+00 0.  1.
         -2    1    1    2    0  502  0.58080576259E+02  0.93008991646E+01  0.36736397005E+02  0.69350003091E+02  0.00000000000E+00 0.  1.
<scales pt_clust_5="13000.00000" pt_clust_6="13000.00000" pt_clust_7="13000.00000" pt_clust_8="13000.00000" pt_clust_9="13000.00000"></scales>
<clustering>
<clus scale="   78.834">  5  6 -1 -1</clus>
<clus scale="   58.821">  5  9 -1 -1</clus>
<clus scale="   88.565">  7  8 -1 -1</clus>
<clus scale="   90.165">  1  7  2 -1</clus>
<clus scale="  178.942">  2  5  1 -1</clus>
</clustering>
</event>
<event>
 9    2  0.6085395E-005  0.1992737E+03  0.7546771E-02  0.1159003E+00
         21   -1    0    0  501  502  0.00000000000E+00  0.00000000000E+00  0.18530640052E+03  0.18530640052E+03  0.00000000000E+00 0.  1.
         -1   -1    0    0    0  501 -0.00000000000E+00 -0.00000000000E+00 -0.17989534375E+03  0.17989534375E+03  0.00000000000E+00 0.  1.
         23    2    1    2    0    0 -0.48846808896E+02  0.12074026641E+03 -0.21808976925E+02  0.16407755703E+03  0.97373459292E+02 0.  0.
         24    2    1    2    0    0  0.35641505573E+02 -0.18090794168E+02  0.37879681206E+02  0.97081300543E+02  0.79951953782E+02 0.  0.
        -13    1    4    4    0    0 -0.19149491908E+02 -0.27521185483E+02  0.17874726189E+02  0.37995059246E+02  0.00000000000E+00 0.  1.
         14    1    4    4    0    0  0.54790997481E+02  0.94303913152E+01  0.20004955017E+02  0.59086241297E+02  0.00000000000E+00 0. -1.
        -13    1    3    3    0    0 -0.45310298140E+02  0.39500641821E+01 -0.10572374894E+02  0.46694766682E+02  0.00000000000E+00 0. -1.
         13    1    3    3    0    0 -0.35365107559E+01  0.11679020223E+03 -0.11236602030E+02  0.11738279035E+03  0.00000000000E+00 0.  1.
         -2    1    1    2    0  502  0.13205303323E+02 -0.10264947224E+03 -0.10659647504E+02  0.10404288670E+03  0.00000000000E+00 0.  1.
<scales pt_clust_5="13000.00000" pt_clust_6="13000.00000" pt_clust_7="13000.00000" pt_clust_8="13000.00000" pt_clust_9="13000.00000"></scales>
<clustering>
<clus scale="   79.952">  5  6 -1 -1</clus>
<clus scale="   97.373">  7  8 -1 -1</clus>
<clus scale="  103.495">  5  9 -1 -1</clus>
<clus scale="  162.622">  2  7  1 -1</clus>
<clus scale="  199.274">  1  5  2 -1</clus>
</clustering>
</event>
<event>
 9    2  0.6085395E-005  0.3464540E+03  0.7546771E-02  0.1093453E+00
         21   -1    0    0  501  502  0.00000000000E+00  0.00000000000E+00  0.96733308514E+02  0.96733308514E+02  0.00000000000E+00 0.  1.
          2   -1    0    0  502    0 -0.00000000000E+00 -0.00000000000E+00 -0.69567363110E+03  0.69567363110E+03  0.00000000000E+00 0. -1.
         23    2    1    2    0    0  0.47060333982E+02 -0.11913027820E+03 -0.28312646018E+03  0.32361189722E+03  0.90318156266E+02 0.  0.
         24    2    1    2    0    0  0.43020491938E+02  0.10622063945E+03 -0.34604479352E+03  0.37290383754E+03  0.78591894976E+02 0.  0.
        -13    1    4    4    0    0  0.18315385473E+02  0.10586791352E+03 -0.22465115950E+03  0.24902130818E+03  0.00000000000E+00 0.  1.
         14    1    4    4    0    0  0.24705106465E+02  0.35272592111E+00 -0.12139363402E+03  0.12388252936E+03  0.00000000000E+00 0. -1.
        -11    1    3    3    0    0  0.66576641098E+02 -0.55107699665E+02 -0.12566305900E+03  0.15251397345E+03  0.00000000000E+00 0.  1.
         11    1    3    3    0    0 -0.19516307116E+02 -0.64022578538E+02 -0.15746340118E+03  0.17109792377E+03  0.00000000000E+00 0. -1.
          1    1    1    2  501    0 -0.90080825920E+02  0.12909638757E+02  0.30230931118E+02  0.95891204850E+02  0.00000000000E+00 0. -1.
<scales pt_clust_5="13000.00000" pt_clust_6="13000.00000" pt_clust_7="13000.00000" pt_clust_8="13000.00000" pt_clust_9="13000.00000"></scales>
<clustering>
<clus scale="   78.592">  5  6 -1 -1</clus>
<clus scale="   90.318">  7  8 -1 -1</clus>
<clus scale="   91.001">  5  9 -1 -1</clus>
<clus scale="  156.729">  2  7  1 -1</clus>
<clus scale="  346.454">  1  5  2 -1</clus>
</clustering>
</event>
<event>
 9    2  0.6085395E-005  0.1289175E+04  0.7546771E-02  0.9570164E-01
         21   -1    0    0  501  502  0.00000000000E+00  0.00000000000E+00  0.27670246245E+03  0.27670246245E+03  0.00000000000E+00 0.  1.
          2   -1    0    0  502    0 -0.00000000000E+00 -0.00000000000E+00 -0.22006673882E+04  0.22006673882E+04  0.00000000000E+00 0. -1.
         23    2    1    2    0    0 -0.38046732757E+02 -0.15581519298E+03 -0.60699173406E+03  0.63443999757E+03  0.91374050275E+02 0.  0.
         24    2    1    2    0    0  0.48840014258E+03 -0.30699390130E+03 -0.90715443647E+03  0.10781018570E+04  0.81206451256E+02 0.  0.
        -13    1    4    4    0    0  0.45618256090E+03 -0.25909047920E+03 -0.80842273432E+03  0.96373114646E+03  0.00000000000E+00 0.  1.
         14    1    4    4    0    0  0.32217581672E+02 -0.47903422095E+02 -0.98731702153E+02  0.11437071053E+03  0.00000000000E+00 0. -1.
        -11    1    3    3    0    0 -0.52792272670E+02 -0.43934001123E+02 -0.17620187050E+03  0.18911456759E+03  0.00000000000E+00 0. -1.
         11    1    3    3    0    0  0.14745539912E+02 -0.11188119186E+03 -0.43078986356E+03  0.44532542998E+03  0.00000000000E+00 0.  1.
          1    1    1    2  501    0 -0.45035340982E+03  0.46280909428E+03 -0.40981875525E+03  0.76482799611E+03  0.00000000000E+00 0. -1.
<scales pt_clust_5="13000.00000" pt_clust_6="13000.00000" pt_clust_7="13000.00000" pt_clust_8="13000.00000" pt_clust_9="13000.00000"></scales>
<clustering>
<clus scale="   81.206">  5  6 -1 -1</clus>
<clus scale="   91.374">  7  8 -1 -1</clus>
<clus scale="  184.595">  2  7  1 -1</clus>
<clus scale="  616.191">  5  9 -1 -1</clus>
<clus scale=" 1289.175">  1  5  2 -1</clus>
</clustering>
</event>
<event>
 9    2  0.6085395E-005  0.1315893E+03  0.7546771E-02  0.1227876E+00
         -3   -1    0    0    0  501 -0.00000000000E+00  0.00000000000E+00  0.10809244085E+03  0.10809244085E+03  0.00000000000E+00 0.  1.
         21   -1    0    0  501  502  0.00000000000E+00 -0.00000000000E+00 -0.23021669604E+03  0.23021669604E+03  0.00000000000E+00 0.  1.
         23    2    1    2    0    0 -0.33584756883E+02  0.61079831424E+02  0.39039169248E+02  0.13024811654E+03  0.10286803889E+03 0.  0.
         24    2    1    2    0    0  0.20030464506E+02 -0.12342133861E+02 -0.11807486050E+03  0.14161023896E+03  0.74553600321E+02 0.  0.
        -13    1    4    4    0    0 -0.13859113970E+02 -0.32188395282E+02 -0.77942664200E+02  0.85458918396E+02  0.00000000000E+00 0.  1.
         14    1    4    4    0    0  0.33889578476E+02  0.19846261421E+02 -0.40132196301E+02  0.56151320568E+02  0.00000000000E+00 0. -1.
        -11    1    3    3    0    0 -0.64607115496E+02  0.57974202592E+02  0.46091789385E+02  0.98282961838E+02  0.00000000000E+00 0.  1.
         11    1    3    3    0    0  0.31022358613E+02  0.31056288316E+01 -0.70526201372E+01  0.31965154702E+02  0.00000000000E+00 0. -1.
         -4    1    1    2    0  502  0.13554292378E+02 -0.48737697563E+02 -0.43088563932E+02  0.66450781390E+02  0.00000000000E+00 0.  1.
<scales pt_clust_5="13000.00000" pt_clust_6="13000.00000" pt_clust_7="13000.00000" pt_clust_8="13000.00000" pt_clust_9="13000.00000"></scales>
<clustering>
<clus scale="   74.554">  5  6 -1 -1</clus>
<clus scale="   50.587">  5  9 -1 -1</clus>
<clus scale="  102.868">  7  8 -1 -1</clus>
<clus scale="  124.260">  1  7  2 -1</clus>
<clus scale="  131.589">  2  5  1 -1</clus>
</clustering>
</event>
<event>
 9    2  0.6085395E-005  0.2399717E+03  0.7546771E-02  0.1146306E+00
          2   -1    0    0  502    0 -0.00000000000E+00  0.00000000000E+00  0.43349187693E+03  0.43349187693E+03  0.00000000000E+00 0. -1.
         21   -1    0    0  501  502  0.00000000000E+00 -0.00000000000E+00 -0.84239384375E+02  0.84239384375E+02  0.00000000000E+00 0. -1.
         23    2    1    2    0    0 -0.79770583316E+02 -0.13879757050E+02  0.52669214506E+02  0.13622365002E+03  0.96056457615E+02 0.  0.
         24    2    1    2    0    0 -0.23256064037E+02  0.42783463708E+01  0.18525754661E+02  0.84821474998E+02  0.79324209879E+02 0.  0.
        -11    1    4    4    0    0 -0.12967754297E+02 -0.31280054051E+02  0.30849406316E+02  0.45807098828E+02  0.00000000000E+00 0.  1.
         12    1    4    4    0    0 -0.10288309739E+02  0.35558400422E+02 -0.12323651655E+02  0.39014376171E+02  0.00000000000E+00 0. -1.
        -13    1    3    3    0    0  0.20390521003E+02 -0.15239222303E+02  0.10267898057E+02  0.27448806416E+02  0.00000000000E+00 0.  1.
         13    1    3    3    0    0 -0.10016110432E+03  0.13594652529E+01  0.42401316449E+02  0.10877484360E+03  0.00000000000E+00 0. -1.
          1    1    1    2  501    0  0.10302664735E+03  0.96014106788E+01  0.27805752339E+03  0.29668613628E+03  0.00000000000E+00 0. -1.
<scales pt_clust_5="13000.00000" pt_clust_6="13000.00000" pt_clust_7="13000.00000" pt_clust_8="13000.00000" pt_clust_9="13000.00000"></scales>
<clustering>
<clus scale="   79.324">  5  6 -1 -1</clus>
<clus scale="   96.056">  7  8 -1 -1</clus>
<clus scale="  103.473">  5  9 -1 -1</clus>
<clus scale="  125.630">  1  7  2 -1</clus>
<clus scale="  239.972">  2  5  1 -1</clus>
</clustering>
</event>
<event>
 9    2  0.6085395E-005  0.3063463E+03  0.7546771E-02  0.1095929E+00
         21   -1    0    0  501  502  0.00000000000E+00  0.00000000000E+00  0.10749717685E+04  0.10749717685E+04  0.00000000000E+00 0. -1.
          4   -1    0    0  502    0 -0.00000000000E+00 -0.00000000000E+00 -0.62737200597E+02  0.62737200597E+02  0.00000000000E+00 0. -1.
         23    2    1    2    0    0  0.10521808530E+03 -0.16093702105E+03  0.38818839250E+03  0.44252431316E+03  0.90365753709E+02 0.  0.
         24    2    1    2    0    0 -0.10609013864E+03  0.13821588192E+02  0.16214028662E+03  0.21041588513E+03  0.80865433612E+02 0.  0.
        -11    1    4    4    0    0 -0.11002515484E+02 -0.26635881681E+02  0.51557622875E+02  0.59065336844E+02  0.00000000000E+00 0.  1.
         12    1    4    4    0    0 -0.95087623154E+02  0.40457469873E+02  0.11058266375E+03  0.15135054829E+03  0.00000000000E+00 0. -1.
        -11    1    3    3    0    0  0.24162283227E+02  0.71680348431E+01  0.36016627023E+02  0.43959004497E+02  0.00000000000E+00 0.  1.
         11    1    3    3    0    0  0.81055802070E+02 -0.16810505590E+03  0.35217176548E+03  0.39856530866E+03  0.00000000000E+00 0. -1.
          3    1    1    2  501    0  0.87205334085E+00  0.14711543286E+03  0.46190588879E+03  0.48476877081E+03  0.00000000000E+00 0. -1.
<scales pt_clust_5="13000.00000" pt_clust_6="13000.00000" pt_clust_7="13000.00000" pt_clust_8="13000.00000" pt_clust_9="13000.00000"></scales>
<clustering>
<clus scale="   80.865">  5  6 -1 -1</clus>
<clus scale="   90.366">  7  8 -1 -1</clus>
<clus scale="  147.118">  5  9 -1 -1</clus>
<clus scale="  212.456">  2  7  1 -1</clus>
<clus scale="  306.346">  1  5  2 -1</clus>
</clustering>
</event>
<event>
 9    2  0.6085395E-005  0.2014409E+03  0.7546771E-02  0.1183054E+00
         21   -1    0    0  501  502  0.00000000000E+00  0.00000000000E+00  0.77510975152E+02  0.77510975152E+02  0.00000000000E+00 0. -1.
          2   -1    0    0  502    0 -0.00000000000E+00 -0.00000000000E+00 -0.33379633765E+03  0.33379633765E+03  0.00000000000E+00 0. -1.
         23    2    1    2    0    0  0.54103753767E+01  0.11552778826E+02 -0.16873625372E+03  0.19166377044E+03  0.90001881762E+02 0.  0.
         24    2    1    2    0    0  0.33806399163E+02 -0.34726602925E+02  0.19373486436E+02  0.10342210330E+03  0.89286000582E+02 0.  0.
        -11    1    4    4    0    0 -0.14879716063E+02 -0.13509470431E+02 -0.26490067946E+02  0.33251096843E+02  0.00000000000E+00 0.  1.
         12    1    4    4    0    0  0.48686115227E+02 -0.21217132494E+02  0.45863554382E+02  0.70171006461E+02  0.00000000000E+00 0. -1.
        -13    1    3    3    0    0  0.22604098269E+02  0.46601150279E+02 -0.99892052637E+02  0.11252126308E+03  0.00000000000E+00 0.  1.
         13    1    3    3    0    0 -0.17193722892E+02 -0.35048371453E+02 -0.68844201080E+02  0.79142507357E+02  0.00000000000E+00 0. -1.
          1    1    1    2  501    0 -0.39216774540E+02  0.23173824099E+02 -0.10692259522E+03  0.11622143906E+03  0.00000000000E+00 0. -1.
<scales pt_clust_5="13000.00000" pt_clust_6="13000.00000" pt_clust_7="13000.00000" pt_clust_8="13000.00000" pt_clust_9="13000.00000"></scales>
<clustering>
<clus scale="   89.286">  5  6 -1 -1</clus>
<clus scale="   45.552">  5  9 -1 -1</clus>
<clus scale="   90.002">  7  8 -1 -1</clus>
<clus scale="   90.901">  2  7  1 -1</clus>
<clus scale="  201.441">  1  5  2 -1</clus>
</clustering>
</event>
<event>
 9    2  0.6085395E-005  0.2331596E+03  0.7546771E-02  0.1163343E+00
         21   -1    0    0  501  502  0.00000000000E+00  0.00000000000E+00  0.29517268978E+03  0.29517268978E+03  0.00000000000E+00 0. -1.
         -1   -1    0    0    0  501 -0.00000000000E+00 -0.00000000000E+00 -0.92970931147E+02  0.92970931147E+02  0.00000000000E+00 0.  1.
         23    2    1    2    0    0 -0.10621203068E+01 -0.57991260003E+01  0.24538756284E+02  0.95009633125E+02  0.91596516662E+02 0.  0.
         24    2    1    2    0    0  0.14437594507E+02 -0.89751207754E+02  0.15456951897E+03  0.19392673723E+03  0.73838470934E+02 0.  0.
        -11    1    4    4    0    0  0.31521777684E+02 -0.47194708898E+02  0.37048984972E+02  0.67776030452E+02  0.00000000000E+00 0.  1.
         12    1    4    4    0    0 -0.17084183176E+02 -0.42556498855E+02  0.11752053400E+03  0.12615070678E+03  0.00000000000E+00 0. -1.
        -13    1    3    3    0    0  0.14017608498E+02 -0.36499389744E+02 -0.15757314826E+02  0.42154380202E+02  0.00000000000E+00 0. -1.
         13    1    3    3    0    0 -0.15079728805E+02  0.30700263744E+02  0.40296071109E+02  0.52855252923E+02  0.00000000000E+00 0.  1.
         -2    1    1    2    0  502 -0.13375474201E+02  0.95550333754E+02  0.23093483375E+02  0.99207250566E+02  0.00000000000E+00 0.  1.
<scales pt_clust_5="13000.00000" pt_clust_6="13000.00000" pt_clust_7="13000.00000" pt_clust_8="13000.00000" pt_clust_9="13000.00000"></scales>
<clustering>
<clus scale="   73.838">  5  6 -1 -1</clus>
<clus scale="   91.597">  7  8 -1 -1</clus>
<clus scale="   91.786">  2  7  1 -1</clus>
<clus scale="   92.801">  5  9 -1 -1</clus>
<clus scale="  233.160">  1  5  2 -1</clus>
</clustering>
</event>
<event>
 9    2  0.6085395E-005  0.2094310E+03  0.7546771E-02  0.1173228E+00
          2   -1    0    0  502    0 -0.00000000000E+00  0.00000000000E+00  0.29047481642E+03  0.29047481642E+03  0.00000000000E+00 0. -1.
         21   -1    0    0  501  502  0.00000000000E+00 -0.00000000000E+00 -0.90006014724E+02  0.90006014724E+02  0.00000000000E+00 0. -1.
         23    2    1    2    0    0  0.31139447225E+02  0.28113173790E+02  0.11826562534E+03  0.15549481270E+03  0.91825175883E+02 0.  0.
         24    2    1    2    0    0  0.13152347843E+02  0.45950990585E+02 -0.11759636283E+02  0.97407518240E+02  0.84056277425E+02 0.  0.
        -11    1    4    4    0    0 -0.18913269730E+02  0.77855938121E+01  0.27277074985E+02  0.34093490033E+02  0.00000000000E+00 0.  1.
         12    1    4    4    0    0  0.32065617573E+02  0.38165396773E+02 -0.39036711267E+02  0.63314028207E+02  0.00000000000E+00 0. -1.
        -13    1    3    3    0    0 -0.23037209581E+02 -0.14847098345E+02  0.56437362249E+02  0.62740140358E+02  0.00000000000E+00 0. -1.
         13    1    3    3    0    0  0.54176656806E+02  0.42960272135E+02  0.61828263088E+02  0.92754672341E+02  0.00000000000E+00 0.  1.
          1    1    1    2  501    0 -0.44291795068E+02 -0.74064164376E+02  0.93962812640E+02  0.12757850020E+03  0.00000000000E+00 0. -1.
<scales pt_clust_5="13000.00000" pt_clust_6="13000.00000" pt_clust_7="13000.00000" pt_clust_8="13000.00000" pt_clust_9="13000.00000"></scales>
<clustering>
<clus scale="   84.056">  5  6 -1 -1</clus>
<clus scale="   86.298">  5  9 -1 -1</clus>
<clus scale="   91.825">  7  8 -1 -1</clus>
<clus scale="  100.955">  1  7  2 -1</clus>
<clus scale="  209.431">  2  5  1 -1</clus>
</clustering>
</event>
<event>
 9    2  0.6085395E-005  0.1166206E+04  0.7546771E-02  0.9816303E-01
         -1   -1    0    0    0  501 -0.00000000000E+00  0.00000000000E+00  0.10566790024E+04  0.10566790024E+04  0.00000000000E+00 0.  1.
         21   -1    0    0  501  502  0.00000000000E+00 -0.00000000000E+00 -0.39514327359E+03  0.39514327359E+03  0.00000000000E+00 0. -1.
         23    2    1    2    0    0 -0.16007012652E+02  0.58007406065E+02  0.13138500346E+03  0.17076922389E+03  0.90989148151E+02 0.  0.
         24    2    1    2    0    0  0.22537641031E+03  0.36707180234E+03 -0.14015050865E+03  0.46018057576E+03  0.81165034609E+02 0.  0.
        -13    1    4    4    0    0  0.16430002385E+03  0.21209698960E+03 -0.58169127147E+02  0.27452372973E+03  0.00000000000E+00 0.  1.
         14    1    4    4    0    0  0.61076386463E+02  0.15497481273E+03 -0.81981381503E+02  0.18565684603E+03  0.00000000000E+00 0. -1.
        -11    1    3    3    0    0 -0.48607865788E+02  0.18416456064E+02  0.38567469065E+02  0.64725112132E+02  0.00000000000E+00 0.  1.
         11    1    3    3    0    0  0.32600853136E+02  0.39590950001E+02  0.92817534396E+02  0.10604411176E+03  0.00000000000E+00 0. -1.
         -2    1    1    2    0  502 -0.20936939766E+03 -0.42507920840E+03  0.67030123397E+03  0.82087247630E+03  0.00000000000E+00 0.  1.
<scales pt_clust_5="13000.00000" pt_clust_6="13000.00000" pt_clust_7="13000.00000" pt_clust_8="13000.00000" pt_clust_9="13000.00000"></scales>
<clustering>
<clus scale="   81.165">  5  6 -1 -1</clus>
<clus scale="   90.989">  7  8 -1 -1</clus>
<clus scale="  109.088">  1  7  2 -1</clus>
<clus scale="  438.063">  5  9 -1 -1</clus>
<clus scale=" 1166.206">  2  5  1 -1</clus>
</clustering>
</event>
<event>
 9    2  0.6085395E-005  0.2326219E+03  0.7546771E-02  0.1133080E+00
         -1   -1    0    0    0  501 -0.00000000000E+00  0.00000000000E+00  0.39539880549E+03  0.39539880549E+03  0.00000000000E+00 0.  1.
         21   -1    0    0  501  502  0.00000000000E+00 -0.00000000000E+00 -0.22365881965E+03  0.22365881965E+03  0.00000000000E+00 0.  1.
         23    2    1    2    0    0  0.11500338096E+02 -0.16606235091E+03  0.29881680570E+03  0.35398880638E+03  0.91146198521E+02 0.  0.
         24    2    1    2    0    0 -0.45605139974E+02  0.47673676435E+02 -0.89402811167E+02  0.13623424776E+03  0.78830827735E+02 0.  0.
        -13    1    4    4    0    0 -0.20945230603E+02  0.21571893017E+02 -0.95222970976E+02  0.99857215337E+02  0.00000000000E+00 0.  1.
         14    1    4    4    0    0 -0.24659909372E+02  0.26101783417E+02  0.58201598084E+01  0.36377032424E+02  0.00000000000E+00 0. -1.
        -13    1    3    3    0    0 -0.33536693492E+02 -0.64922723711E+02  0.16396387459E+03  0.17950994968E+03  0.00000000000E+00 0. -1.
         13    1    3    3    0    0  0.45037031588E+02 -0.10113962720E+03  0.13485293111E+03  0.17447885669E+03  0.00000000000E+00 0.  1.
         -2    1    1    2    0  502  0.34104801878E+02  0.11838867448E+03 -0.37674008688E+02  0.12883457101E+03  0.00000000000E+00 0.  1.
<scales pt_clust_5="13000.00000" pt_clust_6="13000.00000" pt_clust_7="13000.00000" pt_clust_8="13000.00000" pt_clust_9="13000.00000"></scales>
<clustering>
<clus scale="   78.831">  5  6 -1 -1</clus>
<clus scale="   91.146">  7  8 -1 -1</clus>
<clus scale="  123.203">  5  9 -1 -1</clus>
<clus scale="  189.780">  1  7  2 -1</clus>
<clus scale="  232.622">  2  5  1 -1</clus>
</clustering>
</event>
<event>
 9    2  0.6085395E-005  0.3339799E+03  0.7546771E-02  0.1102828E+00
         21   -1    0    0  501  502  0.00000000000E+00  0.00000000000E+00  0.84077261681E+02  0.84077261681E+02  0.00000000000E+00 0. -1.
          2   -1    0    0  502    0 -0.00000000000E+00 -0.00000000000E+00 -0.66169259518E+03  0.66169259518E+03  0.00000000000E+00 0. -1.
         23    2    1    2    0    0  0.94901141753E+01  0.75614222806E+02 -0.18681758214E+03  0.23170230365E+03  0.11391916241E+03 0.  0.
         24    2    1    2    0    0  0.19265089530E+02  0.44916780471E+02  0.11717257240E+02  0.92910911755E+02  0.78143986099E+02 0.  0.
        -13    1    4    4    0    0 -0.74210432206E+01  0.38761024874E+02 -0.25289306575E+02  0.46872571498E+02  0.00000000000E+00 0.  1.
         14    1    4    4    0    0  0.26686132751E+02  0.61557555965E+01  0.37006563816E+02  0.46038340257E+02  0.00000000000E+00 0. -1.
        -13    1    3    3    0    0 -0.39288374341E+02  0.32550827313E+02 -0.14656220059E+03  0.15518895373E+03  0.00000000000E+00 0.  1.
         13    1    3    3    0    0  0.48778488517E+02  0.43063395493E+02 -0.40255381549E+02  0.76513349927E+02  0.00000000000E+00 0. -1.
          1    1    1    2  501    0 -0.28755203705E+02 -0.12053100328E+03 -0.40251500860E+03  0.42115664145E+03  0.00000000000E+00 0. -1.
<scales pt_clust_5="13000.00000" pt_clust_6="13000.00000" pt_clust_7="13000.00000" pt_clust_8="13000.00000" pt_clust_9="13000.00000"></scales>
<clustering>
<clus scale="   78.144">  5  6 -1 -1</clus>
<clus scale="  113.919">  7  8 -1 -1</clus>
<clus scale="  123.914">  5  9 -1 -1</clus>
<clus scale="  137.059">  2  7  1 -1</clus>
<clus scale="  333.980">  1  5  2 -1</clus>
</clustering>
</event>
<event>
 9    2  0.6085395E-005  0.1860776E+03  0.7546771E-02  0.1178410E+00
         21   -1    0    0  501  502  0.00000000000E+00  0.00000000000E+00  0.20015254737E+03  0.20015254737E+03  0.00000000000E+00 0.  1.
         -1   -1    0    0    0  501 -0.00000000000E+00 -0.00000000000E+00 -0.16046305282E+03  0.16046305282E+03  0.00000000000E+00 0.  1.
         23    2    1    2    0    0 -0.30819019164E+02 -0.81329684335E+02 -0.68701906123E+02  0.14527040944E+03  0.93910651466E+02 0.  0.
         24    2    1    2    0    0  0.17291866226E+01 -0.18690452014E+02  0.50811566683E+02  0.96325514575E+02  0.79652158580E+02 0.  0.
        -11    1    4    4    0    0  0.15111184633E+02 -0.39929040162E+02  0.56273217097E+02  0.70635338972E+02  0.00000000000E+00 0.  1.
         12    1    4    4    0    0 -0.13381998011E+02  0.21238588148E+02 -0.54616504131E+01  0.25690175603E+02  0.00000000000E+00 0. -1.
        -13    1    3    3    0    0 -0.53019111124E+02 -0.10883526707E+02 -0.30044119873E+02  0.61904171402E+02  0.00000000000E+00 0.  1.
         13    1    3    3    0    0  0.22200091960E+02 -0.70446157628E+02 -0.38657786250E+02  0.83366238042E+02  0.00000000000E+00 0. -1.
         -2    1    1    2    0  502  0.29089832542E+02  0.10002013635E+03  0.57579833994E+02  0.11901967617E+03  0.00000000000E+00 0.  1.
<scales pt_clust_5="13000.00000" pt_clust_6="13000.00000" pt_clust_7="13000.00000" pt_clust_8="13000.00000" pt_clust_9="13000.00000"></scales>
<clustering>
<clus scale="   79.652">  5  6 -1 -1</clus>
<clus scale="   93.911">  7  8 -1 -1</clus>
<clus scale="  104.165">  5  9 -1 -1</clus>
<clus scale="  127.998">  2  7  1 -1</clus>
<clus scale="  186.078">  1  5  2 -1</clus>
</clustering>
</event>
<event>
 9    2  0.6085395E-005  0.3060602E+03  0.7546771E-02  0.1095245E+00
         21   -1    0    0  501  502  0.00000000000E+00  0.00000000000E+00  0.20353781669E+03  0.20353781669E+03  0.00000000000E+00 0. -1.
          2   -1    0    0  502    0 -0.00000000000E+00 -0.00000000000E+00 -0.73307791627E+03  0.73307791627E+03  0.00000000000E+00 0. -1.
         23    2    1    2    0    0 -0.68005351238E+02 -0.18706797829E+03  0.98311938159E+02  0.23813809894E+03  0.86170532561E+02 0.  0.
         24    2    1    2    0    0 -0.65130003177E+02  0.77948018091E+02 -0.20920377067E+03  0.24582041290E+03  0.79647014352E+02 0.  0.
        -11    1    4    4    0    0 -0.37664458134E+02  0.24914611981E+00 -0.11317443825E+03  0.11927752074E+03  0.00000000000E+00 0.  1.
         12    1    4    4    0    0 -0.27465545042E+02  0.77698871972E+02 -0.96029332416E+02  0.12654289215E+03  0.00000000000E+00 0. -1.
        -11    1    3    3    0    0 -0.20225429725E+02 -0.10592179436E+03  0.87653950552E+01  0.10819115804E+03  0.00000000000E+00 0.  1.
         11    1    3    3    0    0 -0.47779921512E+02 -0.81146183935E+02  0.89546543104E+02  0.12994694090E+03  0.00000000000E+00 0. -1.
          1    1    1    2  501    0  0.13313535441E+03  0.10911996020E+03 -0.41864826707E+03  0.45265722112E+03  0.00000000000E+00 0. -1.
<scales pt_clust_5="13000.00000" pt_clust_6="13000.00000" pt_clust_7="13000.00000" pt_clust_8="13000.00000" pt_clust_9="13000.00000"></scales>
<clustering>
<clus scale="   79.647">  5  6 -1 -1</clus>
<clus scale="   86.171">  7  8 -1 -1</clus>
<clus scale="  172.140">  5  9 -1 -1</clus>
<clus scale="  216.898">  2  7  1 -1</clus>
<clus scale="  306.060">  1  5  2 -1</clus>
</clustering>
</event>
<event>
 9    2  0.6085395E-005  0.5067037E+03  0.7546771E-02  0.1051054E+00
         21   -1    0    0  501  502  0.00000000000E+00  0.00000000000E+00  0.24609448861E+03  0.24609448861E+03  0.00000000000E+00 0.  1.
         -1   -1    0    0    0  501 -0.00000000000E+00 -0.00000000000E+00 -0.50924097226E+03  0.50924097226E+03  0.00000000000E+00 0.  1.
         23    2    1    2    0    0 -0.13149579446E+03 -0.25688847967E+01 -0.18203699456E+03  0.24218111533E+03  0.90644812896E+02 0.  0.
         24    2    1    2    0    0  0.16141526038E+02 -0.25233862805E+02 -0.27344831145E+03  0.28715916284E+03  0.82396050100E+02 0.  0.
        -13    1    4    4    0    0 -0.27899983745E+02 -0.17956831433E+02 -0.55294375148E+02  0.64485074328E+02  0.00000000000E+00 0.  1.
         14    1    4    4    0    0  0.44041509783E+02 -0.72770313711E+01 -0.21815393630E+03  0.22267408851E+03  0.00000000000E+00 0. -1.
        -13    1    3    3    0    0 -0.88090865982E+02 -0.20782093203E+02 -0.53134980993E+02  0.10495342906E+03  0.00000000000E+00 0.  1.
         13    1    3    3    0    0 -0.43404928481E+02  0.18213208406E+02 -0.12890201357E+03  0.13722768627E+03  0.00000000000E+00 0. -1.
         -2    1    1    2    0  502  0.11535426842E+03  0.27802747601E+02  0.19233882235E+03  0.22599518270E+03  0.00000000000E+00 0.  1.
<scales pt_clust_5="13000.00000" pt_clust_6="13000.00000" pt_clust_7="13000.00000" pt_clust_8="13000.00000" pt_clust_9="13000.00000"></scales>
<clustering>
<clus scale="   82.396">  5  6 -1 -1</clus>
<clus scale="   90.645">  7  8 -1 -1</clus>
<clus scale="  118.658">  5  9 -1 -1</clus>
<clus scale="  159.732">  2  7  1 -1</clus>
<clus scale="  506.704">  1  5  2 -1</clus>
</clustering>
</event>
<event>
 9    2  0.6085395E-005  0.1657173E+03  0.7546771E-02  0.1210684E+00
         -1   -1    0    0    0  501 -0.00000000000E+00  0.00000000000E+00  0.56306312161E+03  0.56306312161E+03  0.00000000000E+00 0.  1.
         21   -1    0    0  501  502  0.00000000000E+00 -0.00000000000E+00 -0.36994157710E+02  0.36994157710E+02  0.00000000000E+00 0.  1.
         23    2    1    2    0    0 -0.21021639962E+02 -0.25239405226E+01  0.33705378409E+03  0.34868311343E+03  0.86754715155E+02 0.  0.
         24    2    1    2    0    0 -0.37057963564E+02  0.18980496978E+02  0.59230616621E+02  0.10823754780E+03  0.80458367362E+02 0.  0.
        -13    1    4    4    0    0  0.42177697472E+01  0.29307254650E+02 -0.61406722919E+01  0.30239256157E+02  0.00000000000E+00 0.  1.
         14    1    4    4    0    0 -0.41275733312E+02 -0.10326757672E+02  0.65371288913E+02  0.77998291639E+02  0.00000000000E+00 0. -1.
        -11    1    3    3    0    0 -0.11776059355E+02  0.40008622231E+02  0.21726700208E+03  0.22123362227E+03  0.00000000000E+00 0.  1.
         11    1    3    3    0    0 -0.92455806067E+01 -0.42532562754E+02  0.11978678200E+03  0.12744949116E+03  0.00000000000E+00 0. -1.
         -2    1    1    2    0  502  0.58079603526E+02 -0.16456556455E+02  0.12978456319E+03  0.14313661809E+03  0.00000000000E+00 0.  1.
<scales pt_clust_5="13000.00000" pt_clust_6="13000.00000" pt_clust_7="13000.00000" pt_clust_8="13000.00000" pt_clust_9="13000.00000"></scales>
<clustering>
<clus scale="   80.458">  5  6 -1 -1</clus>
<clus scale="   60.366">  5  9 -1 -1</clus>
<clus scale="   86.755">  7  8 -1 -1</clus>
<clus scale="   89.301">  1  7  2 -1</clus>
<clus scale="  165.717">  2  5  1 -1</clus>
</clustering>
</event>
<event>
 9    2  0.6085395E-005  0.2748917E+03  0.7546771E-02  0.1127791E+00
          2   -1    0    0  502    0 -0.00000000000E+00  0.00000000000E+00  0.58499278706E+03  0.58499278706E+03  0.00000000000E+00 0. -1.
         21   -1    0    0  501  502  0.00000000000E+00 -0.00000000000E+00 -0.11924387371E+03  0.11924387371E+03  0.00000000000E+00 0. -1.
         23    2    1    2    0    0  0.83965183846E+02 -0.44364096647E+02 -0.32740550971E+02  0.13497642834E+03  0.90157458698E+02 0.  0.
         24    2    1    2    0    0  0.51576574411E+02 -0.30318140588E+02  0.10504186530E+03  0.14647184806E+03  0.82709589109E+02 0.  0.
        -11    1    4    4    0    0  0.19807090991E+02  0.24537318062E+02  0.62868152846E+02  0.70333530221E+02  0.00000000000E+00 0.  1.
         12    1    4    4    0    0  0.31769483420E+02 -0.54855458650E+02  0.42173712455E+02  0.76138317835E+02  0.00000000000E+00 0. -1.
        -13    1    3    3    0    0  0.41571246653E+02 -0.36439701227E+02  0.26817575482E+02  0.61442678396E+02  0.00000000000E+00 0.  1.
         13    1    3    3    0    0  0.42393937194E+02 -0.79243954201E+01 -0.59558126453E+02  0.73533749940E+02  0.00000000000E+00 0. -1.
          1    1    1    2  501    0 -0.13554175826E+03  0.74682237235E+02  0.39344759902E+03  0.42278838437E+03  0.00000000000E+00 0. -1.
<scales pt_clust_5="13000.00000" pt_clust_6="13000.00000" pt_clust_7="13000.00000" pt_clust_8="13000.00000" pt_clust_9="13000.00000"></scales>
<clustering>
<clus scale="   82.710">  5  6 -1 -1</clus>
<clus scale="   90.157">  7  8 -1 -1</clus>
<clus scale="  130.945">  1  7  2 -1</clus>
<clus scale="   82.180">  5  9 -1 -1</clus>
<clus scale="  274.892">  2  5  1 -1</clus>
</clustering>
</event>
<event>
 9    2  0.6085395E-005  0.3693512E+03  0.7546771E-02  0.1096778E+00
         21   -1    0    0  501  502  0.00000000000E+00  0.00000000000E+00  0.26669601313E+03  0.26669601313E+03  0.00000000000E+00 0.  1.
         -3   -1    0    0    0  501 -0.00000000000E+00 -0.00000000000E+00 -0.24527384840E+03  0.24527384840E+03  0.00000000000E+00 0.  1.
         23    2    1    2    0    0  0.66819393378E+02  0.39590459245E+02 -0.61293115674E+02  0.13347005943E+03  0.89583340759E+02 0.  0.
         24    2    1    2    0    0  0.55753532894E+02  0.11306327616E+03 -0.30775318431E+02  0.15220927820E+03  0.79553650447E+02 0.  0.
        -13    1    4    4    0    0  0.54715750664E+02  0.27691822797E+02 -0.26266151443E+02  0.66712526052E+02  0.00000000000E+00 0.  1.
         14    1    4    4    0    0  0.10377822299E+01  0.85371453358E+02 -0.45091669879E+01  0.85496752145E+02  0.00000000000E+00 0. -1.
        -13    1    3    3    0    0 -0.11704032980E+02  0.36682868269E+02 -0.10518681310E+02  0.39915659445E+02  0.00000000000E+00 0.  1.
         13    1    3    3    0    0  0.78523426357E+02  0.29075909755E+01 -0.50774434364E+02  0.93554399988E+02  0.00000000000E+00 0. -1.
         -4    1    1    2    0  502 -0.12257292627E+03 -0.15265373540E+03  0.11349059884E+03  0.22629052391E+03  0.00000000000E+00 0.  1.
<scales pt_clust_5="13000.00000" pt_clust_6="13000.00000" pt_clust_7="13000.00000" pt_clust_8="13000.00000" pt_clust_9="13000.00000"></scales>
<clustering>
<clus scale="   79.554">  5  6 -1 -1</clus>
<clus scale="   89.583">  7  8 -1 -1</clus>
<clus scale="  118.564">  2  7  1 -1</clus>
<clus scale="  168.369">  5  9 -1 -1</clus>
<clus scale="  369.351">  1  5  2 -1</clus>
</clustering>
</event>
<event>
 9    2  0.6085395E-005  0.1448859E+03  0.7546771E-02  0.1219052E+00
         -1   -1    0    0    0  501 -0.00000000000E+00  0.00000000000E+00  0.68940023990E+02  0.68940023990E+02  0.00000000000E+00 0.  1.
         21   -1    0    0  501  502  0.00000000000E+00 -0.00000000000E+00 -0.35990653074E+03  0.35990653074E+03  0.00000000000E+00 0. -1.
         23    2    1    2    0    0  0.44818113410E+02 -0.51030755647E+02 -0.95556274657E+01  0.11232795910E+03  0.88957625124E+02 0.  0.
         24    2    1    2    0    0 -0.62288503507E+02  0.13783958246E+02 -0.19819715954E+03  0.22369046627E+03  0.81764634628E+02 0.  0.
        -13    1    4    4    0    0 -0.29269134111E+02  0.47837523769E+02 -0.10054738675E+03  0.11512987394E+03  0.00000000000E+00 0.  1.
         14    1    4    4    0    0 -0.33019369395E+02 -0.34053565523E+02 -0.97649772796E+02  0.10856059233E+03  0.00000000000E+00 0. -1.
        -13    1    3    3    0    0  0.21925723515E+02 -0.57972600716E+02  0.27831871492E+02  0.67942423096E+02  0.00000000000E+00 0.  1.
         13    1    3    3    0    0  0.22892389895E+02  0.69418450690E+01 -0.37387498957E+02  0.44385536004E+02  0.00000000000E+00 0. -1.
         -2    1    1    2    0  502  0.17470390097E+02  0.37246797401E+02 -0.83213719740E+02  0.92828129356E+02  0.00000000000E+00 0.  1.
<scales pt_clust_5="13000.00000" pt_clust_6="13000.00000" pt_clust_7="13000.00000" pt_clust_8="13000.00000" pt_clust_9="13000.00000"></scales>
<clustering>
<clus scale="   81.765">  5  6 -1 -1</clus>
<clus scale="   41.140">  5  9 -1 -1</clus>
<clus scale="   88.958">  7  8 -1 -1</clus>
<clus scale="  111.921">  1  7  2 -1</clus>
<clus scale="  144.886">  2  5  1 -1</clus>
</clustering>
</event>
<event>
 9    2  0.6085395E-005  0.1874654E+03  0.7546771E-02  0.1169165E+00
         21   -1    0    0  501  502  0.00000000000E+00  0.00000000000E+00  0.64089471018E+02  0.64089471018E+02  0.00000000000E+00 0.  1.
          2   -1    0    0  502    0 -0.00000000000E+00 -0.00000000000E+00 -0.53134989604E+03  0.53134989604E+03  0.00000000000E+00 0. -1.
         23    2    1    2    0    0  0.11683148649E+03  0.28938503226E+02 -0.10260222025E+03  0.18541632726E+03  0.96772752425E+02 0.  0.
         24    2    1    2    0    0 -0.11482021244E+03 -0.52085146611E+02 -0.35400619494E+03  0.38446374331E+03  0.81212315459E+02 0.  0.
        -13    1    4    4    0    0 -0.63346011054E+02 -0.70050145495E+02 -0.20234076666E+03  0.22329694546E+03  0.00000000000E+00 0.  1.
         14    1    4    4    0    0 -0.51474201383E+02  0.17964998884E+02 -0.15166542829E+03  0.16116679785E+03  0.00000000000E+00 0. -1.
        -13    1    3    3    0    0  0.50863903580E+02 -0.33007114790E+02 -0.60334704088E+02  0.85538779694E+02  0.00000000000E+00 0. -1.
         13    1    3    3    0    0  0.65967582907E+02  0.61945618015E+02 -0.42267516158E+02  0.99877547567E+02  0.00000000000E+00 0.  1.
          1    1    1    2  501    0 -0.20112740503E+01  0.23146643385E+02 -0.10652009833E+02  0.25559296485E+02  0.00000000000E+00 0. -1.
<scales pt_clust_5="13000.00000" pt_clust_6="13000.00000" pt_clust_7="13000.00000" pt_clust_8="13000.00000" pt_clust_9="13000.00000"></scales>
<clustering>
<clus scale="   81.212">  5  6 -1 -1</clus>
<clus scale="   23.234">  5  9 -1 -1</clus>
<clus scale="   96.773">  7  8 -1 -1</clus>
<clus scale="  154.441">  2  7  1 -1</clus>
<clus scale="  187.465">  1  5  2 -1</clus>
</clustering>
</event>
<event>
 9    2  0.6085395E-005  0.4672468E+03  0.7546771E-02  0.1074642E+00
         -1   -1    0    0    0  501 -0.00000000000E+00  0.00000000000E+00  0.20028208734E+03  0.20028208734E+03  0.00000000000E+00 0.  1.
         21   -1    0    0  501  502  0.00000000000E+00 -0.00000000000E+00 -0.69929206355E+03  0.69929206355E+03  0.00000000000E+00 0.  1.
         23    2    1    2    0    0 -0.58738299837E+01  0.43650150638E+02  0.96194076491E+02  0.14287909642E+03  0.96027591416E+02 0.  0.
         24    2    1    2    0    0  0.22437984842E+03  0.16231280066E+02 -0.33973144505E+03  0.41523214419E+03  0.79940652915E+02 0.  0.
        -13    1    4    4    0    0  0.13780764476E+03 -0.28982379510E+02 -0.21000997597E+03  0.25285394061E+03  0.00000000000E+00 0.  1.
         14    1    4    4    0    0  0.86572203653E+02  0.45213659576E+02 -0.12972146908E+03  0.16237820358E+03  0.00000000000E+00 0. -1.
        -13    1    3    3    0    0 -0.11709459668E+02  0.68713623507E+02  0.94038402761E+02  0.11705509256E+03  0.00000000000E+00 0.  1.
         13    1    3    3    0    0  0.58356296840E+01 -0.25063472870E+02  0.21556737304E+01  0.25824003859E+02  0.00000000000E+00 0. -1.
         -2    1    1    2    0  502 -0.21850601843E+03 -0.59881430704E+02 -0.25547260765E+03  0.34146291027E+03  0.00000000000E+00 0.  1.
<scales pt_clust_5="13000.00000" pt_clust_6="13000.00000" pt_clust_7="13000.00000" pt_clust_8="13000.00000" pt_clust_9="13000.00000"></scales>
<clustering>
<clus scale="   79.941">  5  6 -1 -1</clus>
<clus scale="   96.028">  7  8 -1 -1</clus>
<clus scale="  105.646">  1  7  2 -1</clus>
<clus scale="  224.642">  5  9 -1 -1</clus>
<clus scale="  467.247">  2  5  1 -1</clus>
</clustering>
</event>
<event>
 9    2  0.6085395E-005  0.2307980E+03  0.7546771E-02  0.1168092E+00
         -1   -1    0    0    0  501 -0.00000000000E+00  0.00000000000E+00  0.55922209779E+03  0.55922209779E+03  0.00000000000E+00 0.  1.
         21   -1    0    0  501  502  0.00000000000E+00 -0.00000000000E+00 -0.10350231222E+03  0.10350231222E+03  0.00000000000E+00 0.  1.
         23    2    1    2    0    0 -0.32205337608E+02  0.19150277485E+02  0.42084309368E+03  0.42930613538E+03  0.76098169966E+02 0.  0.
         24    2    1    2    0    0 -0.27358645279E+02  0.75461954539E+02  0.42358523409E+02  0.12136774894E+03  0.80578433367E+02 0.  0.
        -13    1    4    4    0    0 -0.17958901541E+02  0.90978538055E+02  0.44929162206E+02  0.10304487444E+03  0.00000000000E+00 0.  1.
         14    1    4    4    0    0 -0.93997437375E+01 -0.15516583516E+02 -0.25706387971E+01  0.18322874506E+02  0.00000000000E+00 0. -1.
        -13    1    3    3    0    0 -0.42669698165E+02 -0.17931400603E+02  0.22667948279E+03  0.23135649156E+03  0.00000000000E+00 0.  1.
         13    1    3    3    0    0  0.10464360557E+02  0.37081678088E+02  0.19416361089E+03  0.19794964382E+03  0.00000000000E+00 0. -1.
         -2    1    1    2    0  502  0.59563982887E+02 -0.94612232024E+02 -0.74818315213E+01  0.11205052570E+03  0.00000000000E+00 0.  1.
<scales pt_clust_5="13000.00000" pt_clust_6="13000.00000" pt_clust_7="13000.00000" pt_clust_8="13000.00000" pt_clust_9="13000.00000"></scales>
<clustering>
<clus scale="   76.098">  7  8 -1 -1</clus>
<clus scale="   80.578">  5  6 -1 -1</clus>
<clus scale="   84.822">  1  7  2 -1</clus>
<clus scale="   99.020">  5  9 -1 -1</clus>
<clus scale="  230.798">  2  5  1 -1</clus>
</clustering>
</event>
<event>
 9    2  0.6085395E-005  0.2457864E+03  0.7546771E-02  0.1154229E+00
         -1   -1    0    0    0  501 -0.00000000000E+00  0.00000000000E+00  0.38056943017E+03  0.38056943017E+03  0.00000000000E+00 0.  1.
         21   -1    0    0  501  502  0.00000000000E+00 -0.00000000000E+00 -0.78551415105E+02  0.78551415105E+02  0.00000000000E+00 0.  1.
         23    2    1    2    0    0 -0.15856269971E+02 -0.37137852117E+01  0.58924553928E+02  0.11342536533E+03  0.95540551318E+02 0.  0.
         24    2    1    2    0    0  0.29814558768E+02 -0.82131557927E+02  0.22862472779E+03  0.25752745281E+03  0.80103820570E+02 0.  0.
        -13    1    4    4    0    0 -0.51498721786E+01 -0.36391319720E+02  0.17510462346E+03  0.17892031324E+03  0.00000000000E+00 0.  1.
         14    1    4    4    0    0  0.34964430946E+02 -0.45740238207E+02  0.53520104329E+02  0.78607139561E+02  0.00000000000E+00 0. -1.
        -11    1    3    3    0    0  0.96399748783E+01 -0.42058894482E+02  0.64789681887E+01  0.43633206958E+02  0.00000000000E+00 0.  1.
         11    1    3    3    0    0 -0.25496244849E+02  0.38345109270E+02  0.52445585739E+02  0.69792158369E+02  0.00000000000E+00 0. -1.
         -2    1    1    2    0  502 -0.13958288797E+02  0.85845343139E+02  0.14468733343E+02  0.88168027137E+02  0.00000000000E+00 0.  1.
<scales pt_clust_5="13000.00000" pt_clust_6="13000.00000" pt_clust_7="13000.00000" pt_clust_8="13000.00000" pt_clust_9="13000.00000"></scales>
<clustering>
<clus scale="   80.104">  5  6 -1 -1</clus>
<clus scale="   86.973">  5  9 -1 -1</clus>
<clus scale="   95.541">  7  8 -1 -1</clus>
<clus scale="   96.919">  1  7  2 -1</clus>
<clus scale="  245.786">  2  5  1 -1</clus>
</clustering>
</event>
<event>
 9    2  0.6085395E-005  0.1714167E+03  0.7546771E-02  0.1193754E+00
         -3   -1    0    0    0  501 -0.00000000000E+00  0.00000000000E+00  0.11876718378E+03  0.11876718378E+03  0.00000000000E+00 0.  1.
         21   -1    0    0  501  502  0.00000000000E+00 -0.00000000000E+00 -0.19917074611E+03  0.19917074611E+03  0.00000000000E+00 0.  1.
         23    2    1    2    0    0 -0.71308867558E+02 -0.54584455822E+01 -0.88681696614E+02  0.14632145104E+03  0.91819249065E+02 0.  0.
         24    2    1    2    0    0  0.46967889666E+02  0.40745541181E+02 -0.38665040994E+02  0.10804506999E+03  0.79451683225E+02 0.  0.
        -11    1    4    4    0    0  0.32198541087E+02  0.40093292394E+02 -0.61920501164E+02  0.80488301060E+02  0.00000000000E+00 0.  1.
         12    1    4    4    0    0  0.14769348579E+02  0.65224878648E+00  0.23255460169E+02  0.27556768926E+02  0.00000000000E+00 0. -1.
        -11    1    3    3    0    0  0.42428641708E+01  0.31135774670E+02 -0.33104098813E+02  0.45643397320E+02  0.00000000000E+00 0. -1.
         11    1    3    3    0    0 -0.75551731729E+02 -0.36594220253E+02 -0.55577597801E+02  0.10067805372E+03  0.00000000000E+00 0.  1.
         -4    1    1    2    0  502  0.24340977891E+02 -0.35287095599E+02  0.46943175272E+02  0.63571408865E+02  0.00000000000E+00 0.  1.
<scales pt_clust_5="13000.00000" pt_clust_6="13000.00000" pt_clust_7="13000.00000" pt_clust_8="13000.00000" pt_clust_9="13000.00000"></scales>
<clustering>
<clus scale="   79.452">  5  6 -1 -1</clus>
<clus scale="   42.868">  5  9 -1 -1</clus>
<clus scale="   91.819">  7  8 -1 -1</clus>
<clus scale="  116.385">  1  7  2 -1</clus>
<clus scale="  171.417">  2  5  1 -1</clus>
</clustering>
</event>
<event>
 9    2  0.6085395E-005  0.5704491E+03  0.7546771E-02  0.1043331E+00
         21   -1    0    0  501  502  0.00000000000E+00  0.00000000000E+00  0.24886419493E+03  0.24886419493E+03  0.00000000000E+00 0.  1.
         -1   -1    0    0    0  501 -0.00000000000E+00 -0.00000000000E+00 -0.51308569916E+03  0.51308569916E+03  0.00000000000E+00 0.  1.
         23    2    1    2    0    0  0.93528984535E+02 -0.41297481121E+02 -0.18877754730E+02  0.14097827602E+03  0.95212140984E+02 0.  0.
         24    2    1    2    0    0  0.13972541964E+03  0.16445327327E+03  0.38506955938E+02  0.23348459998E+03  0.80400253676E+02 0.  0.
        -11    1    4    4    0    0  0.54158699128E+02  0.53818433542E+02 -0.24357597178E+02  0.80142878788E+02  0.00000000000E+00 0.  1.
         12    1    4    4    0    0  0.85566720511E+02  0.11063483972E+03  0.62864553116E+02  0.15334172119E+03  0.00000000000E+00 0. -1.
        -13    1    3    3    0    0  0.23959168417E+02 -0.25701504536E+02 -0.51683513418E+02  0.62496357061E+02  0.00000000000E+00 0. -1.
         13    1    3    3    0    0  0.69569816118E+02 -0.15595976585E+02  0.32805758688E+02  0.78481918959E+02  0.00000000000E+00 0.  1.
         -2    1    1    2    0  502 -0.23325440417E+03 -0.12315579214E+03 -0.28385070544E+03  0.38748701809E+03  0.00000000000E+00 0.  1.
<scales pt_clust_5="13000.00000" pt_clust_6="13000.00000" pt_clust_7="13000.00000" pt_clust_8="13000.00000" pt_clust_9="13000.00000"></scales>
<clustering>
<clus scale="   80.400">  5  6 -1 -1</clus>
<clus scale="   95.212">  7  8 -1 -1</clus>
<clus scale="  139.709">  2  7  1 -1</clus>
<clus scale="  223.435">  5  9 -1 -1</clus>
<clus scale="  570.449">  1  5  2 -1</clus>
</clustering>
</event>
<event>
 9    2  0.6085395E-005  0.2664505E+03  0.7546771E-02  0.1126348E+00
         -1   -1    0    0    0  501 -0.00000000000E+00  0.00000000000E+00  0.84374382578E+02  0.84374382578E+02  0.00000000000E+00 0.  1.
         21   -1    0    0  501  502  0.00000000000E+00 -0.00000000000E+00 -0.61153047182E+03  0.61153047182E+03  0.00000000000E+00 0.  1.
         23    2    1    2    0    0  0.10115008086E+03  0.62695220559E+02 -0.33726527654E+03  0.36871315541E+03  0.89663229208E+02 0.  0.
         24    2    1    2    0    0 -0.12792944637E+03 -0.21973403890E+02 -0.21730621938E+03  0.27127206653E+03  0.97559045559E+02 0.  0.
        -13    1    4    4    0    0 -0.61523528581E+02 -0.41281646764E+02 -0.17540952590E+03  0.19041486472E+03  0.00000000000E+00 0.  1.
         14    1    4    4    0    0 -0.66405917788E+02  0.19308242874E+02 -0.41896693481E+02  0.80857201812E+02  0.00000000000E+00 0. -1.
        -11    1    3    3    0    0  0.18811758399E+02  0.63751463199E+02 -0.15988399747E+03  0.17315029298E+03  0.00000000000E+00 0. -1.
         11    1    3    3    0    0  0.82338322461E+02 -0.10562426395E+01 -0.17738127907E+03  0.19556286243E+03  0.00000000000E+00 0.  1.
         -2    1    1    2    0  502  0.26779365509E+02 -0.40721816670E+02  0.27415406688E+02  0.55919632454E+02  0.00000000000E+00 0.  1.
<scales pt_clust_5="13000.00000" pt_clust_6="13000.00000" pt_clust_7="13000.00000" pt_clust_8="13000.00000" pt_clust_9="13000.00000"></scales>
<clustering>
<clus scale="   89.663">  7  8 -1 -1</clus>
<clus scale="   97.559">  5  6 -1 -1</clus>
<clus scale="   48.738">  5  9 -1 -1</clus>
<clus scale="  149.002">  1  7  2 -1</clus>
<clus scale="  266.451">  2  5  1 -1</clus>
</clustering>
</event>
<event>
 9    2  0.6085395E-005  0.2925173E+03  0.7546771E-02  0.1100240E+00
          2   -1    0    0  502    0 -0.00000000000E+00  0.00000000000E+00  0.48984731407E+03  0.48984731407E+03  0.00000000000E+00 0. -1.
         21   -1    0    0  501  502  0.00000000000E+00 -0.00000000000E+00 -0.20520999172E+03  0.20520999172E+03  0.00000000000E+00 0. -1.
         23    2    1    2    0    0  0.11757601122E+03  0.15961450747E+03  0.33348976771E+03  0.39848869038E+03  0.90977479541E+02 0.  0.
         24    2    1    2    0    0  0.19337663859E+02 -0.11872754685E+03  0.45441699407E+01  0.14402912381E+03  0.79079475212E+02 0.  0.
        -11    1    4    4    0    0 -0.41517988398E+01 -0.23969914134E+02  0.34226348569E+02  0.41990917513E+02  0.00000000000E+00 0.  1.
         12    1    4    4    0    0  0.23489462699E+02 -0.94757632714E+02 -0.29682178628E+02  0.10203820629E+03  0.00000000000E+00 0. -1.
        -11    1    3    3    0    0  0.60762561916E+02  0.10302191917E+03  0.11571846713E+03  0.16642225931E+03  0.00000000000E+00 0. -1.
         11    1    3    3    0    0  0.56813449304E+02  0.56592588306E+02  0.21777130058E+03  0.23206643106E+03  0.00000000000E+00 0.  1.
          1    1    1    2  501    0 -0.13691367508E+03 -0.40886960625E+02 -0.53396615295E+02  0.15253949160E+03  0.00000000000E+00 0. -1.
<scales pt_clust_5="13000.00000" pt_clust_6="13000.00000" pt_clust_7="13000.00000" pt_clust_8="13000.00000" pt_clust_9="13000.00000"></scales>
<clustering>
<clus scale="   79.079">  5  6 -1 -1</clus>
<clus scale="   90.977">  7  8 -1 -1</clus>
<clus scale="  142.888">  5  9 -1 -1</clus>
<clus scale="  218.123">  1  7  2 -1</clus>
<clus scale="  292.517">  2  5  1 -1</clus>
</clustering>
</event>
<event>
 9    2  0.6085395E-005  0.3561346E+03  0.7546771E-02  0.1085484E+00
         21   -1    0    0  501  502  0.00000000000E+00  0.00000000000E+00  0.30667164322E+02  0.30667164322E+02  0.00000000000E+00 0. -1.
          2   -1    0    0  502    0 -0.00000000000E+00 -0.00000000000E+00 -0.24212043140E+04  0.24212043140E+04  0.00000000000E+00 0. -1.
         23    2    1    2    0    0  0.14653414875E+03  0.37330930650E+02 -0.58431525968E+03  0.61087463787E+03  0.94221257531E+02 0.  0.
         24    2    1    2    0    0  0.23530177267E+02  0.64060563915E+02 -0.24139679473E+03  0.26369544599E+03  0.81273923502E+02 0.  0.
        -11    1    4    4    0    0  0.43922721838E+02  0.71960932198E+01 -0.83206475415E+02  0.94362634566E+02  0.00000000000E+00 0.  1.
         12    1    4    4    0    0 -0.20392544571E+02  0.56864470695E+02 -0.15819031931E+03  0.16933281143E+03  0.00000000000E+00 0. -1.
        -11    1    3    3    0    0  0.62101823368E+02 -0.20683075393E+02 -0.13503134150E+03  0.15005961902E+03  0.00000000000E+00 0.  1.
         11    1    3    3    0    0  0.84432325384E+02  0.58014006043E+02 -0.44928391818E+03  0.46081501885E+03  0.00000000000E+00 0. -1.
          1    1    1    2  501    0 -0.17006432602E+03 -0.10139149457E+03 -0.15648250953E+04  0.15773013945E+04  0.00000000000E+00 0. -1.
<scales pt_clust_5="13000.00000" pt_clust_6="13000.00000" pt_clust_7="13000.00000" pt_clust_8="13000.00000" pt_clust_9="13000.00000"></scales>
<clustering>
<clus scale="   81.274">  5  6 -1 -1</clus>
<clus scale="   94.221">  7  8 -1 -1</clus>
<clus scale="  178.167">  2  7  1 -1</clus>
<clus scale="   81.935">  5  9 -1 -1</clus>
<clus scale="  356.135">  1  5  2 -1</clus>
</clustering>
</event>
<event>
 9    2  0.6085395E-005  0.2912290E+03  0.7546771E-02  0.1121751E+00
          2   -1    0    0  502    0 -0.00000000000E+00  0.00000000000E+00  0.93828390427E+03  0.93828390427E+03  0.00000000000E+00 0. -1.
         21   -1    0    0  501  502  0.00000000000E+00 -0.00000000000E+00 -0.48846894848E+02  0.48846894848E+02  0.00000000000E+00 0. -1.
         23    2    1    2    0    0  0.81635956156E+02  0.31082356179E+02  0.18545729830E+03  0.22528977104E+03  0.93437301105E+02 0.  0.
         24    2    1    2    0    0 -0.58091442989E+02  0.60161489210E+02  0.10622858461E+03  0.15670782566E+03  0.79238941838E+02 0.  0.
        -13    1    4    4    0    0  0.13179714890E+02  0.36380188523E+02  0.47984850008E+02  0.61642264980E+02  0.00000000000E+00 0.  1.
         14    1    4    4    0    0 -0.71271157879E+02  0.23781300686E+02  0.58243734601E+02  0.95065560683E+02  0.00000000000E+00 0. -1.
        -13    1    3    3    0    0 -0.19828083975E+02 -0.45431411722E+01  0.31372150677E+02  0.37389903503E+02  0.00000000000E+00 0.  1.
         13    1    3    3    0    0  0.10146404013E+03  0.35625497351E+02  0.15408514762E+03  0.18789986753E+03  0.00000000000E+00 0. -1.
          1    1    1    2  501    0 -0.23544513167E+02 -0.91243845388E+02  0.59775112651E+03  0.60513320242E+03  0.00000000000E+00 0. -1.
<scales pt_clust_5="13000.00000" pt_clust_6="13000.00000" pt_clust_7="13000.00000" pt_clust_8="13000.00000" pt_clust_9="13000.00000"></scales>
<clustering>
<clus scale="   79.239">  5  6 -1 -1</clus>
<clus scale="   93.437">  7  8 -1 -1</clus>
<clus scale="   94.233">  5  9 -1 -1</clus>
<clus scale="  127.910">  1  7  2 -1</clus>
<clus scale="  291.229">  2  5  1 -1</clus>
</clustering>
</event>
<event>
 9    2  0.6085395E-005  0.4009706E+03  0.7546771E-02  0.1065163E+00
         21   -1    0    0  501  502  0.00000000000E+00  0.00000000000E+00  0.89024185601E+02  0.89024185601E+02  0.00000000000E+00 0.  1.
          2   -1    0    0  502    0 -0.00000000000E+00 -0.00000000000E+00 -0.11925684397E+04  0.11925684397E+04  0.00000000000E+00 0. -1.
         23    2    1    2    0    0  0.72835730581E+02  0.18179240864E+03 -0.20851564423E+03  0.30085124112E+03  0.93162073328E+02 0.  0.
         24    2    1    2    0    0  0.34600392534E+02  0.63971301601E+02 -0.43453551901E+03  0.44782843767E+03  0.80247602585E+02 0.  0.
        -13    1    4    4    0    0 -0.49168867943E+01  0.59131549035E+02 -0.34174071763E+03  0.34685362035E+03  0.00000000000E+00 0.  1.
         14    1    4    4    0    0  0.39517279329E+02  0.48397525654E+01 -0.92794801377E+02  0.10097481732E+03  0.00000000000E+00 0. -1.
        -11    1    3    3    0    0  0.96339573242E+01  0.53258912175E+02 -0.84191301610E+01  0.54774141823E+02  0.00000000000E+00 0.  1.
         11    1    3    3    0    0  0.63201773257E+02  0.12853349647E+03 -0.20009651407E+03  0.24607709930E+03  0.00000000000E+00 0. -1.
          1    1    1    2  501    0 -0.10743612312E+03 -0.24576371024E+03 -0.46049309089E+03  0.53291294653E+03  0.00000000000E+00 0. -1.
<scales pt_clust_5="13000.00000" pt_clust_6="13000.00000" pt_clust_7="13000.00000" pt_clust_8="13000.00000" pt_clust_9="13000.00000"></scales>
<clustering>
<clus scale="   80.248">  5  6 -1 -1</clus>
<clus scale="   93.162">  7  8 -1 -1</clus>
<clus scale="  216.870">  2  7  1 -1</clus>
<clus scale="  164.585">  5  9 -1 -1</clus>
<clus scale="  400.971">  1  5  2 -1</clus>
</clustering>
</event>
<event>
 9    2  0.6085395E-005  0.2715478E+03  0.7546771E-02  0.1118346E+00
          2   -1    0    0  502    0 -0.00000000000E+00  0.00000000000E+00  0.64578541603E+03  0.64578541603E+03  0.00000000000E+00 0. -1.
         21   -1    0    0  501  502  0.00000000000E+00 -0.00000000000E+00 -0.76318760441E+02  0.76318760441E+02  0.00000000000E+00 0. -1.
         23    2    1    2    0    0 -0.11882139780E+03 -0.85938142534E+02  0.20186745512E+03  0.26508404718E+03  0.89527614256E+02 0.  0.
         24    2    1    2    0    0  0.15430226707E+03 -0.29529407671E+01  0.21006425513E+03  0.27268951388E+03  0.80091636370E+02 0.  0.
        -11    1    4    4    0    0  0.38997836872E+02 -0.36129198739E+02  0.53305629667E+02  0.75283732881E+02  0.00000000000E+00 0.  1.
         12    1    4    4    0    0  0.11530443020E+03  0.33176257972E+02  0.15675862546E+03  0.19740578100E+03  0.00000000000E+00 0. -1.
        -13    1    3    3    0    0 -0.27792236269E+02 -0.14471065224E+02  0.11818278926E+03  0.12226606971E+03  0.00000000000E+00 0. -1.
         13    1    3    3    0    0 -0.91029161528E+02 -0.71467077310E+02  0.83684665868E+02  0.14281797747E+03  0.00000000000E+00 0.  1.
          1    1    1    2  501    0 -0.35480869274E+02  0.88891083301E+02  0.15753494534E+03  0.18433061541E+03  0.00000000000E+00 0. -1.
<scales pt_clust_5="13000.00000" pt_clust_6="13000.00000" pt_clust_7="13000.00000" pt_clust_8="13000.00000" pt_clust_9="13000.00000"></scales>
<clustering>
<clus scale="   80.092">  5  6 -1 -1</clus>
<clus scale="   89.528">  7  8 -1 -1</clus>
<clus scale="   95.711">  5  9 -1 -1</clus>
<clus scale="  171.811">  1  7  2 -1</clus>
<clus scale="  271.548">  2  5  1 -1</clus>
</clustering>
</event>
<event>
 9    2  0.6085395E-005  0.1095977E+03  0.7546771E-02  0.1263778E+00
         21   -1    0    0  501  502  0.00000000000E+00  0.00000000000E+00  0.97855104389E+02  0.97855104389E+02  0.00000000000E+00 0. -1.
          2   -1    0    0  502    0 -0.00000000000E+00 -0.00000000000E+00 -0.22098804409E+03  0.22098804409E+03  0.00000000000E+00 0. -1.
         23    2    1    2    0    0 -0.32442236290E+02  0.25655877276E+02 -0.17010012030E+03  0.19960566869E+03  0.95904375891E+02 0.  0.
         24    2    1    2    0    0  0.14229629997E+02 -0.53874267340E+01  0.40476787709E+02  0.91226155022E+02  0.80326423300E+02 0.  0.
        -11    1    4    4    0    0  0.33747978058E+02  0.19083436934E+02 -0.15768667129E+01  0.38801934189E+02  0.00000000000E+00 0.  1.
         12    1    4    4    0    0 -0.19518348060E+02 -0.24470863668E+02  0.42053654422E+02  0.52424220833E+02  0.00000000000E+00 0. -1.
        -11    1    3    3    0    0 -0.39721107957E+02 -0.40116067139E+01 -0.16356541004E+03  0.16836716653E+03  0.00000000000E+00 0. -1.
         11    1    3    3    0    0  0.72788716669E+01  0.29667483990E+02 -0.65347102595E+01  0.31238502160E+02  0.00000000000E+00 0.  1.
          1    1    1    2  501    0  0.18212606292E+02 -0.20268450542E+02  0.64903928842E+01  0.28011324765E+02  0.00000000000E+00 0. -1.
<scales pt_clust_5="13000.00000" pt_clust_6="13000.00000" pt_clust_7="13000.00000" pt_clust_8="13000.00000" pt_clust_9="13000.00000"></scales>
<clustering>
<clus scale="   80.326">  5  6 -1 -1</clus>
<clus scale="   27.249">  5  9 -1 -1</clus>
<clus scale="   95.904">  7  8 -1 -1</clus>
<clus scale="  104.443">  2  7  1 -1</clus>
<clus scale="  109.598">  1  5  2 -1</clus>
</clustering>
</event>
<event>
 9    2  0.6085395E-005  0.2816182E+03  0.7546771E-02  0.1137775E+00
          2   -1    0    0  502    0 -0.00000000000E+00  0.00000000000E+00  0.47735375413E+03  0.47735375413E+03  0.00000000000E+00 0. -1.
         21   -1    0    0  501  502  0.00000000000E+00 -0.00000000000E+00 -0.91315690181E+02  0.91315690181E+02  0.00000000000E+00 0. -1.
         23    2    1    2    0    0 -0.11768782641E+02 -0.27147778016E+02  0.22467570553E+03  0.24409799940E+03  0.90714687687E+02 0.  0.
         24    2    1    2    0    0 -0.11878834294E+03  0.45465936156E+02  0.91758372935E+02  0.17548947835E+03  0.78734593670E+02 0.  0.
        -13    1    4    4    0    0 -0.48834072631E+02  0.33461772252E+02  0.85830406952E+02  0.10426560128E+03  0.00000000000E+00 0.  1.
         14    1    4    4    0    0 -0.69954270305E+02  0.12004163903E+02  0.59279659832E+01  0.71223877076E+02  0.00000000000E+00 0. -1.
        -11    1    3    3    0    0 -0.38867092118E+02  0.17865506788E+02  0.10644665803E+03  0.11472017341E+03  0.00000000000E+00 0. -1.
         11    1    3    3    0    0  0.27098309478E+02 -0.45013284803E+02  0.11822904750E+03  0.12937782599E+03  0.00000000000E+00 0.  1.
          1    1    1    2  501    0  0.13055712558E+03 -0.18318158140E+02  0.69603985486E+02  0.14908196656E+03  0.00000000000E+00 0. -1.
<scales pt_clust_5="13000.00000" pt_clust_6="13000.00000" pt_clust_7="13000.00000" pt_clust_8="13000.00000" pt_clust_9="13000.00000"></scales>
<clustering>
<clus scale="   78.735">  5  6 -1 -1</clus>
<clus scale="   90.715">  7  8 -1 -1</clus>
<clus scale="   95.418">  1  7  2 -1</clus>
<clus scale="  128.929">  5  9 -1 -1</clus>
<clus scale="  281.618">  2  5  1 -1</clus>
</clustering>
</event>
<event>
 9    2  0.6085395E-005  0.1798368E+03  0.7546771E-02  0.1195428E+00
          2   -1    0    0  502    0 -0.00000000000E+00  0.00000000000E+00  0.12962262921E+04  0.12962262921E+04  0.00000000000E+00 0. -1.
         21   -1    0    0  501  502  0.00000000000E+00 -0.00000000000E+00 -0.19084904903E+02  0.19084904903E+02  0.00000000000E+00 0. -1.
         23    2    1    2    0    0  0.24535986049E+02 -0.28402375532E+02  0.19005076159E+03  0.21344582944E+03  0.89616519558E+02 0.  0.
         24    2    1    2    0    0 -0.60094467758E+02 -0.35683719280E+02  0.66513874300E+03  0.67359579778E+03  0.80231405733E+02 0.  0.
        -11    1    4    4    0    0 -0.10693339421E+02  0.18676909459E+02  0.55152800995E+02  0.59203090397E+02  0.00000000000E+00 0.  1.
         12    1    4    4    0    0 -0.49401128337E+02 -0.54360628740E+02  0.60998594200E+03  0.61439270738E+03  0.00000000000E+00 0. -1.
        -11    1    3    3    0    0  0.38110573070E+02 -0.44966448547E+02  0.70054187256E+02  0.91553189059E+02  0.00000000000E+00 0.  1.
         11    1    3    3    0    0 -0.13574587021E+02  0.16564073015E+02  0.11999657434E+03  0.12189264039E+03  0.00000000000E+00 0. -1.
          1    1    1    2  501    0  0.35558481709E+02  0.64086094812E+02  0.42195188265E+03  0.42826956983E+03  0.00000000000E+00 0. -1.
<scales pt_clust_5="13000.00000" pt_clust_6="13000.00000" pt_clust_7="13000.00000" pt_clust_8="13000.00000" pt_clust_9="13000.00000"></scales>
<clustering>
<clus scale="   80.231">  5  6 -1 -1</clus>
<clus scale="   73.290">  5  9 -1 -1</clus>
<clus scale="   89.617">  7  8 -1 -1</clus>
<clus scale="   97.159">  1  7  2 -1</clus>
<clus scale="  179.837">  2  5  1 -1</clus>
</clustering>
</event>
<event>
 9    2  0.6085395E-005  0.1596935E+03  0.7546771E-02  0.1213924E+00
         21   -1    0    0  501  502  0.00000000000E+00  0.00000000000E+00  0.10881953397E+03  0.10881953397E+03  0.00000000000E+00 0.  1.
         -3   -1    0    0    0  501 -0.00000000000E+00 -0.00000000000E+00 -0.20690790860E+03  0.20690790860E+03  0.00000000000E+00 0.  1.
         23    2    1    2    0    0 -0.59432574961E+01  0.12723645543E+02 -0.12280302492E+03  0.15413275523E+03  0.92082082080E+02 0.  0.
         24    2    1    2    0    0 -0.28106594717E+02 -0.41627580983E+02  0.52448621475E+02  0.10902090036E+03  0.81313360870E+02 0.  0.
        -13    1    4    4    0    0 -0.24635015833E+02 -0.56272870975E+02  0.64991706659E+02  0.89428418007E+02  0.00000000000E+00 0.  1.
         14    1    4    4    0    0 -0.34715788841E+01  0.14645289992E+02 -0.12543085184E+02  0.19592482355E+02  0.00000000000E+00 0. -1.
        -13    1    3    3    0    0 -0.28427706392E+02 -0.31578542186E+02 -0.45615422177E+02  0.62338636155E+02  0.00000000000E+00 0. -1.
         13    1    3    3    0    0  0.22484448896E+02  0.44302187729E+02 -0.77187602746E+02  0.91794119078E+02  0.00000000000E+00 0.  1.
         -4    1    1    2    0  502  0.34049852213E+02  0.28903935440E+02 -0.27733971176E+02  0.52573786975E+02  0.00000000000E+00 0.  1.
<scales pt_clust_5="13000.00000" pt_clust_6="13000.00000" pt_clust_7="13000.00000" pt_clust_8="13000.00000" pt_clust_9="13000.00000"></scales>
<clustering>
<clus scale="   81.313">  5  6 -1 -1</clus>
<clus scale="   44.664">  5  9 -1 -1</clus>
<clus scale="   92.082">  7  8 -1 -1</clus>
<clus scale="   93.147">  2  7  1 -1</clus>
<clus scale="  159.694">  1  5  2 -1</clus>
</clustering>
</event>
<event>
 9    2  0.6085395E-005  0.2411479E+03  0.7546771E-02  0.1141011E+00
         -1   -1    0    0    0  501 -0.00000000000E+00  0.00000000000E+00  0.82601272733E+02  0.82601272733E+02  0.00000000000E+00 0.  1.
         21   -1    0    0  501  502  0.00000000000E+00 -0.00000000000E+00 -0.80672573532E+03  0.80672573532E+03  0.00000000000E+00 0.  1.
         23    2    1    2    0    0  0.31900761533E+02  0.90857165528E+02 -0.16227158053E+02  0.14148284940E+03  0.10237867406E+03 0.  0.
         24    2    1    2    0    0  0.47802869234E+02 -0.29019210683E+02 -0.15866270299E+03  0.18942205222E+03  0.87061080009E+02 0.  0.
        -13    1    4    4    0    0 -0.33547332232E+01 -0.46660223268E+02 -0.52886558680E+02  0.70607497898E+02  0.00000000000E+00 0.  1.
         14    1    4    4    0    0  0.51157602457E+02  0.17641012585E+02 -0.10577614431E+03  0.11881455432E+03  0.00000000000E+00 0. -1.
        -13    1    3    3    0    0  0.47187418296E+02  0.27273569531E+02  0.29224968124E+02  0.61843340808E+02  0.00000000000E+00 0.  1.
         13    1    3    3    0    0 -0.15286656763E+02  0.63583595996E+02 -0.45452126177E+02  0.79639508593E+02  0.00000000000E+00 0. -1.
         -2    1    1    2    0  502 -0.79703630767E+02 -0.61837954845E+02 -0.54923460155E+03  0.55842210644E+03  0.00000000000E+00 0.  1.
<scales pt_clust_5="13000.00000" pt_clust_6="13000.00000" pt_clust_7="13000.00000" pt_clust_8="13000.00000" pt_clust_9="13000.00000"></scales>
<clustering>
<clus scale="   87.061">  5  6 -1 -1</clus>
<clus scale="  100.879">  5  9 -1 -1</clus>
<clus scale="  102.379">  7  8 -1 -1</clus>
<clus scale="  140.549">  1  7  2 -1</clus>
<clus scale="  241.148">  2  5  1 -1</clus>
</clustering>
</event>
<event>
 9    2  0.6085395E-005  0.8979395E+03  0.7546771E-02  0.9698428E-01
          2   -1    0    0  502    0 -0.00000000000E+00  0.00000000000E+00  0.18571544494E+04  0.18571544494E+04  0.00000000000E+00 0. -1.
         21   -1    0    0  501  502  0.00000000000E+00 -0.00000000000E+00 -0.24892810393E+03  0.24892810393E+03  0.00000000000E+00 0. -1.
         23    2    1    2    0    0  0.14248185321E+03  0.30963777216E+03  0.12968753989E+03  0.37623503962E+03  0.92505776013E+02 0.  0.
         24    2    1    2    0    0  0.23662545329E+03  0.14546712376E+03  0.34031630995E+03  0.44672894332E+03  0.81235883338E+02 0.  0.
        -13    1    4    4    0    0  0.68870479983E+02  0.20942958936E+02  0.44683850113E+02  0.84725421232E+02  0.00000000000E+00 0.  1.
         14    1    4    4    0    0  0.16775497331E+03  0.12452416482E+03  0.29563245984E+03  0.36200352209E+03  0.00000000000E+00 0. -1.
        -11    1    3    3    0    0  0.23295741679E+02  0.29983648070E+01  0.29203167810E+01  0.23668756241E+02  0.00000000000E+00 0.  1.
         11    1    3    3    0    0  0.11918611153E+03  0.30663940736E+03  0.12676722311E+03  0.35256628338E+03  0.00000000000E+00 0. -1.
          1    1    1    2  501    0 -0.37910730650E+03 -0.45510489592E+03  0.11382224957E+04  0.12831185704E+04  0.00000000000E+00 0. -1.
<scales pt_clust_5="13000.00000" pt_clust_6="13000.00000" pt_clust_7="13000.00000" pt_clust_8="13000.00000" pt_clust_9="13000.00000"></scales>
<clustering>
<clus scale="   81.236">  5  6 -1 -1</clus>
<clus scale="   92.506">  7  8 -1 -1</clus>
<clus scale="  353.177">  1  7  2 -1</clus>
<clus scale="  350.404">  5  9 -1 -1</clus>
<clus scale="  897.940">  2  5  1 -1</clus>
</clustering>
</event>
<event>
 9    2  0.6085395E-005  0.1928696E+03  0.7546771E-02  0.1181907E+00
         21   -1    0    0  501  502  0.00000000000E+00  0.00000000000E+00  0.13848490901E+03  0.13848490901E+03  0.00000000000E+00 0. -1.
          2   -1    0    0  502    0 -0.00000000000E+00 -0.00000000000E+00 -0.16160176643E+03  0.16160176643E+03  0.00000000000E+00 0. -1.
         23    2    1    2    0    0  0.44839482045E+01  0.51188924547E+02 -0.51886177205E+01  0.10638558080E+03  0.93008377366E+02 0.  0.
         24    2    1    2    0    0 -0.34102761607E+02  0.27704039133E+02  0.32895331073E+02  0.95291698898E+02  0.77896681181E+02 0.  0.
        -13    1    4    4    0    0 -0.16828212407E+01  0.26067819089E+02  0.51594116501E+02  0.57830060841E+02  0.00000000000E+00 0.  1.
         14    1    4    4    0    0 -0.32419940367E+02  0.16362200439E+01 -0.18698785428E+02  0.37461638057E+02  0.00000000000E+00 0. -1.
        -13    1    3    3    0    0 -0.18249809912E+02  0.22943562935E+02  0.39276714889E+02  0.49011457583E+02  0.00000000000E+00 0. -1.
         13    1    3    3    0    0  0.22733758116E+02  0.28245361612E+02 -0.44465332609E+02  0.57374123215E+02  0.00000000000E+00 0.  1.
          1    1    1    2  501    0  0.29618813403E+02 -0.78892963679E+02 -0.50823570769E+02  0.98409395747E+02  0.00000000000E+00 0. -1.
<scales pt_clust_5="13000.00000" pt_clust_6="13000.00000" pt_clust_7="13000.00000" pt_clust_8="13000.00000" pt_clust_9="13000.00000"></scales>
<clustering>
<clus scale="   77.897">  5  6 -1 -1</clus>
<clus scale="   84.270">  5  9 -1 -1</clus>
<clus scale="   93.008">  7  8 -1 -1</clus>
<clus scale="  106.259">  2  7  1 -1</clus>
<clus scale="  192.870">  1  5  2 -1</clus>
</clustering>
</event>
<event>
 9    2  0.6085395E-005  0.4403149E+03  0.7546771E-02  0.1041958E+00
         21   -1    0    0  501  502  0.00000000000E+00  0.00000000000E+00  0.14201023740E+03  0.14201023740E+03  0.00000000000E+00 0. -1.
          2   -1    0    0  502    0 -0.00000000000E+00 -0.00000000000E+00 -0.11998151185E+04  0.11998151185E+04  0.00000000000E+00 0. -1.
         23    2    1    2    0    0  0.28113986831E+03 -0.11203883509E+03 -0.72168502201E+03  0.78788151454E+03  0.91299966256E+02 0.  0.
         24    2    1    2    0    0 -0.18467783738E+03  0.21495797723E+02 -0.36449622594E+03  0.41863610604E+03  0.88491342008E+02 0.  0.
        -13    1    4    4    0    0 -0.33376376429E+02  0.40302426097E+02 -0.11310696714E+03  0.12462525454E+03  0.00000000000E+00 0.  1.
         14    1    4    4    0    0 -0.15130146096E+03 -0.18806628374E+02 -0.25138925880E+03  0.29401085150E+03  0.00000000000E+00 0. -1.
        -11    1    3    3    0    0  0.76521923336E+02 -0.13219834209E+02 -0.28784170596E+03  0.29813288389E+03  0.00000000000E+00 0. -1.
         11    1    3    3    0    0  0.20461794498E+03 -0.98819000879E+02 -0.43384331605E+03  0.48974863065E+03  0.00000000000E+00 0.  1.
          1    1    1    2  501    0 -0.96462030929E+02  0.90543037365E+02  0.28376366896E+02  0.13530773527E+03  0.00000000000E+00 0. -1.
<scales pt_clust_5="13000.00000" pt_clust_6="13000.00000" pt_clust_7="13000.00000" pt_clust_8="13000.00000" pt_clust_9="13000.00000"></scales>
<clustering>
<clus scale="   88.491">  5  6 -1 -1</clus>
<clus scale="   91.300">  7  8 -1 -1</clus>
<clus scale="  132.299">  5  9 -1 -1</clus>
<clus scale="  316.114">  2  7  1 -1</clus>
<clus scale="  440.315">  1  5  2 -1</clus>
</clustering>
</event>
<event>
 9    2  0.6085395E-005  0.1711767E+03  0.7546771E-02  0.1192275E+00
         -1   -1    0    0    0  501 -0.00000000000E+00  0.00000000000E+00  0.26349876517E+03  0.26349876517E+03  0.00000000000E+00 0.  1.
         21   -1    0    0  501  502  0.00000000000E+00 -0.00000000000E+00 -0.14058315384E+03  0.14058315384E+03  0.00000000000E+00 0.  1.
         23    2    1    2    0    0  0.45126594314E+02  0.65471662128E+02  0.18591586485E+03  0.22167993315E+03  0.90853375843E+02 0.  0.
         24    2    1    2    0    0 -0.70579775439E+02 -0.35190573117E+02 -0.80799904003E+02  0.13902415353E+03  0.81112327300E+02 0.  0.
        -13    1    4    4    0    0 -0.76567827867E+02 -0.17569586517E+02 -0.88979146858E+02  0.11869545573E+03  0.00000000000E+00 0.  1.
         14    1    4    4    0    0  0.59880524273E+01 -0.17620986600E+02  0.81792428547E+01  0.20328697802E+02  0.00000000000E+00 0. -1.
        -13    1    3    3    0    0  0.18669408477E+02  0.80715576543E+02  0.16511474114E+03  0.18473339939E+03  0.00000000000E+00 0.  1.
         13    1    3    3    0    0  0.26457185837E+02 -0.15243914415E+02  0.20801123713E+02  0.36946533759E+02  0.00000000000E+00 0. -1.
         -2    1    1    2    0  502  0.25453181125E+02 -0.30281089010E+02  0.17799650476E+02  0.43377832335E+02  0.00000000000E+00 0.  1.
<scales pt_clust_5="13000.00000" pt_clust_6="13000.00000" pt_clust_7="13000.00000" pt_clust_8="13000.00000" pt_clust_9="13000.00000"></scales>
<clustering>
<clus scale="   81.112">  5  6 -1 -1</clus>
<clus scale="   39.558">  5  9 -1 -1</clus>
<clus scale="   90.853">  7  8 -1 -1</clus>
<clus scale="  120.736">  1  7  2 -1</clus>
<clus scale="  171.177">  2  5  1 -1</clus>
</clustering>
</event>
<event>
 9    2  0.6085395E-005  0.2514209E+03  0.7546771E-02  0.1147079E+00
         21   -1    0    0  501  502  0.00000000000E+00  0.00000000000E+00  0.30855851363E+03  0.30855851363E+03  0.00000000000E+00 0.  1.
         -1   -1    0    0    0  501 -0.00000000000E+00 -0.00000000000E+00 -0.10531284524E+03  0.10531284524E+03  0.00000000000E+00 0.  1.
         23    2    1    2    0    0  0.54940487905E+02 -0.19339410894E+02  0.41926156630E+02  0.11514662201E+03  0.90047053947E+02 0.  0.
         24    2    1    2    0    0  0.80789301861E+02 -0.92249674289E+01  0.69004433670E+02  0.13210969198E+03  0.77970170761E+02 0.  0.
        -11    1    4    4    0    0  0.73190190735E+02  0.10309986583E+02  0.79598778803E+02  0.10862350312E+03  0.00000000000E+00 0.  1.
         12    1    4    4    0    0  0.75991111262E+01 -0.19534954012E+02 -0.10594345133E+02  0.23486188856E+02  0.00000000000E+00 0. -1.
        -13    1    3    3    0    0 -0.19028351271E+02 -0.12814398553E+02  0.33234780052E+02  0.40383629945E+02  0.00000000000E+00 0. -1.
         13    1    3    3    0    0  0.73968839176E+02 -0.65250123407E+01  0.86913765776E+01  0.74762992061E+02  0.00000000000E+00 0.  1.
         -2    1    1    2    0  502 -0.13572978977E+03  0.28564378323E+02  0.92315078097E+02  0.16661504489E+03  0.00000000000E+00 0.  1.
<scales pt_clust_5="13000.00000" pt_clust_6="13000.00000" pt_clust_7="13000.00000" pt_clust_8="13000.00000" pt_clust_9="13000.00000"></scales>
<clustering>
<clus scale="   77.970">  5  6 -1 -1</clus>
<clus scale="   90.047">  7  8 -1 -1</clus>
<clus scale="  107.242">  2  7  1 -1</clus>
<clus scale="  107.557">  5  9 -1 -1</clus>
<clus scale="  251.421">  1  5  2 -1</clus>
</clustering>
</event>
<event>
 9    2  0.6085395E-005  0.7141609E+03  0.7546771E-02  0.1024546E+00
         21   -1    0    0  501  502  0.00000000000E+00  0.00000000000E+00  0.29656297445E+03  0.29656297445E+03  0.00000000000E+00 0. -1.
         -1   -1    0    0    0  501 -0.00000000000E+00 -0.00000000000E+00 -0.65018811756E+03  0.65018811756E+03  0.00000000000E+00 0.  1.
         23    2    1    2    0    0 -0.83301435758E+02  0.20018497196E+02  0.41505699988E+02  0.13056838186E+03  0.89361679593E+02 0.  0.
         24    2    1    2    0    0  0.20753181395E+03 -0.23131236618E+03  0.33468019894E+02  0.32244667614E+03  0.79226801306E+02 0.  0.
        -13    1    4    4    0    0  0.55133240138E+02 -0.26388037794E+02  0.27427461465E+02  0.66994539697E+02  0.00000000000E+00 0.  1.
         14    1    4    4    0    0  0.15239857382E+03 -0.20492432839E+03  0.60405584283E+01  0.25545213644E+03  0.00000000000E+00 0. -1.
        -11    1    3    3    0    0 -0.64577633260E+02 -0.20893621930E+02 -0.21080720611E+01  0.67906245093E+02  0.00000000000E+00 0.  1.
         11    1    3    3    0    0 -0.18723802498E+02  0.40912119126E+02  0.43613772049E+02  0.62662136763E+02  0.00000000000E+00 0. -1.
         -2    1    1    2    0  502 -0.12423037820E+03  0.21129386898E+03 -0.42859886299E+03  0.49373603403E+03  0.00000000000E+00 0.  1.
<scales pt_clust_5="13000.00000" pt_clust_6="13000.00000" pt_clust_7="13000.00000" pt_clust_8="13000.00000" pt_clust_9="13000.00000"></scales>
<clustering>
<clus scale="   79.227">  5  6 -1 -1</clus>
<clus scale="   89.362">  7  8 -1 -1</clus>
<clus scale="  123.796">  2  7  1 -1</clus>
<clus scale="  294.168">  5  9 -1 -1</clus>
<clus scale="  714.161">  1  5  2 -1</clus>
</clustering>
</event>
<event>
 9    2  0.6085395E-005  0.6078130E+03  0.7546771E-02  0.1050845E+00
         21   -1    0    0  501  502  0.00000000000E+00  0.00000000000E+00  0.34613955974E+03  0.34613955974E+03  0.00000000000E+00 0.  1.
         -1   -1    0    0    0  501 -0.00000000000E+00 -0.00000000000E+00 -0.42819340484E+03  0.42819340484E+03  0.00000000000E+00 0.  1.
         23    2    1    2    0    0 -0.40364638357E+01 -0.17385499905E+02 -0.13525445591E+03  0.16419617456E+03  0.91367758260E+02 0.  0.
         24    2    1    2    0    0  0.68736627578E+02  0.24577190462E+03  0.19669879106E+03  0.33275944996E+03  0.83125712423E+02 0.  0.
        -11    1    4    4    0    0  0.82980765559E+02  0.21567203683E+03  0.15035869639E+03  0.27569543432E+03  0.00000000000E+00 0.  1.
         12    1    4    4    0    0 -0.14244137980E+02  0.30099867786E+02  0.46340094672E+02  0.57064015647E+02  0.00000000000E+00 0. -1.
        -11    1    3    3    0    0 -0.35844201293E+02 -0.17282038641E+02 -0.19812522641E+02  0.44452352911E+02  0.00000000000E+00 0.  1.
         11    1    3    3    0    0  0.31807737457E+02 -0.10346126347E+00 -0.11544193327E+03  0.11974382165E+03  0.00000000000E+00 0. -1.
         -2    1    1    2    0  502 -0.64700163742E+02 -0.22838640471E+03 -0.14349818024E+03  0.27737734006E+03  0.00000000000E+00 0.  1.
<scales pt_clust_5="13000.00000" pt_clust_6="13000.00000" pt_clust_7="13000.00000" pt_clust_8="13000.00000" pt_clust_9="13000.00000"></scales>
<clustering>
<clus scale="   83.126">  5  6 -1 -1</clus>
<clus scale="   91.368">  7  8 -1 -1</clus>
<clus scale="   93.095">  2  7  1 -1</clus>
<clus scale="  250.847">  5  9 -1 -1</clus>
<clus scale="  607.813">  1  5  2 -1</clus>
</clustering>
</event>
<event>
 9    2  0.6085395E-005  0.6524493E+03  0.7546771E-02  0.1015699E+00
         -1   -1    0    0    0  501 -0.00000000000E+00  0.00000000000E+00  0.42996535351E+03  0.42996535351E+03  0.00000000000E+00 0.  1.
         21   -1    0    0  501  502  0.00000000000E+00 -0.00000000000E+00 -0.43929468649E+03  0.43929468649E+03  0.00000000000E+00 0.  1.
         23    2    1    2    0    0 -0.11664304564E+03  0.16742672257E+03  0.36048761314E+02  0.21523464515E+03  0.58216249937E+02 0.  0.
         24    2    1    2    0    0  0.17071331277E+03  0.78227244336E+02  0.21233164820E+03  0.29390905722E+03  0.77686988473E+02 0.  0.
        -11    1    4    4    0    0  0.95466606167E+02  0.16623730071E+02  0.62585700077E+02  0.11535679932E+03  0.00000000000E+00 0.  1.
         12    1    4    4    0    0  0.75246706601E+02  0.61603514265E+02  0.14974594812E+03  0.17855225791E+03  0.00000000000E+00 0. -1.
        -13    1    3    3    0    0 -0.20989165710E+02  0.42883813933E+02  0.33233566660E+02  0.58172472249E+02  0.00000000000E+00 0. -1.
         13    1    3    3    0    0 -0.95653879931E+02  0.12454290863E+03  0.28151946537E+01  0.15706217290E+03  0.00000000000E+00 0.  1.
         -2    1    1    2    0  502 -0.54070267127E+02 -0.24565396690E+03 -0.25770974250E+03  0.36011633762E+03  0.00000000000E+00 0.  1.
<scales pt_clust_5="13000.00000" pt_clust_6="13000.00000" pt_clust_7="13000.00000" pt_clust_8="13000.00000" pt_clust_9="13000.00000"></scales>
<clustering>
<clus scale="   58.216">  7  8 -1 -1</clus>
<clus scale="   77.687">  5  6 -1 -1</clus>
<clus scale="  212.194">  1  7  2 -1</clus>
<clus scale="  229.631">  5  9 -1 -1</clus>
<clus scale="  652.449">  2  5  1 -1</clus>
</clustering>
</event>
<event>
 9    2  0.6085395E-005  0.4474700E+03  0.7546771E-02  0.1051429E+00
         21   -1    0    0  501  502  0.00000000000E+00  0.00000000000E+00  0.87350807195E+02  0.87350807195E+02  0.00000000000E+00 0. -1.
          2   -1    0    0  502    0 -0.00000000000E+00 -0.00000000000E+00 -0.13531685959E+04  0.13531685959E+04  0.00000000000E+00 0. -1.
         23    2    1    2    0    0 -0.13092005082E+03  0.16510436077E+03 -0.55523799233E+03  0.60078546953E+03  0.90853963163E+02 0.  0.
         24    2    1    2    0    0 -0.94825904743E+02 -0.10103189546E+03 -0.10994602203E+03  0.19488709272E+03  0.81813538241E+02 0.  0.
        -11    1    4    4    0    0 -0.43466415920E+02  0.42717903159E+01 -0.27217839941E+02  0.51462494270E+02  0.00000000000E+00 0.  1.
         12    1    4    4    0    0 -0.51359488823E+02 -0.10530368577E+03 -0.82728182093E+02  0.14342459845E+03  0.00000000000E+00 0. -1.
        -11    1    3    3    0    0 -0.45580221403E+01  0.23472916281E+02 -0.15128746888E+02  0.28295447461E+02  0.00000000000E+00 0.  1.
         11    1    3    3    0    0 -0.12636202868E+03  0.14163144449E+03 -0.54010924544E+03  0.57249002207E+03  0.00000000000E+00 0. -1.
          1    1    1    2  501    0  0.22574595556E+03 -0.64072465311E+02 -0.60063377433E+03  0.64484684083E+03  0.00000000000E+00 0. -1.
<scales pt_clust_5="13000.00000" pt_clust_6="13000.00000" pt_clust_7="13000.00000" pt_clust_8="13000.00000" pt_clust_9="13000.00000"></scales>
<clustering>
<clus scale="   81.814">  5  6 -1 -1</clus>
<clus scale="   90.854">  7  8 -1 -1</clus>
<clus scale="  229.464">  2  7  1 -1</clus>
<clus scale="  138.702">  5  9 -1 -1</clus>
<clus scale="  447.470">  1  5  2 -1</clus>
</clustering>
</event>
<event>
 9    2  0.6085395E-005  0.3013422E+03  0.7546771E-02  0.1120133E+00
         21   -1    0    0  501  502  0.00000000000E+00  0.00000000000E+00  0.28524655877E+02  0.28524655877E+02  0.00000000000E+00 0. -1.
          2   -1    0    0  502    0 -0.00000000000E+00 -0.00000000000E+00 -0.15732321974E+04  0.15732321974E+04  0.00000000000E+00 0. -1.
         23    2    1    2    0    0 -0.18162705646E+02  0.73370630501E+02 -0.37152415381E+03  0.39049042302E+03  0.93484973720E+02 0.  0.
         24    2    1    2    0    0  0.68527021738E+02  0.36186651017E+02 -0.95875702178E+03  0.96526230696E+03  0.80689949880E+02 0.  0.
        -13    1    4    4    0    0  0.17931207390E+02 -0.22020256230E+02 -0.13810804587E+03  0.14099734826E+03  0.00000000000E+00 0.  1.
         14    1    4    4    0    0  0.50595814348E+02  0.58206907247E+02 -0.82064897591E+03  0.82426495870E+03  0.00000000000E+00 0. -1.
        -11    1    3    3    0    0 -0.18584457135E+02 -0.17608277394E+02 -0.12779661732E+03  0.13033575441E+03  0.00000000000E+00 0.  1.
         11    1    3    3    0    0  0.42175148879E+00  0.90978907895E+02 -0.24372753649E+03  0.26015466861E+03  0.00000000000E+00 0. -1.
          1    1    1    2  501    0 -0.50364316091E+02 -0.10955728152E+03 -0.21442636593E+03  0.24600412329E+03  0.00000000000E+00 0. -1.
<scales pt_clust_5="13000.00000" pt_clust_6="13000.00000" pt_clust_7="13000.00000" pt_clust_8="13000.00000" pt_clust_9="13000.00000"></scales>
<clustering>
<clus scale="   80.690">  5  6 -1 -1</clus>
<clus scale="   93.485">  7  8 -1 -1</clus>
<clus scale="  120.219">  2  7  1 -1</clus>
<clus scale="  109.551">  5  9 -1 -1</clus>
<clus scale="  301.342">  1  5  2 -1</clus>
</clustering>
</event>
<event>
 9    2  0.6085395E-005  0.1914953E+03  0.7546771E-02  0.1167083E+00
         21   -1    0    0  501  502  0.00000000000E+00  0.00000000000E+00  0.31688948526E+03  0.31688948526E+03  0.00000000000E+00 0.  1.
         -3   -1    0    0    0  501 -0.00000000000E+00 -0.00000000000E+00 -0.97319818136E+02  0.97319818136E+02  0.00000000000E+00 0.  1.
         23    2    1    2    0    0 -0.87182566216E+02 -0.85093022657E+02  0.14068354675E+03  0.20710191230E+03  0.90871994554E+02 0.  0.
         24    2    1    2    0    0  0.16054594102E+02  0.19182894832E+02  0.32642819690E+01  0.84135866707E+02  0.80264905680E+02 0.  0.
        -13    1    4    4    0    0  0.22111752775E+02 -0.14652034357E+02  0.30397871393E+02  0.40344049212E+02  0.00000000000E+00 0.  1.
         14    1    4    4    0    0 -0.60571586724E+01  0.33834929189E+02 -0.27133589424E+02  0.43791817495E+02  0.00000000000E+00 0. -1.
        -11    1    3    3    0    0 -0.40701955815E+02  0.75867651922E+01  0.70963105344E+02  0.82158204297E+02  0.00000000000E+00 0. -1.
         11    1    3    3    0    0 -0.46480610401E+02 -0.92679787849E+02  0.69720441404E+02  0.12494370800E+03  0.00000000000E+00 0.  1.
         -4    1    1    2    0  502  0.71127972114E+02  0.65910127825E+02  0.75621838403E+02  0.12297152439E+03  0.00000000000E+00 0.  1.
<scales pt_clust_5="13000.00000" pt_clust_6="13000.00000" pt_clust_7="13000.00000" pt_clust_8="13000.00000" pt_clust_9="13000.00000"></scales>
<clustering>
<clus scale="   80.265">  5  6 -1 -1</clus>
<clus scale="   90.872">  7  8 -1 -1</clus>
<clus scale="   96.971">  5  9 -1 -1</clus>
<clus scale="  151.985">  2  7  1 -1</clus>
<clus scale="  191.495">  1  5  2 -1</clus>
</clustering>
</event>
<event>
 9    2  0.6085395E-005  0.3980875E+03  0.7546771E-02  0.1086626E+00
         -3   -1    0    0    0  501 -0.00000000000E+00  0.00000000000E+00  0.11028814844E+03  0.11028814844E+03  0.00000000000E+00 0.  1.
         21   -1    0    0  501  502  0.00000000000E+00 -0.00000000000E+00 -0.70140298066E+03  0.70140298066E+03  0.00000000000E+00 0. -1.
         23    2    1    2    0    0 -0.50048519412E+02  0.50522567724E+02 -0.36531605461E+02  0.12902270633E+03  0.10126656115E+03 0.  0.
         24    2    1    2    0    0  0.15048106501E+03 -0.12051334985E+03 -0.51241311062E+03  0.55319362023E+03  0.79296703034E+02 0.  0.
        -13    1    4    4    0    0  0.99537018325E+02 -0.31507634559E+02 -0.22531911719E+03  0.24833254645E+03  0.00000000000E+00 0.  1.
         14    1    4    4    0    0  0.50944046683E+02 -0.89005715292E+02 -0.28709399343E+03  0.30486107379E+03  0.00000000000E+00 0. -1.
        -13    1    3    3    0    0  0.17593514209E+02 -0.17696068843E+02 -0.19008337828E+02  0.31368766340E+02  0.00000000000E+00 0. -1.
         13    1    3    3    0    0 -0.67642033622E+02  0.68218636567E+02 -0.17523267633E+02  0.97653939993E+02  0.00000000000E+00 0.  1.
         -4    1    1    2    0  502 -0.10043254560E+03  0.69990782127E+02 -0.42170116134E+02  0.12947480254E+03  0.00000000000E+00 0.  1.
<scales pt_clust_5="13000.00000" pt_clust_6="13000.00000" pt_clust_7="13000.00000" pt_clust_8="13000.00000" pt_clust_9="13000.00000"></scales>
<clustering>
<clus scale="   79.297">  5  6 -1 -1</clus>
<clus scale="  101.267">  7  8 -1 -1</clus>
<clus scale="  122.415">  5  9 -1 -1</clus>
<clus scale="  123.743">  1  7  2 -1</clus>
<clus scale="  398.087">  2  5  1 -1</clus>
</clustering>
</event>
<event>
 9    2  0.6085395E-005  0.1913631E+03  0.7546771E-02  0.1188671E+00
         21   -1    0    0  501  502  0.00000000000E+00  0.00000000000E+00  0.24046672503E+03  0.24046672503E+03  0.00000000000E+00 0. -1.
          2   -1    0    0  502    0 -0.00000000000E+00 -0.00000000000E+00 -0.14857798060E+03  0.14857798060E+03  0.00000000000E+00 0. -1.
         23    2    1    2    0    0  0.21149572307E+02 -0.70390763124E+01 -0.86499960556E+02  0.12742980861E+03  0.90880470638E+02 0.  0.
         24    2    1    2    0    0 -0.43292696492E+02  0.20711208041E+02  0.20455095277E+03  0.22471356446E+03  0.79698695512E+02 0.  0.
        -11    1    4    4    0    0  0.19305421506E+01  0.20035812754E+02  0.58950189753E+01  0.20974080062E+02  0.00000000000E+00 0.  1.
         12    1    4    4    0    0 -0.45223238643E+02  0.67539528639E+00  0.19865593379E+03  0.20373948440E+03  0.00000000000E+00 0. -1.
        -13    1    3    3    0    0  0.25685306114E+02 -0.34980222038E+02 -0.81937810409E+01  0.44164340047E+02  0.00000000000E+00 0. -1.
         13    1    3    3    0    0 -0.45357338068E+01  0.27941145726E+02 -0.78306179515E+02  0.83265468568E+02  0.00000000000E+00 0.  1.
          1    1    1    2  501    0  0.22143124185E+02 -0.13672131728E+02 -0.26162247790E+02  0.36901332552E+02  0.00000000000E+00 0. -1.
<scales pt_clust_5="13000.00000" pt_clust_6="13000.00000" pt_clust_7="13000.00000" pt_clust_8="13000.00000" pt_clust_9="13000.00000"></scales>
<clustering>
<clus scale="   79.699">  5  6 -1 -1</clus>
<clus scale="   26.024">  5  9 -1 -1</clus>
<clus scale="   90.880">  7  8 -1 -1</clus>
<clus scale="   93.574">  2  7  1 -1</clus>
<clus scale="  191.363">  1  5  2 -1</clus>
</clustering>
</event>
<event>
 9    2  0.6085395E-005  0.2499335E+03  0.7546771E-02  0.1129003E+00
          2   -1    0    0  502    0 -0.00000000000E+00  0.00000000000E+00  0.69228978337E+03  0.69228978337E+03  0.00000000000E+00 0. -1.
         21   -1    0    0  501  502  0.00000000000E+00 -0.00000000000E+00 -0.69701380696E+02  0.69701380696E+02  0.00000000000E+00 0. -1.
         23    2    1    2    0    0  0.51160558892E+02  0.13273842316E+03  0.14413580606E+03  0.22219153576E+03  0.91416936118E+02 0.  0.
         24    2    1    2    0    0  0.26796421996E+02 -0.82702654860E+01  0.87793214161E+02  0.12244562240E+03  0.80615361243E+02 0.  0.
        -11    1    4    4    0    0  0.26926652928E+02  0.43739734411E+01  0.10072815161E+03  0.10435677653E+03  0.00000000000E+00 0.  1.
         12    1    4    4    0    0 -0.13023093194E+00 -0.12644238927E+02 -0.12934937444E+02  0.18088845868E+02  0.00000000000E+00 0. -1.
        -11    1    3    3    0    0  0.47182557388E+02  0.34293982777E+02  0.96491812960E+02  0.11275167823E+03  0.00000000000E+00 0.  1.
         11    1    3    3    0    0  0.39780015036E+01  0.98444440381E+02  0.47643993095E+02  0.10943985753E+03  0.00000000000E+00 0. -1.
          1    1    1    2  501    0 -0.77956980887E+02 -0.12446815767E+03  0.39065938245E+03  0.41735400590E+03  0.00000000000E+00 0. -1.
<scales pt_clust_5="13000.00000" pt_clust_6="13000.00000" pt_clust_7="13000.00000" pt_clust_8="13000.00000" pt_clust_9="13000.00000"></scales>
<clustering>
<clus scale="   80.615">  5  6 -1 -1</clus>
<clus scale="   91.417">  7  8 -1 -1</clus>
<clus scale="  146.866">  5  9 -1 -1</clus>
<clus scale="  169.098">  1  7  2 -1</clus>
<clus scale="  249.933">  2  5  1 -1</clus>
</clustering>
</event>
<event>
 9    2  0.6085395E-005  0.3492836E+03  0.7546771E-02  0.1072703E+00
          4   -1    0    0  502    0 -0.00000000000E+00  0.00000000000E+00  0.27438869307E+03  0.27438869307E+03  0.00000000000E+00 0. -1.
         21   -1    0    0  501  502  0.00000000000E+00 -0.00000000000E+00 -0.36568144344E+03  0.36568144344E+03  0.00000000000E+00 0. -1.
         23    2    1    2    0    0 -0.24857168392E+03 -0.25684205222E+02 -0.11414029531E+03  0.29004008778E+03  0.92992930147E+02 0.  0.
         24    2    1    2    0    0  0.40055723667E+02  0.17269199009E+02 -0.77516210978E+02  0.11846450398E+03  0.78245699605E+02 0.  0.
        -13    1    4    4    0    0 -0.23873482418E+02  0.42233367662E+01 -0.18652008154E+02  0.30588840194E+02  0.00000000000E+00 0.  1.
         14    1    4    4    0    0  0.63929206085E+02  0.13045862243E+02 -0.58864202823E+02  0.87875663789E+02  0.00000000000E+00 0. -1.
        -13    1    3    3    0    0 -0.27712625475E+02 -0.59129896106E+01 -0.52876038970E+02  0.59990237155E+02  0.00000000000E+00 0.  1.
         13    1    3    3    0    0 -0.22085905845E+03 -0.19771215612E+02 -0.61264256340E+02  0.23004985062E+03  0.00000000000E+00 0. -1.
          3    1    1    2  501    0  0.20851596026E+03  0.84150062133E+01  0.10036375592E+03  0.23156554475E+03  0.00000000000E+00 0. -1.
<scales pt_clust_5="13000.00000" pt_clust_6="13000.00000" pt_clust_7="13000.00000" pt_clust_8="13000.00000" pt_clust_9="13000.00000"></scales>
<clustering>
<clus scale="   78.246">  5  6 -1 -1</clus>
<clus scale="   92.993">  7  8 -1 -1</clus>
<clus scale="  208.686">  5  9 -1 -1</clus>
<clus scale="  266.637">  1  7  2 -1</clus>
<clus scale="  349.284">  2  5  1 -1</clus>
</clustering>
</event>
<event>
 9    2  0.6085395E-005  0.2840847E+03  0.7546771E-02  0.1119495E+00
          2   -1    0    0  502    0 -0.00000000000E+00  0.00000000000E+00  0.27012882851E+03  0.27012882851E+03  0.00000000000E+00 0. -1.
         21   -1    0    0  501  502  0.00000000000E+00 -0.00000000000E+00 -0.17144893474E+03  0.17144893474E+03  0.00000000000E+00 0. -1.
         23    2    1    2    0    0  0.18678017914E+02  0.11203612111E+03  0.43903674741E+02  0.15226040564E+03  0.91404254185E+02 0.  0.
         24    2    1    2    0    0  0.10465655731E+03 -0.39449496926E+02  0.46909351109E+01  0.13769687376E+03  0.80182082641E+02 0.  0.
        -11    1    4    4    0    0  0.22265097240E+02  0.67767192773E+01  0.31803828765E+02  0.39409922651E+02  0.00000000000E+00 0.  1.
         12    1    4    4    0    0  0.82391460066E+02 -0.46226216203E+02 -0.27112893654E+02  0.98286951111E+02  0.00000000000E+00 0. -1.
        -11    1    3    3    0    0 -0.22642131709E+02  0.23567604874E+02 -0.17343666073E+02  0.36998660525E+02  0.00000000000E+00 0.  1.
         11    1    3    3    0    0  0.41320149623E+02  0.88468516239E+02  0.61247340814E+02  0.11526174512E+03  0.00000000000E+00 0. -1.
          1    1    1    2  501    0 -0.12333457522E+03 -0.72586624187E+02  0.50085283925E+02  0.15162048385E+03  0.00000000000E+00 0. -1.
<scales pt_clust_5="13000.00000" pt_clust_6="13000.00000" pt_clust_7="13000.00000" pt_clust_8="13000.00000" pt_clust_9="13000.00000"></scales>
<clustering>
<clus scale="   80.182">  5  6 -1 -1</clus>
<clus scale="   91.404">  7  8 -1 -1</clus>
<clus scale="  143.109">  5  9 -1 -1</clus>
<clus scale="  145.793">  1  7  2 -1</clus>
<clus scale="  284.085">  2  5  1 -1</clus>
</clustering>
</event>
<event>
 9    2  0.6085395E-005  0.2737479E+03  0.7546771E-02  0.1126261E+00
          2   -1    0    0  502    0 -0.00000000000E+00  0.00000000000E+00  0.25562410685E+03  0.25562410685E+03  0.00000000000E+00 0. -1.
         21   -1    0    0  501  502  0.00000000000E+00 -0.00000000000E+00 -0.18789225125E+03  0.18789225125E+03  0.00000000000E+00 0. -1.
         23    2    1    2    0    0 -0.88750733356E+02 -0.52652735875E+02 -0.48674746506E+02  0.14604635881E+03  0.91166357328E+02 0.  0.
         24    2    1    2    0    0 -0.70278374630E+01  0.26709598584E+02  0.16707438437E+03  0.18605274227E+03  0.77064776890E+02 0.  0.
        -13    1    4    4    0    0 -0.27155870036E+02 -0.15387326936E+02  0.96715569255E+02  0.10162732135E+03  0.00000000000E+00 0.  1.
         14    1    4    4    0    0  0.20128032573E+02  0.42096925521E+02  0.70358815119E+02  0.84425420926E+02  0.00000000000E+00 0. -1.
        -13    1    3    3    0    0 -0.45778481933E+02 -0.14627440430E+02  0.23781663528E+02  0.53620881583E+02  0.00000000000E+00 0.  1.
         13    1    3    3    0    0 -0.42972251423E+02 -0.38025295446E+02 -0.72456410033E+02  0.92425477229E+02  0.00000000000E+00 0. -1.
          1    1    1    2  501    0  0.95778570819E+02  0.25943137291E+02 -0.50667782263E+02  0.11141725701E+03  0.00000000000E+00 0. -1.
<scales pt_clust_5="13000.00000" pt_clust_6="13000.00000" pt_clust_7="13000.00000" pt_clust_8="13000.00000" pt_clust_9="13000.00000"></scales>
<clustering>
<clus scale="   77.065">  5  6 -1 -1</clus>
<clus scale="   91.166">  7  8 -1 -1</clus>
<clus scale="   99.230">  5  9 -1 -1</clus>
<clus scale="  137.697">  1  7  2 -1</clus>
<clus scale="  273.748">  2  5  1 -1</clus>
</clustering>
</event>
<event>
 9    2  0.6085395E-005  0.2016928E+03  0.7546771E-02  0.1176222E+00
         21   -1    0    0  501  502  0.00000000000E+00  0.00000000000E+00  0.39465323701E+03  0.39465323701E+03  0.00000000000E+00 0. -1.
          2   -1    0    0  502    0 -0.00000000000E+00 -0.00000000000E+00 -0.83498437728E+02  0.83498437728E+02  0.00000000000E+00 0. -1.
         23    2    1    2    0    0 -0.38996318859E+02 -0.39914800314E+02 -0.20509777142E+01  0.10562270622E+03  0.89655147043E+02 0.  0.
         24    2    1    2    0    0 -0.61124713081E+02 -0.13793668896E+02  0.17014281838E+03  0.18983843557E+03  0.56245507563E+02 0.  0.
        -13    1    4    4    0    0 -0.55383165174E+02 -0.64075755658E+01  0.71088794744E+02  0.90343614868E+02  0.00000000000E+00 0.  1.
         14    1    4    4    0    0 -0.57415479067E+01 -0.73860933298E+01  0.99054023641E+02  0.99494820702E+02  0.00000000000E+00 0. -1.
        -11    1    3    3    0    0  0.17253540186E+02 -0.23936644987E+02 -0.28878643309E+02  0.41287088315E+02  0.00000000000E+00 0.  1.
         11    1    3    3    0    0 -0.56249859045E+02 -0.15978155327E+02  0.26827665595E+02  0.64335617907E+02  0.00000000000E+00 0. -1.
          1    1    1    2  501    0  0.10012103194E+03  0.53708469210E+02  0.14306295861E+03  0.18269053295E+03  0.00000000000E+00 0. -1.
<scales pt_clust_5="13000.00000" pt_clust_6="13000.00000" pt_clust_7="13000.00000" pt_clust_8="13000.00000" pt_clust_9="13000.00000"></scales>
<clustering>
<clus scale="   56.246">  5  6 -1 -1</clus>
<clus scale="   89.655">  7  8 -1 -1</clus>
<clus scale="  105.603">  2  7  1 -1</clus>
<clus scale="   78.855">  5  9 -1 -1</clus>
<clus scale="  201.693">  1  5  2 -1</clus>
</clustering>
</event>
<event>
 9    2  0.6085395E-005  0.1694846E+03  0.7546771E-02  0.1198022E+00
         21   -1    0    0  501  502  0.00000000000E+00  0.00000000000E+00  0.25244127312E+03  0.25244127312E+03  0.00000000000E+00 0. -1.
          2   -1    0    0  502    0 -0.00000000000E+00 -0.00000000000E+00 -0.14855777257E+03  0.14855777257E+03  0.00000000000E+00 0. -1.
         23    2    1    2    0    0 -0.39256290087E+02 -0.46604192863E+02 -0.91151953084E+02  0.14261198502E+03  0.91194805858E+02 0.  0.
         24    2    1    2    0    0  0.82145333561E+02  0.46890865169E+02  0.15169571341E+03  0.19741259622E+03  0.83746848412E+02 0.  0.
        -11    1    4    4    0    0  0.51195856511E+02  0.53756293474E+02  0.46621677844E+02  0.87660342556E+02  0.00000000000E+00 0.  1.
         12    1    4    4    0    0  0.30949477050E+02 -0.68654283052E+01  0.10507403556E+03  0.10975225367E+03  0.00000000000E+00 0. -1.
        -13    1    3    3    0    0 -0.11304300569E+02 -0.70038353646E+02 -0.45937192425E+02  0.84518541402E+02  0.00000000000E+00 0. -1.
         13    1    3    3    0    0 -0.27951989518E+02  0.23434160782E+02 -0.45214760659E+02  0.58093443615E+02  0.00000000000E+00 0.  1.
          1    1    1    2  501    0 -0.42889043475E+02 -0.28667230542E+00  0.43339740232E+02  0.60974464447E+02  0.00000000000E+00 0. -1.
<scales pt_clust_5="13000.00000" pt_clust_6="13000.00000" pt_clust_7="13000.00000" pt_clust_8="13000.00000" pt_clust_9="13000.00000"></scales>
<clustering>
<clus scale="   83.747">  5  6 -1 -1</clus>
<clus scale="   42.890">  5  9 -1 -1</clus>
<clus scale="   91.195">  7  8 -1 -1</clus>
<clus scale="  109.679">  2  7  1 -1</clus>
<clus scale="  169.485">  1  5  2 -1</clus>
</clustering>
</event>
<event>
 9    2  0.6085395E-005  0.2066992E+03  0.7546771E-02  0.1167038E+00
         21   -1    0    0  501  502  0.00000000000E+00  0.00000000000E+00  0.35002924635E+03  0.35002924635E+03  0.00000000000E+00 0.  1.
         -1   -1    0    0    0  501 -0.00000000000E+00 -0.00000000000E+00 -0.77935562670E+02  0.77935562670E+02  0.00000000000E+00 0.  1.
         23    2    1    2    0    0  0.70484350354E+02 -0.34278993895E+02  0.74880617333E+02  0.14227697185E+03  0.92154960798E+02 0.  0.
         24    2    1    2    0    0  0.15528075322E+02  0.71884009498E+02  0.80300062972E+02  0.13575143422E+03  0.81067378372E+02 0.  0.
        -13    1    4    4    0    0  0.29662535849E+02  0.26365520684E+02  0.78608950810E+02  0.88058922668E+02  0.00000000000E+00 0.  1.
         14    1    4    4    0    0 -0.14134460528E+02  0.45518488814E+02  0.16911121621E+01  0.47692511557E+02  0.00000000000E+00 0. -1.
        -13    1    3    3    0    0 -0.10453897426E+02  0.20010790947E+02  0.74895837071E+01  0.23786752402E+02  0.00000000000E+00 0. -1.
         13    1    3    3    0    0  0.80938247780E+02 -0.54289784842E+02  0.67391033625E+02  0.11849021945E+03  0.00000000000E+00 0.  1.
         -2    1    1    2    0  502 -0.86012425676E+02 -0.37605015604E+02  0.11691300337E+03  0.14993640294E+03  0.00000000000E+00 0.  1.
<scales pt_clust_5="13000.00000" pt_clust_6="13000.00000" pt_clust_7="13000.00000" pt_clust_8="13000.00000" pt_clust_9="13000.00000"></scales>
<clustering>
<clus scale="   81.067">  5  6 -1 -1</clus>
<clus scale="   92.155">  7  8 -1 -1</clus>
<clus scale="   93.874">  5  9 -1 -1</clus>
<clus scale="  120.978">  2  7  1 -1</clus>
<clus scale="  206.699">  1  5  2 -1</clus>
</clustering>
</event>
<event>
 9    2  0.6085395E-005  0.1671434E+03  0.7546771E-02  0.1197341E+00
         -3   -1    0    0    0  501 -0.00000000000E+00  0.00000000000E+00  0.19308306101E+03  0.19308306101E+03  0.00000000000E+00 0.  1.
         21   -1    0    0  501  502  0.00000000000E+00 -0.00000000000E+00 -0.10487286326E+03  0.10487286326E+03  0.00000000000E+00 0.  1.
         23    2    1    2    0    0  0.39491188887E+02 -0.58228905429E+02  0.21745295273E+02  0.11808239213E+03  0.92306197184E+02 0.  0.
         24    2    1    2    0    0 -0.84181056520E+01  0.13124707222E+02 -0.13341212509E+02  0.83080241108E+02  0.80506000204E+02 0.  0.
        -11    1    4    4    0    0 -0.40523097922E+00  0.32410797714E+02 -0.38535908485E+02  0.50355141379E+02  0.00000000000E+00 0.  1.
         12    1    4    4    0    0 -0.80128746728E+01 -0.19286090491E+02  0.25194695975E+02  0.32725099729E+02  0.00000000000E+00 0. -1.
        -11    1    3    3    0    0 -0.26039663020E+02  0.32072481865E+01  0.50669949075E+01  0.26721244891E+02  0.00000000000E+00 0. -1.
         11    1    3    3    0    0  0.65530851906E+02 -0.61436153616E+02  0.16678300365E+02  0.91361147244E+02  0.00000000000E+00 0.  1.
         -4    1    1    2    0  502 -0.31073083235E+02  0.45104198207E+02  0.79806114995E+02  0.96793291029E+02  0.00000000000E+00 0.  1.
<scales pt_clust_5="13000.00000" pt_clust_6="13000.00000" pt_clust_7="13000.00000" pt_clust_8="13000.00000" pt_clust_9="13000.00000"></scales>
<clustering>
<clus scale="   80.506">  5  6 -1 -1</clus>
<clus scale="   54.772">  5  9 -1 -1</clus>
<clus scale="   92.306">  7  8 -1 -1</clus>
<clus scale="  116.063">  1  7  2 -1</clus>
<clus scale="  167.143">  2  5  1 -1</clus>
</clustering>
</event>
<event>
 9    2  0.6085395E-005  0.3666287E+03  0.7546771E-02  0.1074291E+00
          2   -1    0    0  502    0 -0.00000000000E+00  0.00000000000E+00  0.12406068502E+03  0.12406068502E+03  0.00000000000E+00 0. -1.
         21   -1    0    0  501  502  0.00000000000E+00 -0.00000000000E+00 -0.71596365138E+03  0.71596365138E+03  0.00000000000E+00 0. -1.
         23    2    1    2    0    0 -0.15349413101E+03 -0.13152757366E+03 -0.29372357253E+03  0.36744884908E+03  0.88798472602E+02 0.  0.
         24    2    1    2    0    0 -0.61368139950E+02  0.57491313008E+02 -0.18691389435E+03  0.21953957139E+03  0.78673501483E+02 0.  0.
        -11    1    4    4    0    0 -0.38162411859E+02  0.36790220535E+02 -0.32835405190E+02  0.62354260800E+02  0.00000000000E+00 0.  1.
         12    1    4    4    0    0 -0.23205728091E+02  0.20701092473E+02 -0.15407848916E+03  0.15718531059E+03  0.00000000000E+00 0. -1.
        -13    1    3    3    0    0 -0.91225950373E+02 -0.23160001596E+02 -0.14888509009E+03  0.17614008558E+03  0.00000000000E+00 0.  1.
         13    1    3    3    0    0 -0.62268180642E+02 -0.10836757206E+03 -0.14483848244E+03  0.19130876350E+03  0.00000000000E+00 0. -1.
          1    1    1    2  501    0  0.21486227096E+03  0.74036260653E+02 -0.11126549948E+03  0.25303591593E+03  0.00000000000E+00 0. -1.
<scales pt_clust_5="13000.00000" pt_clust_6="13000.00000" pt_clust_7="13000.00000" pt_clust_8="13000.00000" pt_clust_9="13000.00000"></scales>
<clustering>
<clus scale="   78.674">  5  6 -1 -1</clus>
<clus scale="   88.798">  7  8 -1 -1</clus>
<clus scale="  220.783">  1  7  2 -1</clus>
<clus scale="   95.898">  5  9 -1 -1</clus>
<clus scale="  366.629">  2  5  1 -1</clus>
</clustering>
</event>
<event>
 9    2  0.6085395E-005  0.1702560E+03  0.7546771E-02  0.1198004E+00
         21   -1    0    0  501  502  0.00000000000E+00  0.00000000000E+00  0.30149960879E+03  0.30149960879E+03  0.00000000000E+00 0.  1.
         -1   -1    0    0    0  501 -0.00000000000E+00 -0.00000000000E+00 -0.97890833357E+02  0.97890833357E+02  0.00000000000E+00 0.  1.
         23    2    1    2    0    0  0.26831811750E+01 -0.60797374754E+02 -0.28128835276E+02  0.11183273513E+03  0.89508709265E+02 0.  0.
         24    2    1    2    0    0  0.11311569815E+02 -0.22351961720E+02  0.10028045755E+03  0.13138265034E+03  0.81102828800E+02 0.  0.
        -11    1    4    4    0    0  0.23132637096E+02 -0.31299414884E+01  0.10564046242E+03  0.10818882906E+03  0.00000000000E+00 0.  1.
         12    1    4    4    0    0 -0.11821067281E+02 -0.19222020231E+02 -0.53600048690E+01  0.23193821282E+02  0.00000000000E+00 0. -1.
        -13    1    3    3    0    0  0.25178588520E+02 -0.46897611354E+02  0.20045124048E+02  0.56878416544E+02  0.00000000000E+00 0. -1.
         13    1    3    3    0    0 -0.22495407345E+02 -0.13899763401E+02 -0.48173959324E+02  0.54954318585E+02  0.00000000000E+00 0.  1.
         -2    1    1    2    0  502 -0.13994750990E+02  0.83149336474E+02  0.13145715316E+03  0.15617505667E+03  0.00000000000E+00 0.  1.
<scales pt_clust_5="13000.00000" pt_clust_6="13000.00000" pt_clust_7="13000.00000" pt_clust_8="13000.00000" pt_clust_9="13000.00000"></scales>
<clustering>
<clus scale="   81.103">  5  6 -1 -1</clus>
<clus scale="   84.319">  5  9 -1 -1</clus>
<clus scale="   89.509">  7  8 -1 -1</clus>
<clus scale="  108.237">  2  7  1 -1</clus>
<clus scale="  170.256">  1  5  2 -1</clus>
</clustering>
</event>
<event>
 9    2  0.6085395E-005  0.5691556E+03  0.7546771E-02  0.1056251E+00
         21   -1    0    0  501  502  0.00000000000E+00  0.00000000000E+00  0.31986907482E+03  0.31986907482E+03  0.00000000000E+00 0.  1.
         -1   -1    0    0    0  501 -0.00000000000E+00 -0.00000000000E+00 -0.34913013548E+03  0.34913013548E+03  0.00000000000E+00 0.  1.
         23    2    1    2    0    0  0.19961628116E+02  0.22977295046E+02  0.13643538952E+02  0.98228761192E+02  0.92392211173E+02 0.  0.
         24    2    1    2    0    0 -0.83385270572E+02  0.44281159708E+01 -0.29140907126E+03  0.31284005655E+03  0.77310688832E+02 0.  0.
        -11    1    4    4    0    0 -0.67467786359E+02 -0.31124637743E+02 -0.20524388369E+03  0.21827894324E+03  0.00000000000E+00 0.  1.
         12    1    4    4    0    0 -0.15917484214E+02  0.35552753713E+02 -0.86165187568E+02  0.94561113302E+02  0.00000000000E+00 0. -1.
        -11    1    3    3    0    0  0.56760222138E+02  0.91812422954E+01  0.12873434975E+02  0.58921501638E+02  0.00000000000E+00 0. -1.
         11    1    3    3    0    0 -0.36798594022E+02  0.13796052751E+02  0.77010397706E+00  0.39307259554E+02  0.00000000000E+00 0.  1.
         -2    1    1    2    0  502  0.63423642457E+02 -0.27405411017E+02  0.24850447165E+03  0.25793039256E+03  0.00000000000E+00 0.  1.
<scales pt_clust_5="13000.00000" pt_clust_6="13000.00000" pt_clust_7="13000.00000" pt_clust_8="13000.00000" pt_clust_9="13000.00000"></scales>
<clustering>
<clus scale="   77.311">  5  6 -1 -1</clus>
<clus scale="   69.091">  5  9 -1 -1</clus>
<clus scale="   92.392">  7  8 -1 -1</clus>
<clus scale="   97.277">  2  7  1 -1</clus>
<clus scale="  569.156">  1  5  2 -1</clus>
</clustering>
</event>
<event>
 9    2  0.6085395E-005  0.1726283E+03  0.7546771E-02  0.1197944E+00
         21   -1    0    0  501  502  0.00000000000E+00  0.00000000000E+00  0.32713103659E+03  0.32713103659E+03  0.00000000000E+00 0.  1.
         -1   -1    0    0    0  501 -0.00000000000E+00 -0.00000000000E+00 -0.61000414943E+02  0.61000414943E+02  0.00000000000E+00 0.  1.
         23    2    1    2    0    0  0.19710243724E+02  0.41939750219E+02  0.63055956497E+02  0.12159844308E+03  0.93073580318E+02 0.  0.
         24    2    1    2    0    0 -0.75542645271E+02 -0.44297246759E+02  0.13643860747E+03  0.17956646871E+03  0.77199000968E+02 0.  0.
        -11    1    4    4    0    0 -0.33904760617E+02 -0.61691371264E+02  0.95482381572E+02  0.11862648638E+03  0.00000000000E+00 0.  1.
         12    1    4    4    0    0 -0.41637884654E+02  0.17394124505E+02  0.40956225899E+02  0.60939982324E+02  0.00000000000E+00 0. -1.
        -11    1    3    3    0    0  0.27658690595E+02  0.63293822242E+02  0.69431427355E+02  0.97937909943E+02  0.00000000000E+00 0. -1.
         11    1    3    3    0    0 -0.79484468706E+01 -0.21354072023E+02 -0.63754708576E+01  0.23660533136E+02  0.00000000000E+00 0.  1.
         -2    1    1    2    0  502  0.55832401547E+02  0.23574965395E+01  0.66636057676E+02  0.86966539743E+02  0.00000000000E+00 0.  1.
<scales pt_clust_5="13000.00000" pt_clust_6="13000.00000" pt_clust_7="13000.00000" pt_clust_8="13000.00000" pt_clust_9="13000.00000"></scales>
<clustering>
<clus scale="   77.199">  5  6 -1 -1</clus>
<clus scale="   55.882">  5  9 -1 -1</clus>
<clus scale="   93.074">  7  8 -1 -1</clus>
<clus scale="  103.972">  2  7  1 -1</clus>
<clus scale="  172.628">  1  5  2 -1</clus>
</clustering>
</event>
<event>
 9    2  0.6085395E-005  0.4453785E+03  0.7546771E-02  0.1086223E+00
         -1   -1    0    0    0  501 -0.00000000000E+00  0.00000000000E+00  0.15404223387E+03  0.15404223387E+03  0.00000000000E+00 0.  1.
         21   -1    0    0  501  502  0.00000000000E+00 -0.00000000000E+00 -0.49449409336E+03  0.49449409336E+03  0.00000000000E+00 0.  1.
         23    2    1    2    0    0 -0.21091275192E+01 -0.32825069695E+02 -0.23222595373E+01  0.89346195175E+02  0.83038642110E+02 0.  0.
         24    2    1    2    0    0 -0.13217575697E+03  0.16906764079E+03 -0.27450763013E+03  0.35759096681E+03  0.80390065623E+02 0.  0.
        -11    1    4    4    0    0 -0.12065235007E+03  0.13375614544E+03 -0.26286974889E+03  0.31866628454E+03  0.00000000000E+00 0.  1.
         12    1    4    4    0    0 -0.11523406903E+02  0.35311495348E+02 -0.11637881247E+02  0.38924682276E+02  0.00000000000E+00 0. -1.
        -13    1    3    3    0    0  0.20143507799E+02  0.11368551159E+02 -0.25739052925E+02  0.34604966514E+02  0.00000000000E+00 0.  1.
         13    1    3    3    0    0 -0.22252635319E+02 -0.44193620854E+02  0.23416793388E+02  0.54741228661E+02  0.00000000000E+00 0. -1.
         -2    1    1    2    0  502  0.13428488449E+03 -0.13624257110E+03 -0.63621969815E+02  0.20159916524E+03  0.00000000000E+00 0.  1.
<scales pt_clust_5="13000.00000" pt_clust_6="13000.00000" pt_clust_7="13000.00000" pt_clust_8="13000.00000" pt_clust_9="13000.00000"></scales>
<clustering>
<clus scale="   80.390">  5  6 -1 -1</clus>
<clus scale="   83.039">  7  8 -1 -1</clus>
<clus scale="   89.316">  1  7  2 -1</clus>
<clus scale="  205.536">  5  9 -1 -1</clus>
<clus scale="  445.378">  2  5  1 -1</clus>
</clustering>
</event>
<event>
 9    2  0.6085395E-005  0.9919608E+03  0.7546771E-02  0.9772731E-01
         21   -1    0    0  501  502  0.00000000000E+00  0.00000000000E+00  0.34212247591E+03  0.34212247591E+03  0.00000000000E+00 0. -1.
          2   -1    0    0  502    0 -0.00000000000E+00 -0.00000000000E+00 -0.10461857325E+04  0.10461857325E+04  0.00000000000E+00 0. -1.
         23    2    1    2    0    0  0.17433840120E+03  0.60058650391E+02 -0.11865120673E+03  0.23648638940E+03  0.88582074327E+02 0.  0.
         24    2    1    2    0    0 -0.39529796571E+03 -0.37046499650E+03 -0.53803509746E+03  0.76786895153E+03  0.81462662034E+02 0.  0.
        -11    1    4    4    0    0 -0.12648940100E+03 -0.12768412947E+03 -0.23338369567E+03  0.29456876088E+03  0.00000000000E+00 0.  1.
         12    1    4    4    0    0 -0.26880856471E+03 -0.24278086703E+03 -0.30465140179E+03  0.47330019065E+03  0.00000000000E+00 0. -1.
        -11    1    3    3    0    0  0.61427400762E+02  0.67629282324E+02 -0.50666794220E+02  0.10447090231E+03  0.00000000000E+00 0.  1.
         11    1    3    3    0    0  0.11291100044E+03 -0.75706319329E+01 -0.67984412514E+02  0.13201548709E+03  0.00000000000E+00 0. -1.
          1    1    1    2  501    0  0.22095956451E+03  0.31040634611E+03 -0.47376952431E+02  0.38395286751E+03  0.00000000000E+00 0. -1.
<scales pt_clust_5="13000.00000" pt_clust_6="13000.00000" pt_clust_7="13000.00000" pt_clust_8="13000.00000" pt_clust_9="13000.00000"></scales>
<clustering>
<clus scale="   81.463">  5  6 -1 -1</clus>
<clus scale="   88.582">  7  8 -1 -1</clus>
<clus scale="  204.567">  2  7  1 -1</clus>
<clus scale="  419.115">  5  9 -1 -1</clus>
<clus scale="  991.961">  1  5  2 -1</clus>
</clustering>
</event>
<event>
 9    2  0.6085395E-005  0.1419956E+03  0.7546771E-02  0.1229207E+00
         -1   -1    0    0    0  501 -0.00000000000E+00  0.00000000000E+00  0.83116802838E+02  0.83116802838E+02  0.00000000000E+00 0.  1.
         21   -1    0    0  501  502  0.00000000000E+00 -0.00000000000E+00 -0.19272777804E+03  0.19272777804E+03  0.00000000000E+00 0. -1.
         23    2    1    2    0    0  0.28157689138E+02 -0.87515093083E+01 -0.91373765287E+02  0.13268261743E+03  0.91575474949E+02 0.  0.
         24    2    1    2    0    0  0.23758950840E+00  0.15467469602E+02 -0.52151997455E+02  0.98422620750E+02  0.82023669584E+02 0.  0.
        -11    1    4    4    0    0  0.17343362585E+01 -0.25825802660E+02 -0.50876695629E+02  0.57082555684E+02  0.00000000000E+00 0.  1.
         12    1    4    4    0    0 -0.14967467501E+01  0.41293272262E+02 -0.12753018266E+01  0.41340065066E+02  0.00000000000E+00 0. -1.
        -13    1    3    3    0    0  0.69946194067E+00  0.31796739028E+02 -0.74300219753E+02  0.80821064799E+02  0.00000000000E+00 0. -1.
         13    1    3    3    0    0  0.27458227198E+02 -0.40548248337E+02 -0.17073545533E+02  0.51861552629E+02  0.00000000000E+00 0.  1.
         -2    1    1    2    0  502 -0.28395278647E+02 -0.67159602932E+01  0.33914787535E+02  0.44739342704E+02  0.00000000000E+00 0.  1.
<scales pt_clust_5="13000.00000" pt_clust_6="13000.00000" pt_clust_7="13000.00000" pt_clust_8="13000.00000" pt_clust_9="13000.00000"></scales>
<clustering>
<clus scale="   82.024">  5  6 -1 -1</clus>
<clus scale="   29.179">  5  9 -1 -1</clus>
<clus scale="   91.575">  7  8 -1 -1</clus>
<clus scale="   96.206">  1  7  2 -1</clus>
<clus scale="  141.996">  2  5  1 -1</clus>
</clustering>
</event>
<event>
 9    2  0.6085395E-005  0.2492798E+03  0.7546771E-02  0.1151036E+00
         21   -1    0    0  501  502  0.00000000000E+00  0.00000000000E+00  0.18085229251E+03  0.18085229251E+03  0.00000000000E+00 0.  1.
         -1   -1    0    0    0  501 -0.00000000000E+00 -0.00000000000E+00 -0.16966295308E+03  0.16966295308E+03  0.00000000000E+00 0.  1.
         23    2    1    2    0    0  0.92704276712E+01  0.38999925670E+02 -0.80854848559E+01  0.10049135459E+03  0.91794347590E+02 0.  0.
         24    2    1    2    0    0 -0.39026597047E+02  0.76796971134E+02 -0.76560477784E+00  0.12879695620E+03  0.95745598976E+02 0.  0.
        -11    1    4    4    0    0 -0.33586121178E+02  0.58315765593E+02  0.43766536223E+02  0.80276184173E+02  0.00000000000E+00 0.  1.
         12    1    4    4    0    0 -0.54404758689E+01  0.18481205541E+02 -0.44532141001E+02  0.48520772026E+02  0.00000000000E+00 0. -1.
        -13    1    3    3    0    0  0.41419315586E+01 -0.28072219855E+02  0.11210879231E+02  0.30510472591E+02  0.00000000000E+00 0. -1.
         13    1    3    3    0    0  0.51284961126E+01  0.67072145524E+02 -0.19296364087E+02  0.69980881994E+02  0.00000000000E+00 0.  1.
         -2    1    1    2    0  502  0.29756169376E+02 -0.11579689680E+03  0.20040429071E+02  0.12122693481E+03  0.00000000000E+00 0.  1.
<scales pt_clust_5="13000.00000" pt_clust_6="13000.00000" pt_clust_7="13000.00000" pt_clust_8="13000.00000" pt_clust_9="13000.00000"></scales>
<clustering>
<clus scale="   91.794">  7  8 -1 -1</clus>
<clus scale="   95.746">  5  6 -1 -1</clus>
<clus scale="  100.166">  2  7  1 -1</clus>
<clus scale="  104.329">  5  9 -1 -1</clus>
<clus scale="  249.280">  1  5  2 -1</clus>
</clustering>
</event>
<event>
 9    2  0.6085395E-005  0.2243255E+03  0.7546771E-02  0.1163470E+00
          2   -1    0    0  502    0 -0.00000000000E+00  0.00000000000E+00  0.64374045776E+03  0.64374045776E+03  0.00000000000E+00 0. -1.
         21   -1    0    0  501  502  0.00000000000E+00 -0.00000000000E+00 -0.45044584463E+02  0.45044584463E+02  0.00000000000E+00 0. -1.
         23    2    1    2    0    0 -0.38744670427E+01 -0.28349650835E+01  0.10710400194E+03  0.14842915853E+03  0.10264940014E+03 0.  0.
         24    2    1    2    0    0  0.61490704672E+02 -0.59803269410E+01  0.94115071139E+02  0.13862818123E+03  0.80890388458E+02 0.  0.
        -11    1    4    4    0    0 -0.12751919852E+00  0.20983477098E+02  0.59277185341E+02  0.62881692680E+02  0.00000000000E+00 0.  1.
         12    1    4    4    0    0  0.61618223870E+02 -0.26963804039E+02  0.34837885797E+02  0.75746488552E+02  0.00000000000E+00 0. -1.
        -13    1    3    3    0    0  0.31728433816E+02  0.13915435456E+02  0.10323433497E+03  0.10889288670E+03  0.00000000000E+00 0.  1.
         13    1    3    3    0    0 -0.35602900859E+02 -0.16750400540E+02  0.38696669649E+01  0.39536271830E+02  0.00000000000E+00 0. -1.
          1    1    1    2  501    0 -0.57616237629E+02  0.88152920245E+01  0.39747680022E+03  0.40172770246E+03  0.00000000000E+00 0. -1.
<scales pt_clust_5="13000.00000" pt_clust_6="13000.00000" pt_clust_7="13000.00000" pt_clust_8="13000.00000" pt_clust_9="13000.00000"></scales>
<clustering>
<clus scale="   80.890">  5  6 -1 -1</clus>
<clus scale="   58.287">  5  9 -1 -1</clus>
<clus scale="  102.649">  7  8 -1 -1</clus>
<clus scale="  102.762">  1  7  2 -1</clus>
<clus scale="  224.325">  2  5  1 -1</clus>
</clustering>
</event>
<event>
 9    2  0.6085395E-005  0.2802469E+03  0.7546771E-02  0.1130825E+00
         21   -1    0    0  501  502  0.00000000000E+00  0.00000000000E+00  0.35589234861E+02  0.35589234861E+02  0.00000000000E+00 0. -1.
          2   -1    0    0  502    0 -0.00000000000E+00 -0.00000000000E+00 -0.11575866451E+04  0.11575866451E+04  0.00000000000E+00 0. -1.
         23    2    1    2    0    0  0.62947090823E+02 -0.35074591613E+02 -0.21245108367E+03  0.24143388810E+03  0.89231699260E+02 0.  0.
         24    2    1    2    0    0  0.43057600039E+02  0.97414967787E+01 -0.11627786722E+03  0.15102131099E+03  0.85662362131E+02 0.  0.
        -13    1    4    4    0    0 -0.66912504902E+01 -0.28965595605E+02 -0.58002618597E+02  0.65177314504E+02  0.00000000000E+00 0.  1.
         14    1    4    4    0    0  0.49748850529E+02  0.38707092384E+02 -0.58275248626E+02  0.85843996483E+02  0.00000000000E+00 0. -1.
        -11    1    3    3    0    0  0.21108317440E+02  0.21777611282E+02 -0.19702262847E+02  0.36166345953E+02  0.00000000000E+00 0.  1.
         11    1    3    3    0    0  0.41838773383E+02 -0.56852202896E+02 -0.19274882082E+03  0.20526754215E+03  0.00000000000E+00 0. -1.
          1    1    1    2  501    0 -0.10600469086E+03  0.25333094835E+02 -0.79326845937E+03  0.80072068090E+03  0.00000000000E+00 0. -1.
<scales pt_clust_5="13000.00000" pt_clust_6="13000.00000" pt_clust_7="13000.00000" pt_clust_8="13000.00000" pt_clust_9="13000.00000"></scales>
<clustering>
<clus scale="   85.662">  5  6 -1 -1</clus>
<clus scale="   89.232">  7  8 -1 -1</clus>
<clus scale="  108.990">  5  9 -1 -1</clus>
<clus scale="  114.695">  2  7  1 -1</clus>
<clus scale="  280.247">  1  5  2 -1</clus>
</clustering>
</event>
<event>
 9    2  0.6085395E-005  0.3844280E+03  0.7546771E-02  0.1058763E+00
         21   -1    0    0  501  502  0.00000000000E+00  0.00000000000E+00  0.25598247816E+03  0.25598247816E+03  0.00000000000E+00 0. -1.
          2   -1    0    0  502    0 -0.00000000000E+00 -0.00000000000E+00 -0.44972806536E+03  0.44972806536E+03  0.00000000000E+00 0. -1.
         23    2    1    2    0    0  0.92630173536E+02 -0.26312210428E+03 -0.82656871870E+02  0.30555356529E+03  0.93366117959E+02 0.  0.
         24    2    1    2    0    0 -0.20826303955E+02 -0.37851962437E+01  0.32363906749E+02  0.88750559640E+02  0.79882267928E+02 0.  0.
        -13    1    4    4    0    0  0.30065280153E+02 -0.50221317349E+01  0.19695695569E+02  0.36291366766E+02  0.00000000000E+00 0.  1.
         14    1    4    4    0    0 -0.50891584108E+02  0.12369354912E+01  0.12668211181E+02  0.52459192874E+02  0.00000000000E+00 0. -1.
        -11    1    3    3    0    0  0.64244730657E+01 -0.12355305733E+03 -0.44004400132E+01  0.12379820556E+03  0.00000000000E+00 0. -1.
         11    1    3    3    0    0  0.86205700470E+02 -0.13956904696E+03 -0.78256431857E+02  0.18175535973E+03  0.00000000000E+00 0.  1.
          1    1    1    2  501    0 -0.71803869581E+02  0.26690730053E+03 -0.14345262207E+03  0.31140641859E+03  0.00000000000E+00 0. -1.
<scales pt_clust_5="13000.00000" pt_clust_6="13000.00000" pt_clust_7="13000.00000" pt_clust_8="13000.00000" pt_clust_9="13000.00000"></scales>
<clustering>
<clus scale="   79.882">  5  6 -1 -1</clus>
<clus scale="   93.366">  7  8 -1 -1</clus>
<clus scale="  276.397">  5  9 -1 -1</clus>
<clus scale="  294.161">  2  7  1 -1</clus>
<clus scale="  384.428">  1  5  2 -1</clus>
</clustering>
</event>
<event>
 9    2  0.6085395E-005  0.1578816E+03  0.7546771E-02  0.1209136E+00
         21   -1    0    0  501  502  0.00000000000E+00  0.00000000000E+00  0.34355493546E+03  0.34355493546E+03  0.00000000000E+00 0. -1.
          2   -1    0    0  502    0 -0.00000000000E+00 -0.00000000000E+00 -0.19133263468E+03  0.19133263468E+03  0.00000000000E+00 0. -1.
         23    2    1    2    0    0 -0.35502436478E+02 -0.43207310661E+02 -0.15574396704E+03  0.18880979649E+03  0.90915682321E+02 0.  0.
         24    2    1    2    0    0  0.17484496527E+02 -0.19758090645E+01  0.27522243301E+03  0.28744059103E+03  0.81025269484E+02 0.  0.
        -13    1    4    4    0    0  0.46106890273E+02 -0.59418324172E+00  0.10299843352E+03  0.11284890647E+03  0.00000000000E+00 0.  1.
         14    1    4    4    0    0 -0.28622393746E+02 -0.13816258228E+01  0.17222399950E+03  0.17459168456E+03  0.00000000000E+00 0. -1.
        -11    1    3    3    0    0 -0.31559184897E+02  0.20712395400E+02 -0.87112857022E+02  0.94940167122E+02  0.00000000000E+00 0.  1.
         11    1    3    3    0    0 -0.39432515814E+01 -0.63919706061E+02 -0.68631110018E+02  0.93869629371E+02  0.00000000000E+00 0. -1.
          1    1    1    2  501    0  0.18017939951E+02  0.45183119726E+02  0.32743834801E+02  0.58637182621E+02  0.00000000000E+00 0. -1.
<scales pt_clust_5="13000.00000" pt_clust_6="13000.00000" pt_clust_7="13000.00000" pt_clust_8="13000.00000" pt_clust_9="13000.00000"></scales>
<clustering>
<clus scale="   81.025">  5  6 -1 -1</clus>
<clus scale="   48.643">  5  9 -1 -1</clus>
<clus scale="   90.916">  7  8 -1 -1</clus>
<clus scale="  106.738">  2  7  1 -1</clus>
<clus scale="  157.882">  1  5  2 -1</clus>
</clustering>
</event>
<event>
 9    2  0.6085395E-005  0.2086900E+03  0.7546771E-02  0.1146138E+00
         -3   -1    0    0    0  501 -0.00000000000E+00  0.00000000000E+00  0.16828832805E+03  0.16828832805E+03  0.00000000000E+00 0.  1.
         21   -1    0    0  501  502  0.00000000000E+00 -0.00000000000E+00 -0.26888630707E+03  0.26888630707E+03  0.00000000000E+00 0.  1.
         23    2    1    2    0    0  0.34899802405E+02 -0.14652915826E+03 -0.12214389341E+03  0.22737531703E+03  0.11870810280E+03 0.  0.
         24    2    1    2    0    0 -0.24153734053E+02  0.49626256113E+02 -0.24459155274E+02  0.10199339588E+03  0.82208481084E+02 0.  0.
        -13    1    4    4    0    0 -0.18339090847E+02  0.63679060372E+02 -0.42248479301E+02  0.78589305800E+02  0.00000000000E+00 0.  1.
         14    1    4    4    0    0 -0.58146432062E+01 -0.14052804259E+02  0.17789324027E+02  0.23404090080E+02  0.00000000000E+00 0. -1.
        -13    1    3    3    0    0  0.41917897293E+01 -0.15420549415E+03 -0.12037899743E+03  0.19567321879E+03  0.00000000000E+00 0.  1.
         13    1    3    3    0    0  0.30708012675E+02  0.76763358935E+01 -0.17648959782E+01  0.31702098243E+02  0.00000000000E+00 0. -1.
         -4    1    1    2    0  502 -0.10746068351E+02  0.96902902145E+02  0.46005069666E+02  0.10780592221E+03  0.00000000000E+00 0.  1.
<scales pt_clust_5="13000.00000" pt_clust_6="13000.00000" pt_clust_7="13000.00000" pt_clust_8="13000.00000" pt_clust_9="13000.00000"></scales>
<clustering>
<clus scale="   82.208">  5  6 -1 -1</clus>
<clus scale="   97.497">  5  9 -1 -1</clus>
<clus scale="  118.708">  7  8 -1 -1</clus>
<clus scale="  191.782">  1  7  2 -1</clus>
<clus scale="  208.690">  2  5  1 -1</clus>
</clustering>
</event>
<event>
 9    2  0.6085395E-005  0.1708962E+03  0.7546771E-02  0.1195474E+00
         21   -1    0    0  501  502  0.00000000000E+00  0.00000000000E+00  0.61627019778E+02  0.61627019778E+02  0.00000000000E+00 0. -1.
          2   -1    0    0  502    0 -0.00000000000E+00 -0.00000000000E+00 -0.35435365997E+03  0.35435365997E+03  0.00000000000E+00 0. -1.
         23    2    1    2    0    0 -0.25215885155E+02  0.62061593271E+02 -0.17532827397E+03  0.20864550498E+03  0.91134301290E+02 0.  0.
         24    2    1    2    0    0  0.57882670311E+02 -0.31592882692E+01 -0.94278645163E+02  0.13612336473E+03  0.79251011774E+02 0.  0.
        -11    1    4    4    0    0  0.51593450008E+02  0.18179972422E+01 -0.10829708111E+03  0.11997269262E+03  0.00000000000E+00 0.  1.
         12    1    4    4    0    0  0.62892203037E+01 -0.49772855114E+01  0.14018435949E+02  0.16150672108E+02  0.00000000000E+00 0. -1.
        -13    1    3    3    0    0 -0.37767631883E+01  0.68491080358E+02 -0.59901175299E+02  0.91068341541E+02  0.00000000000E+00 0.  1.
         13    1    3    3    0    0 -0.21439121967E+02 -0.64294870868E+01 -0.11542709867E+03  0.11757716344E+03  0.00000000000E+00 0. -1.
          1    1    1    2  501    0 -0.32666785156E+02 -0.58902305002E+02 -0.23119721061E+02  0.71211810038E+02  0.00000000000E+00 0. -1.
<scales pt_clust_5="13000.00000" pt_clust_6="13000.00000" pt_clust_7="13000.00000" pt_clust_8="13000.00000" pt_clust_9="13000.00000"></scales>
<clustering>
<clus scale="   79.251">  5  6 -1 -1</clus>
<clus scale="   67.354">  5  9 -1 -1</clus>
<clus scale="   91.134">  7  8 -1 -1</clus>
<clus scale="  113.106">  2  7  1 -1</clus>
<clus scale="  170.896">  1  5  2 -1</clus>
</clustering>
</event>
<event>
 9    2  0.6085395E-005  0.6496460E+03  0.7546771E-02  0.1043627E+00
         -3   -1    0    0    0  501 -0.00000000000E+00  0.00000000000E+00  0.26629382869E+03  0.26629382869E+03  0.00000000000E+00 0.  1.
         21   -1    0    0  501  502  0.00000000000E+00 -0.00000000000E+00 -0.10283422281E+04  0.10283422281E+04  0.00000000000E+00 0.  1.
         23    2    1    2    0    0 -0.10871534545E+01  0.20937753425E+02  0.14877641881E+03  0.17586808554E+03  0.91408912571E+02 0.  0.
         24    2    1    2    0    0  0.16631018769E+03  0.24064395215E+03 -0.26703630349E+03  0.40449401020E+03  0.82087920371E+02 0.  0.
        -11    1    4    4    0    0  0.11923209586E+03  0.10045679907E+03 -0.13988405170E+03  0.20946457716E+03  0.00000000000E+00 0.  1.
         12    1    4    4    0    0  0.47078091834E+02  0.14018715308E+03 -0.12715225179E+03  0.19502943305E+03  0.00000000000E+00 0. -1.
        -13    1    3    3    0    0  0.34011596522E+02  0.36834406078E+02  0.11151776770E+03  0.12226927121E+03  0.00000000000E+00 0. -1.
         13    1    3    3    0    0 -0.35098749977E+02 -0.15896652654E+02  0.37258651112E+02  0.53598814336E+02  0.00000000000E+00 0.  1.
         -4    1    1    2    0  502 -0.16522303424E+03 -0.26158170557E+03 -0.64378851476E+03  0.71427396107E+03  0.00000000000E+00 0.  1.
<scales pt_clust_5="13000.00000" pt_clust_6="13000.00000" pt_clust_7="13000.00000" pt_clust_8="13000.00000" pt_clust_9="13000.00000"></scales>
<clustering>
<clus scale="   82.088">  5  6 -1 -1</clus>
<clus scale="   91.409">  7  8 -1 -1</clus>
<clus scale="   93.783">  1  7  2 -1</clus>
<clus scale="  303.617">  5  9 -1 -1</clus>
<clus scale="  649.646">  2  5  1 -1</clus>
</clustering>
</event>
<event>
 9    2  0.6085395E-005  0.1347918E+03  0.7546771E-02  0.1233014E+00
         -3   -1    0    0    0  501 -0.00000000000E+00  0.00000000000E+00  0.33838130253E+03  0.33838130253E+03  0.00000000000E+00 0.  1.
         21   -1    0    0  501  502  0.00000000000E+00 -0.00000000000E+00 -0.95855850174E+02  0.95855850174E+02  0.00000000000E+00 0. -1.
         23    2    1    2    0    0  0.48456513171E+02 -0.13717165773E+02  0.27635106466E+03  0.29526595737E+03  0.90971865646E+02 0.  0.
         24    2    1    2    0    0  0.33712123008E+01  0.23839831006E+01 -0.93473335471E+01  0.80543973184E+02  0.79893119379E+02 0.  0.
        -11    1    4    4    0    0  0.27434875702E+02  0.31668535870E+02 -0.77285169334E+01  0.42606320457E+02  0.00000000000E+00 0.  1.
         12    1    4    4    0    0 -0.24063663401E+02 -0.29284552769E+02 -0.16188166136E+01  0.37937652727E+02  0.00000000000E+00 0. -1.
        -13    1    3    3    0    0  0.71082645528E+02 -0.38648944433E+01  0.14401642487E+03  0.16064996277E+03  0.00000000000E+00 0.  1.
         13    1    3    3    0    0 -0.22626132357E+02 -0.98522713295E+01  0.13233463979E+03  0.13461599461E+03  0.00000000000E+00 0. -1.
         -4    1    1    2    0  502 -0.51827725472E+02  0.11333182672E+02 -0.24478278756E+02  0.58427222147E+02  0.00000000000E+00 0.  1.
<scales pt_clust_5="13000.00000" pt_clust_6="13000.00000" pt_clust_7="13000.00000" pt_clust_8="13000.00000" pt_clust_9="13000.00000"></scales>
<clustering>
<clus scale="   79.893">  5  6 -1 -1</clus>
<clus scale="   53.052">  5  9 -1 -1</clus>
<clus scale="   90.972">  7  8 -1 -1</clus>
<clus scale="  103.981">  1  7  2 -1</clus>
<clus scale="  134.792">  2  5  1 -1</clus>
</clustering>
</event>
<event>
 9    2  0.6085395E-005  0.4952566E+03  0.7546771E-02  0.1028090E+00
         -1   -1    0    0    0  501 -0.00000000000E+00  0.00000000000E+00  0.20599472605E+03  0.20599472605E+03  0.00000000000E+00 0.  1.
         21   -1    0    0  501  502  0.00000000000E+00 -0.00000000000E+00 -0.89465524422E+03  0.89465524422E+03  0.00000000000E+00 0.  1.
         23    2    1    2    0    0  0.69766520649E+02 -0.31395491155E+03 -0.42217839284E+03  0.53825172833E+03  0.89695450195E+02 0.  0.
         24    2    1    2    0    0 -0.63244808487E+02 -0.58995693363E+02 -0.35943846171E+02  0.12389786043E+03  0.81106856090E+02 0.  0.
        -11    1    4    4    0    0  0.15565539382E+02 -0.30245204683E+02 -0.45187615085E+01  0.34314393891E+02  0.00000000000E+00 0.  1.
         12    1    4    4    0    0 -0.78810347869E+02 -0.28750488681E+02 -0.31425084662E+02  0.89583466536E+02  0.00000000000E+00 0. -1.
        -13    1    3    3    0    0  0.48428040558E+02 -0.99988854605E+02 -0.92091629035E+02  0.14430493511E+03  0.00000000000E+00 0.  1.
         13    1    3    3    0    0  0.21338480091E+02 -0.21396605694E+03 -0.33008676380E+03  0.39394679323E+03  0.00000000000E+00 0. -1.
         -2    1    1    2    0  502 -0.65217121620E+01  0.37295060491E+03 -0.23053827916E+03  0.43850038151E+03  0.00000000000E+00 0.  1.
<scales pt_clust_5="13000.00000" pt_clust_6="13000.00000" pt_clust_7="13000.00000" pt_clust_8="13000.00000" pt_clust_9="13000.00000"></scales>
<clustering>
<clus scale="   81.107">  5  6 -1 -1</clus>
<clus scale="   89.695">  7  8 -1 -1</clus>
<clus scale="  333.887">  1  7  2 -1</clus>
<clus scale="  158.132">  5  9 -1 -1</clus>
<clus scale="  495.257">  2  5  1 -1</clus>
</clustering>
</event>
<event>
 9    2  0.6085395E-005  0.4899516E+03  0.7546771E-02  0.1060897E+00
          2   -1    0    0  502    0 -0.00000000000E+00  0.00000000000E+00  0.65609842185E+03  0.65609842185E+03  0.00000000000E+00 0. -1.
         21   -1    0    0  501  502  0.00000000000E+00 -0.00000000000E+00 -0.16859091526E+03  0.16859091526E+03  0.00000000000E+00 0. -1.
         23    2    1    2    0    0 -0.11448990129E+02  0.96032229164E+02  0.24227803386E+03  0.27679330774E+03  0.92534431995E+02 0.  0.
         24    2    1    2    0    0 -0.16178573654E+03  0.11767116074E+03  0.11550244099E+03  0.24374390929E+03  0.77776299896E+02 0.  0.
        -13    1    4    4    0    0 -0.58619637982E+02  0.21394016750E+02  0.73702476333E+02  0.96571325597E+02  0.00000000000E+00 0.  1.
         14    1    4    4    0    0 -0.10316609856E+03  0.96277143992E+02  0.41799964654E+02  0.14717258370E+03  0.00000000000E+00 0. -1.
        -13    1    3    3    0    0  0.39269539415E+02  0.39800867408E+02  0.78721413230E+02  0.96557064337E+02  0.00000000000E+00 0.  1.
         13    1    3    3    0    0 -0.50718529544E+02  0.56231361756E+02  0.16355662063E+03  0.18023624340E+03  0.00000000000E+00 0. -1.
          1    1    1    2  501    0  0.17323472667E+03 -0.21370338991E+03  0.12972703175E+03  0.30415212008E+03  0.00000000000E+00 0. -1.
<scales pt_clust_5="13000.00000" pt_clust_6="13000.00000" pt_clust_7="13000.00000" pt_clust_8="13000.00000" pt_clust_9="13000.00000"></scales>
<clustering>
<clus scale="   77.776">  5  6 -1 -1</clus>
<clus scale="   92.534">  7  8 -1 -1</clus>
<clus scale="  133.850">  1  7  2 -1</clus>
<clus scale="  232.067">  5  9 -1 -1</clus>
<clus scale="  489.952">  2  5  1 -1</clus>
</clustering>
</event>
<event>
 9    2  0.6085395E-005  0.2464814E+03  0.7546771E-02  0.1153122E+00
         -3   -1    0    0    0  501 -0.00000000000E+00  0.00000000000E+00  0.10420787344E+04  0.10420787344E+04  0.00000000000E+00 0.  1.
         21   -1    0    0  501  502  0.00000000000E+00 -0.00000000000E+00 -0.29117452860E+02  0.29117452860E+02  0.00000000000E+00 0.  1.
         23    2    1    2    0    0  0.89550298587E+01 -0.37960168826E+02  0.22733075790E+03  0.24780783484E+03  0.90599572537E+02 0.  0.
         24    2    1    2    0    0 -0.85658401946E+02 -0.69274133437E+01  0.64973992035E+03  0.66101668499E+03  0.85998504979E+02 0.  0.
        -11    1    4    4    0    0 -0.88630775746E+02  0.22563295194E+02  0.46414685597E+03  0.47307168654E+03  0.00000000000E+00 0.  1.
         12    1    4    4    0    0  0.29723738003E+01 -0.29490708538E+02  0.18559306438E+03  0.18794499845E+03  0.00000000000E+00 0. -1.
        -11    1    3    3    0    0  0.39990955779E+02 -0.84725936439E+01  0.17734359663E+03  0.18199399071E+03  0.00000000000E+00 0. -1.
         11    1    3    3    0    0 -0.31035925920E+02 -0.29487575182E+02  0.49987161263E+02  0.65813844128E+02  0.00000000000E+00 0.  1.
         -4    1    1    2    0  502  0.76703372087E+02  0.44887582170E+02  0.13589060331E+03  0.16237166745E+03  0.00000000000E+00 0.  1.
<scales pt_clust_5="13000.00000" pt_clust_6="13000.00000" pt_clust_7="13000.00000" pt_clust_8="13000.00000" pt_clust_9="13000.00000"></scales>
<clustering>
<clus scale="   85.999">  5  6 -1 -1</clus>
<clus scale="   88.872">  5  9 -1 -1</clus>
<clus scale="   90.600">  7  8 -1 -1</clus>
<clus scale="   98.638">  1  7  2 -1</clus>
<clus scale="  246.481">  2  5  1 -1</clus>
</clustering>
</event>
<event>
 9    2  0.6085395E-005  0.1170488E+03  0.7546771E-02  0.1251517E+00
         21   -1    0    0  501  502  0.00000000000E+00  0.00000000000E+00  0.31199188939E+02  0.31199188939E+02  0.00000000000E+00 0. -1.
          2   -1    0    0  502    0 -0.00000000000E+00 -0.00000000000E+00 -0.73302638102E+03  0.73302638102E+03  0.00000000000E+00 0. -1.
         23    2    1    2    0    0  0.49724909434E+01 -0.60022219180E+02 -0.59760360292E+03  0.60749976801E+03  0.91096154958E+02 0.  0.
         24    2    1    2    0    0 -0.38201627363E+01  0.29489623889E+02 -0.69249789037E+02  0.11028515240E+03  0.80517389412E+02 0.  0.
        -13    1    4    4    0    0 -0.38124466223E+02  0.20184958111E+02 -0.59381889167E+02  0.73396976912E+02  0.00000000000E+00 0.  1.
         14    1    4    4    0    0  0.34304303487E+02  0.93046657779E+01 -0.98678998702E+01  0.36888175488E+02  0.00000000000E+00 0. -1.
        -13    1    3    3    0    0 -0.28821376984E+02 -0.68541110145E+02 -0.40607297192E+03  0.41282419269E+03  0.00000000000E+00 0. -1.
         13    1    3    3    0    0  0.33793867927E+02  0.85188909645E+01 -0.19153063100E+03  0.19467557532E+03  0.00000000000E+00 0.  1.
          1    1    1    2  501    0 -0.11523282070E+01  0.30532595292E+02 -0.34973800125E+02  0.46440649551E+02  0.00000000000E+00 0. -1.
<scales pt_clust_5="13000.00000" pt_clust_6="13000.00000" pt_clust_7="13000.00000" pt_clust_8="13000.00000" pt_clust_9="13000.00000"></scales>
<clustering>
<clus scale="   80.517">  5  6 -1 -1</clus>
<clus scale="   30.554">  5  9 -1 -1</clus>
<clus scale="   91.096">  7  8 -1 -1</clus>
<clus scale="  109.206">  2  7  1 -1</clus>
<clus scale="  117.049">  1  5  2 -1</clus>
</clustering>
</event>
<event>
 9    2  0.6085395E-005  0.2716397E+03  0.7546771E-02  0.1138285E+00
          4   -1    0    0  502    0 -0.00000000000E+00  0.00000000000E+00  0.19568333272E+03  0.19568333272E+03  0.00000000000E+00 0. -1.
         21   -1    0    0  501  502  0.00000000000E+00 -0.00000000000E+00 -0.18183150814E+03  0.18183150814E+03  0.00000000000E+00 0. -1.
         23    2    1    2    0    0  0.91964816949E+01 -0.51107937611E+02 -0.56783989357E+01  0.10517391723E+03  0.91283690152E+02 0.  0.
         24    2    1    2    0    0 -0.14602357485E+02 -0.75764180907E+02  0.74498976827E+02  0.13396707571E+03  0.80272285833E+02 0.  0.
        -11    1    4    4    0    0 -0.27393071814E+02  0.59651698161E+01  0.25011833832E+02  0.37570672951E+02  0.00000000000E+00 0.  1.
         12    1    4    4    0    0  0.12790714329E+02 -0.81729350723E+02  0.49487142994E+02  0.96396402756E+02  0.00000000000E+00 0. -1.
        -11    1    3    3    0    0  0.18176443370E+02  0.10090575532E+02 -0.31830865576E+02  0.38018506171E+02  0.00000000000E+00 0.  1.
         11    1    3    3    0    0 -0.89799616749E+01 -0.61198513142E+02  0.26152466641E+02  0.67155411055E+02  0.00000000000E+00 0. -1.
          3    1    1    2  501    0  0.54058757901E+01  0.12687211852E+03 -0.54968753309E+02  0.13837384793E+03  0.00000000000E+00 0. -1.
<scales pt_clust_5="13000.00000" pt_clust_6="13000.00000" pt_clust_7="13000.00000" pt_clust_8="13000.00000" pt_clust_9="13000.00000"></scales>
<clustering>
<clus scale="   80.272">  5  6 -1 -1</clus>
<clus scale="   91.284">  7  8 -1 -1</clus>
<clus scale="  105.021">  1  7  2 -1</clus>
<clus scale="  112.555">  5  9 -1 -1</clus>
<clus scale="  271.640">  2  5  1 -1</clus>
</clustering>
</event>
<event>
 9    2  0.6085395E-005  0.2894352E+03  0.7546771E-02  0.1096408E+00
         21   -1    0    0  501  502  0.00000000000E+00  0.00000000000E+00  0.47721915639E+03  0.47721915639E+03  0.00000000000E+00 0.  1.
         -1   -1    0    0    0  501 -0.00000000000E+00 -0.00000000000E+00 -0.19544911987E+03  0.19544911987E+03  0.00000000000E+00 0.  1.
         23    2    1    2    0    0 -0.22328214202E+03  0.61063918973E+02 -0.26059192900E+02  0.25013832917E+03  0.91139371508E+02 0.  0.
         24    2    1    2    0    0  0.29371900300E+02 -0.32277913534E+02  0.83351701663E+02  0.12450314222E+03  0.81541118599E+02 0.  0.
        -11    1    4    4    0    0  0.57936020164E+01 -0.35362989297E+02  0.92365213264E+02  0.99072899713E+02  0.00000000000E+00 0.  1.
         12    1    4    4    0    0  0.23578298283E+02  0.30850757626E+01 -0.90135116011E+01  0.25430242503E+02  0.00000000000E+00 0. -1.
        -13    1    3    3    0    0 -0.40905196989E+02 -0.24117518317E+02 -0.54253412304E+01  0.47794603858E+02  0.00000000000E+00 0. -1.
         13    1    3    3    0    0 -0.18237694503E+03  0.85181437290E+02 -0.20633851669E+02  0.20234372531E+03  0.00000000000E+00 0.  1.
         -2    1    1    2    0  502  0.19391024172E+03 -0.28786005439E+02  0.22447752776E+03  0.29802680487E+03  0.00000000000E+00 0.  1.
<scales pt_clust_5="13000.00000" pt_clust_6="13000.00000" pt_clust_7="13000.00000" pt_clust_8="13000.00000" pt_clust_9="13000.00000"></scales>
<clustering>
<clus scale="   81.541">  5  6 -1 -1</clus>
<clus scale="   91.139">  7  8 -1 -1</clus>
<clus scale="  196.035">  5  9 -1 -1</clus>
<clus scale="  248.777">  2  7  1 -1</clus>
<clus scale="  289.435">  1  5  2 -1</clus>
</clustering>
</event>
<event>
 9    2  0.6085395E-005  0.1100924E+03  0.7546771E-02  0.1267102E+00
          4   -1    0    0  502    0 -0.00000000000E+00  0.00000000000E+00  0.48416447193E+03  0.48416447193E+03  0.00000000000E+00 0. -1.
         21   -1    0    0  501  502  0.00000000000E+00 -0.00000000000E+00 -0.48597779680E+02  0.48597779680E+02  0.00000000000E+00 0. -1.
         23    2    1    2    0    0 -0.15976255042E+02  0.30554014547E+02  0.40799419935E+03  0.41926960519E+03  0.90216110589E+02 0.  0.
         24    2    1    2    0    0 -0.73426089543E-01 -0.71799407816E+01  0.27230350300E+02  0.85136753725E+02  0.80344370782E+02 0.  0.
        -11    1    4    4    0    0  0.26085578594E+01 -0.34670604023E+02  0.41424561495E+02  0.54081879151E+02  0.00000000000E+00 0.  1.
         12    1    4    4    0    0 -0.26819839489E+01  0.27490663242E+02 -0.14194211194E+02  0.31054874574E+02  0.00000000000E+00 0. -1.
        -13    1    3    3    0    0 -0.45392889502E+02 -0.99060946240E+01  0.20578896779E+03  0.21096858627E+03  0.00000000000E+00 0.  1.
         13    1    3    3    0    0  0.29416634459E+02  0.40460109171E+02  0.20220523156E+03  0.20830101893E+03  0.00000000000E+00 0. -1.
          3    1    1    2  501    0  0.16049681132E+02 -0.23374073766E+02  0.34214260496E+00  0.28355892693E+02  0.00000000000E+00 0. -1.
<scales pt_clust_5="13000.00000" pt_clust_6="13000.00000" pt_clust_7="13000.00000" pt_clust_8="13000.00000" pt_clust_9="13000.00000"></scales>
<clustering>
<clus scale="   80.344">  5  6 -1 -1</clus>
<clus scale="   28.354">  5  9 -1 -1</clus>
<clus scale="   90.216">  7  8 -1 -1</clus>
<clus scale="   96.580">  1  7  2 -1</clus>
<clus scale="  110.092">  2  5  1 -1</clus>
</clustering>
</event>
<event>
 9    2  0.6085395E-005  0.3369095E+03  0.7546771E-02  0.1081936E+00
          2   -1    0    0  502    0 -0.00000000000E+00  0.00000000000E+00  0.92435299524E+03  0.92435299524E+03  0.00000000000E+00 0. -1.
         21   -1    0    0  501  502  0.00000000000E+00 -0.00000000000E+00 -0.87459739763E+02  0.87459739763E+02  0.00000000000E+00 0. -1.
         23    2    1    2    0    0  0.14285709468E+02 -0.21213935460E+03  0.35851079223E+03  0.42669924724E+03  0.91296616529E+02 0.  0.
         24    2    1    2    0    0  0.61392333343E+01  0.23088728055E+01  0.24356445897E+02  0.84528196515E+02  0.80676876921E+02 0.  0.
        -11    1    4    4    0    0 -0.28265303101E+02 -0.23754165243E+02  0.51239461785E+01  0.37275227031E+02  0.00000000000E+00 0.  1.
         12    1    4    4    0    0  0.34404536435E+02  0.26063038048E+02  0.19232499719E+02  0.47252969484E+02  0.00000000000E+00 0. -1.
        -11    1    3    3    0    0 -0.28354880346E+02 -0.21793456601E+02  0.66966004730E+02  0.75917058555E+02  0.00000000000E+00 0.  1.
         11    1    3    3    0    0  0.42640589814E+02 -0.19034589800E+03  0.29154478750E+03  0.35078218869E+03  0.00000000000E+00 0. -1.
          1    1    1    2  501    0 -0.20424942803E+02  0.20983048179E+03  0.45402601735E+03  0.50058529124E+03  0.00000000000E+00 0. -1.
<scales pt_clust_5="13000.00000" pt_clust_6="13000.00000" pt_clust_7="13000.00000" pt_clust_8="13000.00000" pt_clust_9="13000.00000"></scales>
<clustering>
<clus scale="   80.677">  5  6 -1 -1</clus>
<clus scale="   91.297">  7  8 -1 -1</clus>
<clus scale="  210.822">  5  9 -1 -1</clus>
<clus scale="  231.392">  1  7  2 -1</clus>
<clus scale="  336.910">  2  5  1 -1</clus>
</clustering>
</event>
<event>
 9    2  0.6085395E-005  0.1676464E+03  0.7546771E-02  0.1185936E+00
         21   -1    0    0  501  502  0.00000000000E+00  0.00000000000E+00  0.77284060492E+02  0.77284060492E+02  0.00000000000E+00 0.  1.
         -3   -1    0    0    0  501 -0.00000000000E+00 -0.00000000000E+00 -0.32221384322E+03  0.32221384322E+03  0.00000000000E+00 0.  1.
         23    2    1    2    0    0  0.35210999974E+02  0.11022602217E+03 -0.11025836338E+03  0.18445902968E+03  0.92079511580E+02 0.  0.
         24    2    1    2    0    0 -0.25755273994E+01 -0.65036421219E+02 -0.52164827837E+02  0.11546723275E+03  0.79844493542E+02 0.  0.
        -11    1    4    4    0    0 -0.17944374230E+02 -0.73763769440E+02 -0.19582509607E+02  0.78400056958E+02  0.00000000000E+00 0.  1.
         12    1    4    4    0    0  0.15368846830E+02  0.87273482205E+01 -0.32582318231E+02  0.37067175791E+02  0.00000000000E+00 0. -1.
        -13    1    3    3    0    0  0.65345223084E+02  0.88646854845E+02 -0.74521836676E+02  0.13297280623E+03  0.00000000000E+00 0.  1.
         13    1    3    3    0    0 -0.30134223110E+02  0.21579167328E+02 -0.35736526700E+02  0.51486223455E+02  0.00000000000E+00 0. -1.
         -4    1    1    2    0  502 -0.32635472574E+02 -0.45189600954E+02 -0.82506591517E+02  0.99571641285E+02  0.00000000000E+00 0.  1.
<scales pt_clust_5="13000.00000" pt_clust_6="13000.00000" pt_clust_7="13000.00000" pt_clust_8="13000.00000" pt_clust_9="13000.00000"></scales>
<clustering>
<clus scale="   79.844">  5  6 -1 -1</clus>
<clus scale="   55.742">  5  9 -1 -1</clus>
<clus scale="   92.080">  7  8 -1 -1</clus>
<clus scale="  147.879">  2  7  1 -1</clus>
<clus scale="  167.646">  1  5  2 -1</clus>
</clustering>
</event>
<event>
 9    2  0.6085395E-005  0.2177024E+03  0.7546771E-02  0.1163233E+00
         -1   -1    0    0    0  501 -0.00000000000E+00  0.00000000000E+00  0.23047362422E+03  0.23047362422E+03  0.00000000000E+00 0.  1.
         21   -1    0    0  501  502  0.00000000000E+00 -0.00000000000E+00 -0.15006377592E+03  0.15006377592E+03  0.00000000000E+00 0.  1.
         23    2    1    2    0    0 -0.69063238893E+02  0.19646621020E+00 -0.53375652434E+02  0.12501265566E+03  0.89495442546E+02 0.  0.
         24    2    1    2    0    0  0.15774574932E+01  0.33773229599E+02  0.15004697498E+03  0.17824145735E+03  0.90071099739E+02 0.  0.
        -11    1    4    4    0    0 -0.23141007111E+02  0.57348961039E+02  0.10216288436E+03  0.11942221102E+03  0.00000000000E+00 0.  1.
         12    1    4    4    0    0  0.24718464605E+02 -0.23575731439E+02  0.47884090620E+02  0.58819246338E+02  0.00000000000E+00 0. -1.
        -11    1    3    3    0    0  0.76017124032E+01  0.29178905624E+02 -0.21676874594E+02  0.37135986011E+02  0.00000000000E+00 0. -1.
         11    1    3    3    0    0 -0.76664951296E+02 -0.28982439414E+02 -0.31698777840E+02  0.87876669646E+02  0.00000000000E+00 0.  1.
         -2    1    1    2    0  502  0.67485781399E+02 -0.33969695810E+02 -0.16261474252E+02  0.77283287128E+02  0.00000000000E+00 0.  1.
<scales pt_clust_5="13000.00000" pt_clust_6="13000.00000" pt_clust_7="13000.00000" pt_clust_8="13000.00000" pt_clust_9="13000.00000"></scales>
<clustering>
<clus scale="   89.495">  7  8 -1 -1</clus>
<clus scale="   90.071">  5  6 -1 -1</clus>
<clus scale="   75.553">  5  9 -1 -1</clus>
<clus scale="  113.045">  1  7  2 -1</clus>
<clus scale="  217.702">  2  5  1 -1</clus>
</clustering>
</event>
<event>
 9    2  0.6085395E-005  0.1432508E+03  0.7546771E-02  0.1228230E+00
          2   -1    0    0  502    0 -0.00000000000E+00  0.00000000000E+00  0.45712355258E+02  0.45712355258E+02  0.00000000000E+00 0. -1.
         21   -1    0    0  501  502  0.00000000000E+00 -0.00000000000E+00 -0.31237899145E+03  0.31237899145E+03  0.00000000000E+00 0. -1.
         23    2    1    2    0    0  0.16139965304E+01 -0.27796665147E+02 -0.10094190487E+03  0.13903545636E+03  0.91467646683E+02 0.  0.
         24    2    1    2    0    0 -0.29144739617E+02  0.30871006687E+02 -0.16848769922E+03  0.19121657674E+03  0.79832571861E+02 0.  0.
        -13    1    4    4    0    0 -0.12232235640E+02 -0.16111401382E+02 -0.58082931578E+01  0.21046166222E+02  0.00000000000E+00 0.  1.
         14    1    4    4    0    0 -0.16912503978E+02  0.46982408069E+02 -0.16267940606E+03  0.17017041051E+03  0.00000000000E+00 0. -1.
        -13    1    3    3    0    0 -0.24961669520E+02 -0.50490077026E+02 -0.81429472886E+02  0.99010564476E+02  0.00000000000E+00 0. -1.
         13    1    3    3    0    0  0.26575666051E+02  0.22693411879E+02 -0.19512431980E+02  0.40024891886E+02  0.00000000000E+00 0.  1.
          1    1    1    2  501    0  0.27530743087E+02 -0.30743415398E+01  0.27629678897E+01  0.27839313612E+02  0.00000000000E+00 0. -1.
<scales pt_clust_5="13000.00000" pt_clust_6="13000.00000" pt_clust_7="13000.00000" pt_clust_8="13000.00000" pt_clust_9="13000.00000"></scales>
<clustering>
<clus scale="   79.833">  5  6 -1 -1</clus>
<clus scale="   27.702">  5  9 -1 -1</clus>
<clus scale="   91.468">  7  8 -1 -1</clus>
<clus scale="   95.612">  1  7  2 -1</clus>
<clus scale="  143.251">  2  5  1 -1</clus>
</clustering>
</event>
<event>
 9    2  0.6307378E-005  0.3142961E+03  0.7546771E-02  0.1108607E+00
         21   -1    0    0  501  502  0.00000000000E+00  0.00000000000E+00  0.22671188227E+03  0.22671188227E+03  0.00000000000E+00 0. -1.
         -3   -1    0    0    0  501 -0.00000000000E+00 -0.00000000000E+00 -0.88561878670E+03  0.88561878670E+03  0.00000000000E+00 0.  1.
         23    2    1    2    0    0 -0.10139246817E+03 -0.50391137006E+02  0.17262380095E+03  0.22338446200E+03  0.85334295072E+02 0.  0.
         24    2    1    2    0    0  0.83084399563E+02  0.13304229821E+03 -0.75365957478E+03  0.77392311013E+03  0.79692880316E+02 0.  0.
        -13    1    4    4    0    0  0.97011407098E+02  0.10527074312E+03 -0.57300319472E+03  0.59061476753E+03  0.00000000000E+00 0.  1.
         14    1    4    4    0    0 -0.13927007534E+02  0.27771555094E+02 -0.18065638007E+03  0.18330834261E+03  0.00000000000E+00 0. -1.
        -11    1    3    3    0    0 -0.58101805506E+02  0.59810435645E+00  0.28979897655E+02  0.64930824729E+02  0.00000000000E+00 0.  1.
         11    1    3    3    0    0 -0.43290662668E+02 -0.50989241363E+02  0.14364390330E+03  0.15845363727E+03  0.00000000000E+00 0. -1.
         -4    1    1    2    0  502  0.18308068611E+02 -0.82651161208E+02 -0.77871130599E+02  0.11502309684E+03  0.00000000000E+00 0.  1.
<scales pt_clust_5="13000.00000" pt_clust_6="13000.00000" pt_clust_7="13000.00000" pt_clust_8="13000.00000" pt_clust_9="13000.00000"></scales>
<clustering>
<clus scale="   79.693">  5  6 -1 -1</clus>
<clus scale="   84.655">  5  9 -1 -1</clus>
<clus scale="   85.334">  7  8 -1 -1</clus>
<clus scale="  141.780">  2  7  1 -1</clus>
<clus scale="  314.296">  1  5  2 -1</clus>
</clustering>
</event>
<event>
 9    2  0.6085395E-005  0.5615523E+03  0.7546771E-02  0.1048850E+00
         -3   -1    0    0    0  501 -0.00000000000E+00  0.00000000000E+00  0.13931985333E+03  0.13931985333E+03  0.00000000000E+00 0.  1.
         21   -1    0    0  501  502  0.00000000000E+00 -0.00000000000E+00 -0.84880090920E+03  0.84880090920E+03  0.00000000000E+00 0.  1.
         23    2    1    2    0    0 -0.82512491349E+02 -0.26312299019E+02 -0.15293056994E+03  0.19749476519E+03  0.90087594847E+02 0.  0.
         24    2    1    2    0    0  0.21735391860E+03  0.16109834550E+03 -0.10667380807E+03  0.30201724372E+03  0.81484423809E+02 0.  0.
        -13    1    4    4    0    0  0.17305883504E+03  0.16109363604E+03 -0.10192980475E+03  0.25746884288E+03  0.00000000000E+00 0.  1.
         14    1    4    4    0    0  0.44295083564E+02  0.47094576868E-02 -0.47440033213E+01  0.44548400842E+02  0.00000000000E+00 0. -1.
        -13    1    3    3    0    0 -0.57072831010E+02  0.23104100600E+02 -0.11423223188E+03  0.12976945058E+03  0.00000000000E+00 0.  1.
         13    1    3    3    0    0 -0.25439660339E+02 -0.49416399620E+02 -0.38698338059E+02  0.67725314603E+02  0.00000000000E+00 0. -1.
         -4    1    1    2    0  502 -0.13484142725E+03 -0.13478604648E+03 -0.44987667786E+03  0.48860875362E+03  0.00000000000E+00 0.  1.
<scales pt_clust_5="13000.00000" pt_clust_6="13000.00000" pt_clust_7="13000.00000" pt_clust_8="13000.00000" pt_clust_9="13000.00000"></scales>
<clustering>
<clus scale="   81.484">  5  6 -1 -1</clus>
<clus scale="   90.088">  7  8 -1 -1</clus>
<clus scale="  124.966">  1  7  2 -1</clus>
<clus scale="  203.496">  5  9 -1 -1</clus>
<clus scale="  561.552">  2  5  1 -1</clus>
</clustering>
</event>
<event>
 9    2  0.6085395E-005  0.1535976E+03  0.7546771E-02  0.1208754E+00
          2   -1    0    0  502    0 -0.00000000000E+00  0.00000000000E+00  0.23654492685E+03  0.23654492685E+03  0.00000000000E+00 0. -1.
         21   -1    0    0  501  502  0.00000000000E+00 -0.00000000000E+00 -0.77326791032E+02  0.77326791032E+02  0.00000000000E+00 0. -1.
         23    2    1    2    0    0  0.48808312366E+02 -0.48352152868E+02  0.66935240410E+02  0.13468363840E+03  0.94547205142E+02 0.  0.
         24    2    1    2    0    0  0.12256335329E+02  0.43737737347E+02  0.57334399035E+02  0.10867863737E+03  0.80377891761E+02 0.  0.
        -13    1    4    4    0    0 -0.12643102597E+02  0.26069973832E+02  0.69896970323E+02  0.75664245448E+02  0.00000000000E+00 0.  1.
         14    1    4    4    0    0  0.24899437926E+02  0.17667763514E+02 -0.12562571288E+02  0.33014391922E+02  0.00000000000E+00 0. -1.
        -13    1    3    3    0    0  0.30516704699E+02  0.23378664336E+02  0.62185811311E+01  0.38942290162E+02  0.00000000000E+00 0.  1.
         13    1    3    3    0    0  0.18291607668E+02 -0.71730817204E+02  0.60716659279E+02  0.95741348235E+02  0.00000000000E+00 0. -1.
          1    1    1    2  501    0 -0.61064647695E+02  0.46144155211E+01  0.34948496375E+02  0.70509442116E+02  0.00000000000E+00 0. -1.
<scales pt_clust_5="13000.00000" pt_clust_6="13000.00000" pt_clust_7="13000.00000" pt_clust_8="13000.00000" pt_clust_9="13000.00000"></scales>
<clustering>
<clus scale="   80.378">  5  6 -1 -1</clus>
<clus scale="   61.239">  5  9 -1 -1</clus>
<clus scale="   94.547">  7  8 -1 -1</clus>
<clus scale="  116.873">  1  7  2 -1</clus>
<clus scale="  153.598">  2  5  1 -1</clus>
</clustering>
</event>
<event>
 9    2  0.6085395E-005  0.2447171E+03  0.7546771E-02  0.1141778E+00
         -3   -1    0    0    0  501 -0.00000000000E+00  0.00000000000E+00  0.43981897020E+03  0.43981897020E+03  0.00000000000E+00 0.  1.
         21   -1    0    0  501  502  0.00000000000E+00 -0.00000000000E+00 -0.13999746965E+03  0.13999746965E+03  0.00000000000E+00 0.  1.
         23    2    1    2    0    0 -0.49971281631E+02 -0.82453614269E+02  0.30784992577E+03  0.33496764970E+03  0.90199900551E+02 0.  0.
         24    2    1    2    0    0  0.92066045295E+02  0.40411654322E+02 -0.78760627173E+02  0.15242292841E+03  0.83188065315E+02 0.  0.
        -11    1    4    4    0    0  0.61084545362E+02  0.63418109853E+02 -0.36849352054E+02  0.95451836474E+02  0.00000000000E+00 0.  1.
         12    1    4    4    0    0  0.30981499933E+02 -0.23006455531E+02 -0.41911275119E+02  0.56971091935E+02  0.00000000000E+00 0. -1.
        -13    1    3    3    0    0 -0.51952952516E+02 -0.14103733168E+02  0.75238203623E+02  0.92513846795E+02  0.00000000000E+00 0. -1.
         13    1    3    3    0    0  0.19816708856E+01 -0.68349881102E+02  0.23261172214E+03  0.24245380291E+03  0.00000000000E+00 0.  1.
         -4    1    1    2    0  502 -0.42094763665E+02  0.42041959948E+02  0.70732201960E+02  0.92425861739E+02  0.00000000000E+00 0.  1.
<scales pt_clust_5="13000.00000" pt_clust_6="13000.00000" pt_clust_7="13000.00000" pt_clust_8="13000.00000" pt_clust_9="13000.00000"></scales>
<clustering>
<clus scale="   83.188">  5  6 -1 -1</clus>
<clus scale="   59.494">  5  9 -1 -1</clus>
<clus scale="   90.200">  7  8 -1 -1</clus>
<clus scale="  132.029">  1  7  2 -1</clus>
<clus scale="  244.717">  2  5  1 -1</clus>
</clustering>
</event>
<event>
 9    2  0.6085395E-005  0.2703105E+03  0.7546771E-02  0.1118868E+00
         21   -1    0    0  501  502  0.00000000000E+00  0.00000000000E+00  0.16549436188E+03  0.16549436188E+03  0.00000000000E+00 0. -1.
          2   -1    0    0  502    0 -0.00000000000E+00 -0.00000000000E+00 -0.35507866968E+03  0.35507866968E+03  0.00000000000E+00 0. -1.
         23    2    1    2    0    0 -0.72767421381E+02  0.12812478980E+03  0.27225604656E+02  0.17405563182E+03  0.88561109089E+02 0.  0.
         24    2    1    2    0    0 -0.58867583752E+01  0.30685809998E+02 -0.39041286150E+02  0.95501521561E+02  0.81363663492E+02 0.  0.
        -11    1    4    4    0    0  0.13291450958E+02  0.54695706368E+02 -0.27824461154E+02  0.62789199725E+02  0.00000000000E+00 0.  1.
         12    1    4    4    0    0 -0.19178209333E+02 -0.24009896370E+02 -0.11216824996E+02  0.32712321836E+02  0.00000000000E+00 0. -1.
        -11    1    3    3    0    0 -0.41847346051E+02  0.17475531289E+02  0.37310841185E+02  0.58725577352E+02  0.00000000000E+00 0.  1.
         11    1    3    3    0    0 -0.30920075330E+02  0.11064925851E+03 -0.10085236529E+02  0.11533005447E+03  0.00000000000E+00 0. -1.
          1    1    1    2  501    0  0.78654179757E+02 -0.15881059980E+03 -0.17776862630E+03  0.25101587818E+03  0.00000000000E+00 0. -1.
<scales pt_clust_5="13000.00000" pt_clust_6="13000.00000" pt_clust_7="13000.00000" pt_clust_8="13000.00000" pt_clust_9="13000.00000"></scales>
<clustering>
<clus scale="   81.364">  5  6 -1 -1</clus>
<clus scale="   88.561">  7  8 -1 -1</clus>
<clus scale="  171.913">  2  7  1 -1</clus>
<clus scale="   65.554">  5  9 -1 -1</clus>
<clus scale="  270.311">  1  5  2 -1</clus>
</clustering>
</event>
<event>
 9    2  0.7134520E-005  0.1460566E+03  0.7546771E-02  0.1221139E+00
         -1   -1    0    0    0  501 -0.00000000000E+00  0.00000000000E+00  0.10568541783E+03  0.10568541783E+03  0.00000000000E+00 0.  1.
         21   -1    0    0  501  502  0.00000000000E+00 -0.00000000000E+00 -0.17006348077E+03  0.17006348077E+03  0.00000000000E+00 0.  1.
         23    2    1    2    0    0  0.77103566366E+01  0.50103588437E+02  0.20876321686E+02  0.10663109493E+03  0.91457916139E+02 0.  0.
         24    2    1    2    0    0  0.30763122086E+02 -0.43183822175E+01 -0.49920244365E+02  0.99655618706E+02  0.80462372801E+02 0.  0.
        -11    1    4    4    0    0  0.30645520508E+02  0.21046482446E+02 -0.61428217951E+02  0.71802007710E+02  0.00000000000E+00 0.  1.
         12    1    4    4    0    0  0.11760157819E+00 -0.25364864663E+02  0.11507973586E+02  0.27853610997E+02  0.00000000000E+00 0. -1.
        -13    1    3    3    0    0  0.44979382777E+02  0.21654563635E+02  0.30866229384E+02  0.58692325883E+02  0.00000000000E+00 0. -1.
         13    1    3    3    0    0 -0.37269026140E+02  0.28449024802E+02 -0.99899076978E+01  0.47938769044E+02  0.00000000000E+00 0.  1.
         -2    1    1    2    0  502 -0.38473478722E+02 -0.45785206220E+02 -0.35334140260E+02  0.69462184975E+02  0.00000000000E+00 0.  1.
<scales pt_clust_5="13000.00000" pt_clust_6="13000.00000" pt_clust_7="13000.00000" pt_clust_8="13000.00000" pt_clust_9="13000.00000"></scales>
<clustering>
<clus scale="   80.462">  5  6 -1 -1</clus>
<clus scale="   59.804">  5  9 -1 -1</clus>
<clus scale="   91.458">  7  8 -1 -1</clus>
<clus scale="  104.568">  1  7  2 -1</clus>
<clus scale="  146.057">  2  5  1 -1</clus>
</clustering>
</event>
<event>
 9    2  0.6085395E-005  0.8609242E+03  0.7546771E-02  0.1001284E+00
         21   -1    0    0  501  502  0.00000000000E+00  0.00000000000E+00  0.27774817534E+03  0.27774817534E+03  0.00000000000E+00 0. -1.
          2   -1    0    0  502    0 -0.00000000000E+00 -0.00000000000E+00 -0.10738225375E+04  0.10738225375E+04  0.00000000000E+00 0. -1.
         23    2    1    2    0    0 -0.95112762143E+02  0.62064573570E+02 -0.35714048516E+03  0.38520978569E+03  0.89099966520E+02 0.  0.
         24    2    1    2    0    0  0.15227412450E+03  0.20686445990E+03 -0.59306642713E+03  0.65116719406E+03  0.79439372277E+02 0.  0.
        -13    1    4    4    0    0  0.61916301045E+02  0.13666290478E+03 -0.27694493516E+03  0.31497440371E+03  0.00000000000E+00 0.  1.
         14    1    4    4    0    0  0.90357823453E+02  0.70201555118E+02 -0.31612149197E+03  0.33619279035E+03  0.00000000000E+00 0. -1.
        -13    1    3    3    0    0 -0.19400459745E+02 -0.17383899608E+02 -0.27949365671E+02  0.38206607351E+02  0.00000000000E+00 0.  1.
         13    1    3    3    0    0 -0.75712302399E+02  0.79448473177E+02 -0.32919111949E+03  0.34700317833E+03  0.00000000000E+00 0. -1.
          1    1    1    2  501    0 -0.57161362355E+02 -0.26892903347E+03  0.15413255012E+03  0.31519373312E+03  0.00000000000E+00 0. -1.
<scales pt_clust_5="13000.00000" pt_clust_6="13000.00000" pt_clust_7="13000.00000" pt_clust_8="13000.00000" pt_clust_9="13000.00000"></scales>
<clustering>
<clus scale="   79.439">  5  6 -1 -1</clus>
<clus scale="   89.100">  7  8 -1 -1</clus>
<clus scale="  144.351">  2  7  1 -1</clus>
<clus scale="  270.518">  5  9 -1 -1</clus>
<clus scale="  860.924">  1  5  2 -1</clus>
</clustering>
</event>
<event>
 9    2  0.6085395E-005  0.2369126E+03  0.7546771E-02  0.1158729E+00
         -1   -1    0    0    0  501 -0.00000000000E+00  0.00000000000E+00  0.18904396640E+03  0.18904396640E+03  0.00000000000E+00 0.  1.
         21   -1    0    0  501  502  0.00000000000E+00 -0.00000000000E+00 -0.15601647710E+03  0.15601647710E+03  0.00000000000E+00 0.  1.
         23    2    1    2    0    0 -0.28206498966E+02  0.15402610646E+02 -0.26197667369E+02  0.10085721047E+03  0.91940263923E+02 0.  0.
         24    2    1    2    0    0  0.10120202374E+03 -0.61196979714E+02 -0.27106581058E+01  0.13808294267E+03  0.71222408375E+02 0.  0.
        -11    1    4    4    0    0  0.11095855060E+03 -0.47985538190E+02 -0.70511380755E+01  0.12109554234E+03  0.00000000000E+00 0.  1.
         12    1    4    4    0    0 -0.97565268638E+01 -0.13211441524E+02  0.43404799697E+01  0.16987400329E+02  0.00000000000E+00 0. -1.
        -11    1    3    3    0    0 -0.58758654730E+01 -0.33507315549E+02  0.10683878165E+02  0.35656854082E+02  0.00000000000E+00 0. -1.
         11    1    3    3    0    0 -0.22330633493E+02  0.48909926195E+02 -0.36881545533E+02  0.65200356391E+02  0.00000000000E+00 0.  1.
         -2    1    1    2    0  502 -0.72995524772E+02  0.45794369068E+02  0.61935814775E+02  0.10612029036E+03  0.00000000000E+00 0.  1.
<scales pt_clust_5="13000.00000" pt_clust_6="13000.00000" pt_clust_7="13000.00000" pt_clust_8="13000.00000" pt_clust_9="13000.00000"></scales>
<clustering>
<clus scale="   71.222">  5  6 -1 -1</clus>
<clus scale="   86.171">  5  9 -1 -1</clus>
<clus scale="   91.940">  7  8 -1 -1</clus>
<clus scale="   97.395">  1  7  2 -1</clus>
<clus scale="  236.913">  2  5  1 -1</clus>
</clustering>
</event>
<event>
 9    2  0.6085395E-005  0.6202402E+03  0.7546771E-02  0.1049080E+00
          2   -1    0    0  502    0 -0.00000000000E+00  0.00000000000E+00  0.21933413556E+03  0.21933413556E+03  0.00000000000E+00 0. -1.
         21   -1    0    0  501  502  0.00000000000E+00 -0.00000000000E+00 -0.73616739176E+03  0.73616739176E+03  0.00000000000E+00 0. -1.
         23    2    1    2    0    0 -0.20156825815E+00 -0.91306374103E+01  0.58802620192E+02  0.10930142374E+03  0.91682298842E+02 0.  0.
         24    2    1    2    0    0  0.75091223808E+02 -0.20230448077E+03 -0.57687409335E+03  0.62189048968E+03  0.86013177689E+02 0.  0.
        -11    1    4    4    0    0  0.11699421328E+01 -0.10085060450E+03 -0.18924962811E+03  0.21444727774E+03  0.00000000000E+00 0.  1.
         12    1    4    4    0    0  0.73921281675E+02 -0.10145387627E+03 -0.38762446524E+03  0.40744321193E+03  0.00000000000E+00 0. -1.
        -11    1    3    3    0    0 -0.10354150532E+01  0.38287598232E+02  0.67644342210E+01  0.38894341915E+02  0.00000000000E+00 0.  1.
         11    1    3    3    0    0  0.83384679503E+00 -0.47418235642E+02  0.52038185971E+02  0.70407081824E+02  0.00000000000E+00 0. -1.
          1    1    1    2  501    0 -0.74889655550E+02  0.21143511818E+03  0.12382169654E+01  0.22430961390E+03  0.00000000000E+00 0. -1.
<scales pt_clust_5="13000.00000" pt_clust_6="13000.00000" pt_clust_7="13000.00000" pt_clust_8="13000.00000" pt_clust_9="13000.00000"></scales>
<clustering>
<clus scale="   86.013">  5  6 -1 -1</clus>
<clus scale="   91.682">  7  8 -1 -1</clus>
<clus scale="   92.136">  1  7  2 -1</clus>
<clus scale="  217.204">  5  9 -1 -1</clus>
<clus scale="  620.240">  2  5  1 -1</clus>
</clustering>
</event>
<event>
 9    2  0.6085395E-005  0.7039077E+03  0.7546771E-02  0.1018256E+00
          2   -1    0    0  502    0 -0.00000000000E+00  0.00000000000E+00  0.14274405169E+04  0.14274405169E+04  0.00000000000E+00 0. -1.
         21   -1    0    0  501  502  0.00000000000E+00 -0.00000000000E+00 -0.13388067689E+03  0.13388067689E+03  0.00000000000E+00 0. -1.
         23    2    1    2    0    0 -0.33591937759E+02  0.12061705761E+03  0.13940143267E+03  0.20944555268E+03  0.93583049943E+02 0.  0.
         24    2    1    2    0    0 -0.12378244391E+02  0.47523788021E+02 -0.68773381587E+02  0.11658346434E+03  0.80313104666E+02 0.  0.
        -11    1    4    4    0    0  0.15738981590E+02  0.13786793925E+02  0.12377876711E+02  0.24310554500E+02  0.00000000000E+00 0.  1.
         12    1    4    4    0    0 -0.28117225982E+02  0.33736994096E+02 -0.81151258298E+02  0.92272909843E+02  0.00000000000E+00 0. -1.
        -11    1    3    3    0    0 -0.54075733768E+02  0.27845926639E+02  0.62559903623E+02  0.87254353211E+02  0.00000000000E+00 0.  1.
         11    1    3    3    0    0  0.20483796009E+02  0.92771130973E+02  0.76841529049E+02  0.12219119947E+03  0.00000000000E+00 0. -1.
          1    1    1    2  501    0  0.45970182150E+02 -0.16814084563E+03  0.12229317889E+04  0.12352921767E+04  0.00000000000E+00 0. -1.
<scales pt_clust_5="13000.00000" pt_clust_6="13000.00000" pt_clust_7="13000.00000" pt_clust_8="13000.00000" pt_clust_9="13000.00000"></scales>
<clustering>
<clus scale="   80.313">  5  6 -1 -1</clus>
<clus scale="   93.583">  7  8 -1 -1</clus>
<clus scale="  156.316">  1  7  2 -1</clus>
<clus scale="   51.498">  5  9 -1 -1</clus>
<clus scale="  703.908">  2  5  1 -1</clus>
</clustering>
</event>
<event>
 9    2  0.6085395E-005  0.3412213E+03  0.7546771E-02  0.1110109E+00
         21   -1    0    0  501  502  0.00000000000E+00  0.00000000000E+00  0.45619674283E+03  0.45619674283E+03  0.00000000000E+00 0. -1.
          4   -1    0    0  502    0 -0.00000000000E+00 -0.00000000000E+00 -0.11153904074E+03  0.11153904074E+03  0.00000000000E+00 0. -1.
         23    2    1    2    0    0  0.47445287645E+02 -0.30928073528E+02  0.54124136792E+02  0.11958211867E+03  0.90348546590E+02 0.  0.
         24    2    1    2    0    0 -0.11621148738E+03 -0.10260753572E+03  0.22324670937E+03  0.28356912692E+03  0.80863714441E+02 0.  0.
        -11    1    4    4    0    0 -0.25931026399E+02 -0.58006275605E+01  0.31835290482E+01  0.26761918231E+02  0.00000000000E+00 0.  1.
         12    1    4    4    0    0 -0.90280460980E+02 -0.96806908155E+02  0.22006318032E+03  0.25680720869E+03  0.00000000000E+00 0. -1.
        -11    1    3    3    0    0  0.44534316727E+02 -0.82911414313E+00  0.71845474067E+02  0.84532626486E+02  0.00000000000E+00 0.  1.
         11    1    3    3    0    0  0.29109709171E+01 -0.30098959385E+02 -0.17721337275E+02  0.35049492186E+02  0.00000000000E+00 0. -1.
          3    1    1    2  501    0  0.68766199735E+02  0.13353560924E+03  0.67286855928E+02  0.16458453798E+03  0.00000000000E+00 0. -1.
<scales pt_clust_5="13000.00000" pt_clust_6="13000.00000" pt_clust_7="13000.00000" pt_clust_8="13000.00000" pt_clust_9="13000.00000"></scales>
<clustering>
<clus scale="   80.864">  5  6 -1 -1</clus>
<clus scale="   90.349">  7  8 -1 -1</clus>
<clus scale="  106.632">  2  7  1 -1</clus>
<clus scale="  150.705">  5  9 -1 -1</clus>
<clus scale="  341.221">  1  5  2 -1</clus>
</clustering>
</event>
<event>
 9    2  0.6085395E-005  0.1838374E+03  0.7546771E-02  0.1183523E+00
          4   -1    0    0  502    0 -0.00000000000E+00  0.00000000000E+00  0.49211754972E+03  0.49211754972E+03  0.00000000000E+00 0. -1.
         21   -1    0    0  501  502  0.00000000000E+00 -0.00000000000E+00 -0.48495601194E+02  0.48495601194E+02  0.00000000000E+00 0. -1.
         23    2    1    2    0    0  0.13081955520E+02 -0.17238060835E+02  0.23088815649E+03  0.25945154983E+03  0.11635066652E+03 0.  0.
         24    2    1    2    0    0  0.37164213375E+02 -0.11328703750E+02  0.40419441513E+02  0.99411847513E+02  0.82094250038E+02 0.  0.
        -11    1    4    4    0    0  0.12240776610E+02  0.20444918242E+02  0.52170029827E+02  0.57354540414E+02  0.00000000000E+00 0.  1.
         12    1    4    4    0    0  0.24923436765E+02 -0.31773621992E+02 -0.11750588314E+02  0.42057307099E+02  0.00000000000E+00 0. -1.
        -13    1    3    3    0    0 -0.43620416192E+01  0.49064295763E+02  0.84607717369E+02  0.97901983453E+02  0.00000000000E+00 0. -1.
         13    1    3    3    0    0  0.17443997139E+02 -0.66302356598E+02  0.14628043912E+03  0.16154956637E+03  0.00000000000E+00 0.  1.
          3    1    1    2  501    0 -0.50246168895E+02  0.28566764585E+02  0.17231435052E+03  0.18174975357E+03  0.00000000000E+00 0. -1.
<scales pt_clust_5="13000.00000" pt_clust_6="13000.00000" pt_clust_7="13000.00000" pt_clust_8="13000.00000" pt_clust_9="13000.00000"></scales>
<clustering>
<clus scale="   82.094">  5  6 -1 -1</clus>
<clus scale="   57.799">  5  9 -1 -1</clus>
<clus scale="  116.351">  7  8 -1 -1</clus>
<clus scale="  118.346">  1  7  2 -1</clus>
<clus scale="  183.837">  2  5  1 -1</clus>
</clustering>
</event>
<event>
 9    2  0.6085395E-005  0.2907572E+03  0.7546771E-02  0.1130233E+00
         21   -1    0    0  501  502  0.00000000000E+00  0.00000000000E+00  0.16507889085E+03  0.16507889085E+03  0.00000000000E+00 0. -1.
          2   -1    0    0  502    0 -0.00000000000E+00 -0.00000000000E+00 -0.28911747427E+03  0.28911747427E+03  0.00000000000E+00 0. -1.
         23    2    1    2    0    0  0.53226070378E+02 -0.13847696375E+02 -0.12590368390E+03  0.16343316605E+03  0.88509258732E+02 0.  0.
         24    2    1    2    0    0 -0.18759743176E+01 -0.45510366695E+02 -0.11655150012E+03  0.14869735760E+03  0.80323964167E+02 0.  0.
        -13    1    4    4    0    0 -0.38950115848E+02 -0.30780878972E+02 -0.46167070371E+02  0.67793601626E+02  0.00000000000E+00 0.  1.
         14    1    4    4    0    0  0.37074141531E+02 -0.14729487724E+02 -0.70384429754E+02  0.80903755973E+02  0.00000000000E+00 0. -1.
        -11    1    3    3    0    0  0.57235206638E+02  0.26718809626E+02 -0.82255112096E+02  0.10370953251E+03  0.00000000000E+00 0.  1.
         11    1    3    3    0    0 -0.40091362599E+01 -0.40566506001E+02 -0.43648571807E+02  0.59723633542E+02  0.00000000000E+00 0. -1.
          1    1    1    2  501    0 -0.51350096060E+02  0.59358063070E+02  0.11841660061E+03  0.14206584148E+03  0.00000000000E+00 0. -1.
<scales pt_clust_5="13000.00000" pt_clust_6="13000.00000" pt_clust_7="13000.00000" pt_clust_8="13000.00000" pt_clust_9="13000.00000"></scales>
<clustering>
<clus scale="   80.324">  5  6 -1 -1</clus>
<clus scale="   78.487">  5  9 -1 -1</clus>
<clus scale="   88.509">  7  8 -1 -1</clus>
<clus scale="  104.205">  2  7  1 -1</clus>
<clus scale="  290.757">  1  5  2 -1</clus>
</clustering>
</event>
<event>
 9    2  0.6085395E-005  0.5762458E+03  0.7546771E-02  0.1027133E+00
         21   -1    0    0  501  502  0.00000000000E+00  0.00000000000E+00  0.89260549958E+02  0.89260549958E+02  0.00000000000E+00 0. -1.
          2   -1    0    0  502    0 -0.00000000000E+00 -0.00000000000E+00 -0.17674161161E+04  0.17674161161E+04  0.00000000000E+00 0. -1.
         23    2    1    2    0    0  0.17255916877E+03 -0.97534786122E+02 -0.46866398900E+03  0.51692702007E+03  0.90983010829E+02 0.  0.
         24    2    1    2    0    0 -0.15985601382E+03 -0.20484347964E+03 -0.52556904035E+03  0.59185659075E+03  0.80972906146E+02 0.  0.
        -11    1    4    4    0    0 -0.52831969901E+02 -0.59462996709E+02 -0.25061365594E+03  0.26293396427E+03  0.00000000000E+00 0.  1.
         12    1    4    4    0    0 -0.10702404392E+03 -0.14538048293E+03 -0.27495538441E+03  0.32892262648E+03  0.00000000000E+00 0. -1.
        -11    1    3    3    0    0  0.84767821340E+01 -0.35843140148E+02 -0.13604452685E+03  0.14094218608E+03  0.00000000000E+00 0.  1.
         11    1    3    3    0    0  0.16408238664E+03 -0.61691645974E+02 -0.33261946215E+03  0.37598483398E+03  0.00000000000E+00 0. -1.
          1    1    1    2  501    0 -0.12703154952E+02  0.30237826576E+03 -0.68392253677E+03  0.74789305523E+03  0.00000000000E+00 0. -1.
<scales pt_clust_5="13000.00000" pt_clust_6="13000.00000" pt_clust_7="13000.00000" pt_clust_8="13000.00000" pt_clust_9="13000.00000"></scales>
<clustering>
<clus scale="   80.973">  5  6 -1 -1</clus>
<clus scale="   90.983">  7  8 -1 -1</clus>
<clus scale="  218.100">  2  7  1 -1</clus>
<clus scale="  261.527">  5  9 -1 -1</clus>
<clus scale="  576.246">  1  5  2 -1</clus>
</clustering>
</event>
<event>
 9    2  0.6085395E-005  0.4929691E+03  0.7546771E-02  0.1057875E+00
         21   -1    0    0  501  502  0.00000000000E+00  0.00000000000E+00  0.12256577724E+03  0.12256577724E+03  0.00000000000E+00 0. -1.
          2   -1    0    0  502    0 -0.00000000000E+00 -0.00000000000E+00 -0.84412960228E+03  0.84412960228E+03  0.00000000000E+00 0. -1.
         23    2    1    2    0    0  0.91089756871E+02  0.49515885096E+02 -0.22775933921E+03  0.26894081972E+03  0.98517415883E+02 0.  0.
         24    2    1    2    0    0  0.88388369373E+02  0.16973293340E+03 -0.23775885798E+03  0.31586215903E+03  0.81350208626E+02 0.  0.
        -11    1    4    4    0    0  0.60440407530E+02  0.12426229587E+03 -0.21965147815E+03  0.25950131578E+03  0.00000000000E+00 0.  1.
         12    1    4    4    0    0  0.27947961843E+02  0.45470637529E+02 -0.18107379827E+02  0.56360843257E+02  0.00000000000E+00 0. -1.
        -13    1    3    3    0    0 -0.56799185099E+01  0.45688857034E+02 -0.78916068399E+02  0.91364538979E+02  0.00000000000E+00 0.  1.
         13    1    3    3    0    0  0.96769675380E+02  0.38270280623E+01 -0.14884327081E+03  0.17757628075E+03  0.00000000000E+00 0. -1.
          1    1    1    2  501    0 -0.17947812624E+03 -0.21924881849E+03 -0.25604562785E+03  0.38189240075E+03  0.00000000000E+00 0. -1.
<scales pt_clust_5="13000.00000" pt_clust_6="13000.00000" pt_clust_7="13000.00000" pt_clust_8="13000.00000" pt_clust_9="13000.00000"></scales>
<clustering>
<clus scale="   81.350">  5  6 -1 -1</clus>
<clus scale="   98.517">  7  8 -1 -1</clus>
<clus scale="  143.020">  2  7  1 -1</clus>
<clus scale="  232.881">  5  9 -1 -1</clus>
<clus scale="  492.969">  1  5  2 -1</clus>
</clustering>
</event>
<event>
 9    2  0.6085395E-005  0.1739979E+03  0.7546771E-02  0.1196156E+00
          2   -1    0    0  502    0 -0.00000000000E+00  0.00000000000E+00  0.35474073972E+02  0.35474073972E+02  0.00000000000E+00 0. -1.
         21   -1    0    0  501  502  0.00000000000E+00 -0.00000000000E+00 -0.57377282991E+03  0.57377282991E+03  0.00000000000E+00 0.  1.
         23    2    1    2    0    0 -0.22595301252E+02  0.42495095733E+02 -0.14679005873E+03  0.18081449558E+03  0.93969035707E+02 0.  0.
         24    2    1    2    0    0  0.10707938236E+00  0.30446870073E+02 -0.12686475962E+03  0.15300063054E+03  0.79921851503E+02 0.  0.
        -13    1    4    4    0    0 -0.34609580082E+02  0.29800127564E+02 -0.45181681558E+02  0.64243715526E+02  0.00000000000E+00 0.  1.
         14    1    4    4    0    0  0.34716659464E+02  0.64674250955E+00 -0.81683078065E+02  0.88756915012E+02  0.00000000000E+00 0. -1.
        -13    1    3    3    0    0 -0.30966394032E+02  0.15489794198E+02 -0.35444648332E+01  0.34805380541E+02  0.00000000000E+00 0. -1.
         13    1    3    3    0    0  0.83710927800E+01  0.27005301535E+02 -0.14324559389E+03  0.14600911504E+03  0.00000000000E+00 0.  1.
          1    1    1    2  501    0  0.22488221870E+02 -0.72941965806E+02 -0.26464393759E+03  0.27543177776E+03  0.00000000000E+00 0. -1.
<scales pt_clust_5="13000.00000" pt_clust_6="13000.00000" pt_clust_7="13000.00000" pt_clust_8="13000.00000" pt_clust_9="13000.00000"></scales>
<clustering>
<clus scale="   79.922">  5  6 -1 -1</clus>
<clus scale="   76.330">  5  9 -1 -1</clus>
<clus scale="   93.969">  7  8 -1 -1</clus>
<clus scale="  105.577">  1  7  2 -1</clus>
<clus scale="  173.998">  2  5  1 -1</clus>
</clustering>
</event>
<event>
 9    2  0.6085395E-005  0.2074349E+03  0.7546771E-02  0.1168475E+00
         21   -1    0    0  501  502  0.00000000000E+00  0.00000000000E+00  0.32015324984E+02  0.32015324984E+02  0.00000000000E+00 0. -1.
          2   -1    0    0  502    0 -0.00000000000E+00 -0.00000000000E+00 -0.87608455550E+03  0.87608455550E+03  0.00000000000E+00 0. -1.
         23    2    1    2    0    0  0.39831068013E+02  0.35241579519E+02 -0.42507346739E+03  0.44056731477E+03  0.10287673817E+03 0.  0.
         24    2    1    2    0    0  0.22383167673E+01  0.61364155384E+02 -0.24245734147E+03  0.26193996986E+03  0.77822976989E+02 0.  0.
        -11    1    4    4    0    0 -0.21480424262E+02  0.29272889450E+02 -0.20154304682E+03  0.20478747619E+03  0.00000000000E+00 0.  1.
         12    1    4    4    0    0  0.23718741030E+02  0.32091265934E+02 -0.40914294647E+02  0.57152493661E+02  0.00000000000E+00 0. -1.
        -11    1    3    3    0    0  0.34000977844E+02 -0.24201035533E+02 -0.78692342108E+02  0.89074358385E+02  0.00000000000E+00 0.  1.
         11    1    3    3    0    0  0.58300901686E+01  0.59442615051E+02 -0.34638112528E+03  0.35149295639E+03  0.00000000000E+00 0. -1.
          1    1    1    2  501    0 -0.42069384780E+02 -0.96605734903E+02 -0.17653842166E+03  0.20559259586E+03  0.00000000000E+00 0. -1.
<scales pt_clust_5="13000.00000" pt_clust_6="13000.00000" pt_clust_7="13000.00000" pt_clust_8="13000.00000" pt_clust_9="13000.00000"></scales>
<clustering>
<clus scale="   77.823">  5  6 -1 -1</clus>
<clus scale="  102.877">  7  8 -1 -1</clus>
<clus scale="  105.368">  5  9 -1 -1</clus>
<clus scale="  115.811">  2  7  1 -1</clus>
<clus scale="  207.435">  1  5  2 -1</clus>
</clustering>
</event>
<event>
 9    2  0.6085395E-005  0.5179098E+03  0.7546771E-02  0.1060350E+00
          2   -1    0    0  502    0 -0.00000000000E+00  0.00000000000E+00  0.66840949942E+03  0.66840949942E+03  0.00000000000E+00 0. -1.
         21   -1    0    0  501  502  0.00000000000E+00 -0.00000000000E+00 -0.19111396543E+03  0.19111396543E+03  0.00000000000E+00 0. -1.
         23    2    1    2    0    0  0.20632155074E+02  0.66165678942E+02  0.28450606815E+03  0.30689484696E+03  0.91854022129E+02 0.  0.
         24    2    1    2    0    0 -0.25935876382E+02 -0.21052911274E+02 -0.16793864481E+03  0.18905185699E+03  0.80133148274E+02 0.  0.
        -11    1    4    4    0    0 -0.40346837788E+02 -0.27701339865E+01 -0.33219588199E+02  0.52336239852E+02  0.00000000000E+00 0.  1.
         12    1    4    4    0    0  0.14410961406E+02 -0.18282777288E+02 -0.13471905661E+03  0.13671561713E+03  0.00000000000E+00 0. -1.
        -11    1    3    3    0    0 -0.42539373948E+01  0.80937392226E+02  0.24402843317E+03  0.25713582722E+03  0.00000000000E+00 0. -1.
         11    1    3    3    0    0  0.24886092469E+02 -0.14771713284E+02  0.40477634978E+02  0.49759019737E+02  0.00000000000E+00 0.  1.
          1    1    1    2  501    0  0.53037213078E+01 -0.45112767668E+02  0.36072811064E+03  0.36357676091E+03  0.00000000000E+00 0. -1.
<scales pt_clust_5="13000.00000" pt_clust_6="13000.00000" pt_clust_7="13000.00000" pt_clust_8="13000.00000" pt_clust_9="13000.00000"></scales>
<clustering>
<clus scale="   80.133">  5  6 -1 -1</clus>
<clus scale="   45.423">  5  9 -1 -1</clus>
<clus scale="   91.854">  7  8 -1 -1</clus>
<clus scale="  115.068">  1  7  2 -1</clus>
<clus scale="  517.910">  2  5  1 -1</clus>
</clustering>
</event>
<event>
 9    2  0.6085395E-005  0.5428820E+03  0.7546771E-02  0.1027614E+00
          2   -1    0    0  502    0 -0.00000000000E+00  0.00000000000E+00  0.11750555816E+04  0.11750555816E+04  0.00000000000E+00 0. -1.
         21   -1    0    0  501  502  0.00000000000E+00 -0.00000000000E+00 -0.13945397687E+03  0.13945397687E+03  0.00000000000E+00 0. -1.
         23    2    1    2    0    0 -0.20629546466E+03  0.12340255726E+03  0.24275919059E+03  0.35361417889E+03  0.91241180490E+02 0.  0.
         24    2    1    2    0    0 -0.11009783200E+03 -0.92904106954E+01  0.51154108684E+02  0.14650736236E+03  0.81485090951E+02 0.  0.
        -11    1    4    4    0    0 -0.66456113873E+02  0.34689805633E+02  0.22694613516E+02  0.78325239665E+02  0.00000000000E+00 0.  1.
         12    1    4    4    0    0 -0.43641718126E+02 -0.43980216329E+02  0.28459495168E+02  0.68182122690E+02  0.00000000000E+00 0. -1.
        -13    1    3    3    0    0 -0.18093172503E+03  0.63589437826E+02  0.18941696217E+03  0.26955276160E+03  0.00000000000E+00 0. -1.
         13    1    3    3    0    0 -0.25363739627E+02  0.59813119434E+02  0.53342228422E+02  0.84061417294E+02  0.00000000000E+00 0.  1.
          1    1    1    2  501    0  0.31639329666E+03 -0.11411214657E+03  0.74168830549E+03  0.81438801726E+03  0.00000000000E+00 0. -1.
<scales pt_clust_5="13000.00000" pt_clust_6="13000.00000" pt_clust_7="13000.00000" pt_clust_8="13000.00000" pt_clust_9="13000.00000"></scales>
<clustering>
<clus scale="   81.485">  5  6 -1 -1</clus>
<clus scale="   91.241">  7  8 -1 -1</clus>
<clus scale="  257.121">  1  7  2 -1</clus>
<clus scale="  133.429">  5  9 -1 -1</clus>
<clus scale="  542.882">  2  5  1 -1</clus>
</clustering>
</event>
<event>
 9    2  0.6085395E-005  0.3491928E+03  0.7546771E-02  0.1108921E+00
         21   -1    0    0  501  502  0.00000000000E+00  0.00000000000E+00  0.16209863361E+03  0.16209863361E+03  0.00000000000E+00 0. -1.
          2   -1    0    0  502    0 -0.00000000000E+00 -0.00000000000E+00 -0.34741639617E+03  0.34741639617E+03  0.00000000000E+00 0. -1.
         23    2    1    2    0    0 -0.79196042107E+01  0.46198058346E+02  0.19922124662E+02  0.10447306992E+03  0.91218148199E+02 0.  0.
         24    2    1    2    0    0 -0.40475160684E+02 -0.37742628492E+02 -0.29069073206E+03  0.30647525938E+03  0.79769908291E+02 0.  0.
        -11    1    4    4    0    0 -0.28063581175E+02 -0.17011295331E+02 -0.29371381620E+02  0.44041194529E+02  0.00000000000E+00 0.  1.
         12    1    4    4    0    0 -0.12411579509E+02 -0.20731333161E+02 -0.26131935043E+03  0.26243406485E+03  0.00000000000E+00 0. -1.
        -13    1    3    3    0    0  0.27510334235E+02 -0.11679652998E+02 -0.82375644952E+01  0.31001455655E+02  0.00000000000E+00 0.  1.
         13    1    3    3    0    0 -0.35429938446E+02  0.57877711344E+02  0.28159689157E+02  0.73471614261E+02  0.00000000000E+00 0. -1.
          1    1    1    2  501    0  0.48394764895E+02 -0.84554298547E+01  0.85450844835E+02  0.98566700494E+02  0.00000000000E+00 0. -1.
<scales pt_clust_5="13000.00000" pt_clust_6="13000.00000" pt_clust_7="13000.00000" pt_clust_8="13000.00000" pt_clust_9="13000.00000"></scales>
<clustering>
<clus scale="   79.770">  5  6 -1 -1</clus>
<clus scale="   49.128">  5  9 -1 -1</clus>
<clus scale="   91.218">  7  8 -1 -1</clus>
<clus scale="  102.556">  2  7  1 -1</clus>
<clus scale="  349.193">  1  5  2 -1</clus>
</clustering>
</event>
<event>
 9    2  0.6085395E-005  0.2350404E+03  0.7546771E-02  0.1161010E+00
         21   -1    0    0  501  502  0.00000000000E+00  0.00000000000E+00  0.17051613206E+03  0.17051613206E+03  0.00000000000E+00 0.  1.
         -1   -1    0    0    0  501 -0.00000000000E+00 -0.00000000000E+00 -0.41025396552E+03  0.41025396552E+03  0.00000000000E+00 0.  1.
         23    2    1    2    0    0  0.30845571748E+02 -0.71764461177E+01 -0.31899894826E+03  0.33272509301E+03  0.89121870776E+02 0.  0.
         24    2    1    2    0    0 -0.46970185516E+02  0.79957635226E+02 -0.20197225579E+02  0.12375073226E+03  0.79415955928E+02 0.  0.
        -11    1    4    4    0    0 -0.46782711701E+02  0.89469211278E+02  0.50915884105E+00  0.10096346430E+03  0.00000000000E+00 0.  1.
         12    1    4    4    0    0 -0.18747381434E+00 -0.95115760517E+01 -0.20706384420E+02  0.22787267962E+02  0.00000000000E+00 0. -1.
        -13    1    3    3    0    0  0.57307331299E+02 -0.25089106738E+02 -0.21705351740E+03  0.22588896147E+03  0.00000000000E+00 0.  1.
         13    1    3    3    0    0 -0.26461759551E+02  0.17912660621E+02 -0.10194543086E+03  0.10683613154E+03  0.00000000000E+00 0. -1.
         -2    1    1    2    0  502  0.16124613767E+02 -0.72781189108E+02  0.99458340383E+02  0.12429427231E+03  0.00000000000E+00 0.  1.
<scales pt_clust_5="13000.00000" pt_clust_6="13000.00000" pt_clust_7="13000.00000" pt_clust_8="13000.00000" pt_clust_9="13000.00000"></scales>
<clustering>
<clus scale="   79.416">  5  6 -1 -1</clus>
<clus scale="   74.546">  5  9 -1 -1</clus>
<clus scale="   89.122">  7  8 -1 -1</clus>
<clus scale="   94.581">  2  7  1 -1</clus>
<clus scale="  235.040">  1  5  2 -1</clus>
</clustering>
</event>
<event>
 9    2  0.6085395E-005  0.2409993E+03  0.7546771E-02  0.1158148E+00
         -1   -1    0    0    0  501 -0.00000000000E+00  0.00000000000E+00  0.11141645904E+03  0.11141645904E+03  0.00000000000E+00 0.  1.
         21   -1    0    0  501  502  0.00000000000E+00 -0.00000000000E+00 -0.31141641001E+03  0.31141641001E+03  0.00000000000E+00 0.  1.
         23    2    1    2    0    0  0.23768868864E+02 -0.10290151239E+02 -0.14968059671E+03  0.17663644693E+03  0.90140484885E+02 0.  0.
         24    2    1    2    0    0  0.33510492001E+02 -0.34717922958E+02 -0.11602596126E+03  0.14809438276E+03  0.78368585977E+02 0.  0.
        -13    1    4    4    0    0  0.43852579257E+02 -0.52496540969E+02 -0.10334359854E+03  0.12393076648E+03  0.00000000000E+00 0.  1.
         14    1    4    4    0    0 -0.10342087256E+02  0.17778618011E+02 -0.12682362720E+02  0.24163616272E+02  0.00000000000E+00 0. -1.
        -13    1    3    3    0    0  0.51064606413E+02 -0.39915697440E+00 -0.45198634370E+02  0.68195820277E+02  0.00000000000E+00 0.  1.
         13    1    3    3    0    0 -0.27295737549E+02 -0.98909942642E+01 -0.10448196234E+03  0.10844062666E+03  0.00000000000E+00 0. -1.
         -2    1    1    2    0  502 -0.57279360865E+02  0.45008074197E+02  0.65706606997E+02  0.98102039363E+02  0.00000000000E+00 0.  1.
<scales pt_clust_5="13000.00000" pt_clust_6="13000.00000" pt_clust_7="13000.00000" pt_clust_8="13000.00000" pt_clust_9="13000.00000"></scales>
<clustering>
<clus scale="   78.369">  5  6 -1 -1</clus>
<clus scale="   72.847">  5  9 -1 -1</clus>
<clus scale="   90.140">  7  8 -1 -1</clus>
<clus scale="   93.788">  1  7  2 -1</clus>
<clus scale="  240.999">  2  5  1 -1</clus>
</clustering>
</event>
<event>
 9    2  0.6085395E-005  0.2471297E+03  0.7546771E-02  0.1153869E+00
         21   -1    0    0  501  502  0.00000000000E+00  0.00000000000E+00  0.11257854952E+03  0.11257854952E+03  0.00000000000E+00 0. -1.
          2   -1    0    0  502    0 -0.00000000000E+00 -0.00000000000E+00 -0.28978380375E+03  0.28978380375E+03  0.00000000000E+00 0. -1.
         23    2    1    2    0    0  0.30309426512E+02 -0.13173060081E+02 -0.11031464115E+03  0.14634001706E+03  0.90298890878E+02 0.  0.
         24    2    1    2    0    0 -0.13436253444E+02  0.52663892201E+02 -0.14066332134E+03  0.17066050473E+03  0.79905065271E+02 0.  0.
        -11    1    4    4    0    0 -0.41928765687E+02  0.67885693133E+01 -0.66820387462E+02  0.79177460466E+02  0.00000000000E+00 0.  1.
         12    1    4    4    0    0  0.28492512244E+02  0.45875322887E+02 -0.73842933874E+02  0.91483044260E+02  0.00000000000E+00 0. -1.
        -11    1    3    3    0    0  0.49343347747E+02 -0.54302621621E+01 -0.19671361654E+02  0.53396780646E+02  0.00000000000E+00 0.  1.
         11    1    3    3    0    0 -0.19033921236E+02 -0.77427979188E+01 -0.90643279498E+02  0.92943236416E+02  0.00000000000E+00 0. -1.
          1    1    1    2  501    0 -0.16873173068E+02 -0.39490832120E+02  0.73772708261E+02  0.85361831488E+02  0.00000000000E+00 0. -1.
<scales pt_clust_5="13000.00000" pt_clust_6="13000.00000" pt_clust_7="13000.00000" pt_clust_8="13000.00000" pt_clust_9="13000.00000"></scales>
<clustering>
<clus scale="   79.905">  5  6 -1 -1</clus>
<clus scale="   42.945">  5  9 -1 -1</clus>
<clus scale="   90.299">  7  8 -1 -1</clus>
<clus scale="   96.157">  2  7  1 -1</clus>
<clus scale="  247.130">  1  5  2 -1</clus>
</clustering>
</event>
<event>
 9    2  0.6085395E-005  0.3112065E+03  0.7546771E-02  0.1091790E+00
         21   -1    0    0  501  502  0.00000000000E+00  0.00000000000E+00  0.17351075993E+03  0.17351075993E+03  0.00000000000E+00 0.  1.
         -1   -1    0    0    0  501 -0.00000000000E+00 -0.00000000000E+00 -0.41575725692E+03  0.41575725692E+03  0.00000000000E+00 0.  1.
         23    2    1    2    0    0  0.18571988305E+03  0.90154403823E+02 -0.10597190852E+03  0.24953249005E+03  0.91742720181E+02 0.  0.
         24    2    1    2    0    0 -0.86508552076E+02 -0.13058172704E+03 -0.13367072350E+02  0.17669101086E+03  0.80658029222E+02 0.  0.
        -11    1    4    4    0    0 -0.50763177506E+02 -0.51228804549E+02  0.31587629897E+02  0.78734166463E+02  0.00000000000E+00 0.  1.
         12    1    4    4    0    0 -0.35745374570E+02 -0.79352922490E+02 -0.44954702248E+02  0.97956844401E+02  0.00000000000E+00 0. -1.
        -11    1    3    3    0    0  0.92658939279E+02  0.91555351370E+02 -0.80152553913E+02  0.15294604700E+03  0.00000000000E+00 0. -1.
         11    1    3    3    0    0  0.93060943773E+02 -0.14009475474E+01 -0.25819354612E+02  0.96586443057E+02  0.00000000000E+00 0.  1.
         -2    1    1    2    0  502 -0.99211330975E+02  0.40427323217E+02 -0.12290751612E+03  0.16304451593E+03  0.00000000000E+00 0.  1.
<scales pt_clust_5="13000.00000" pt_clust_6="13000.00000" pt_clust_7="13000.00000" pt_clust_8="13000.00000" pt_clust_9="13000.00000"></scales>
<clustering>
<clus scale="   80.658">  5  6 -1 -1</clus>
<clus scale="   91.743">  7  8 -1 -1</clus>
<clus scale="  107.132">  5  9 -1 -1</clus>
<clus scale="  225.912">  2  7  1 -1</clus>
<clus scale="  311.206">  1  5  2 -1</clus>
</clustering>
</event>
<event>
 9    2  0.6085395E-005  0.1707771E+03  0.7546771E-02  0.1183021E+00
          2   -1    0    0  502    0 -0.00000000000E+00  0.00000000000E+00  0.15532170031E+03  0.15532170031E+03  0.00000000000E+00 0. -1.
         21   -1    0    0  501  502  0.00000000000E+00 -0.00000000000E+00 -0.22900091166E+03  0.22900091166E+03  0.00000000000E+00 0. -1.
         23    2    1    2    0    0  0.74338616058E+02  0.94202879446E+02  0.66447696150E+02  0.16341452666E+03  0.88817784626E+02 0.  0.
         24    2    1    2    0    0 -0.54556816790E+02 -0.65054430121E+02 -0.14464942000E+03  0.18539182426E+03  0.78981951476E+02 0.  0.
        -11    1    4    4    0    0 -0.26661486808E+02 -0.10139833358E+02 -0.38311796206E+00  0.28527142841E+02  0.00000000000E+00 0.  1.
         12    1    4    4    0    0 -0.27895329983E+02 -0.54914596763E+02 -0.14426630204E+03  0.15686468142E+03  0.00000000000E+00 0. -1.
        -13    1    3    3    0    0 -0.48161698423E+01  0.48615977537E+02 -0.25804186995E+01  0.48922053559E+02  0.00000000000E+00 0.  1.
         13    1    3    3    0    0  0.79154785900E+02  0.45586901909E+02  0.69028114850E+02  0.11449247310E+03  0.00000000000E+00 0. -1.
          1    1    1    2  501    0 -0.19781799268E+02 -0.29148449325E+02  0.45225124946E+01  0.35516261058E+02  0.00000000000E+00 0. -1.
<scales pt_clust_5="13000.00000" pt_clust_6="13000.00000" pt_clust_7="13000.00000" pt_clust_8="13000.00000" pt_clust_9="13000.00000"></scales>
<clustering>
<clus scale="   78.982">  5  6 -1 -1</clus>
<clus scale="   35.227">  5  9 -1 -1</clus>
<clus scale="   88.818">  7  8 -1 -1</clus>
<clus scale="  149.295">  1  7  2 -1</clus>
<clus scale="  170.777">  2  5  1 -1</clus>
</clustering>
</event>
<event>
 9    2  0.6085395E-005  0.2795487E+03  0.7546771E-02  0.1132967E+00
         -1   -1    0    0    0  501 -0.00000000000E+00  0.00000000000E+00  0.57838591466E+03  0.57838591466E+03  0.00000000000E+00 0.  1.
         21   -1    0    0  501  502  0.00000000000E+00 -0.00000000000E+00 -0.74695705150E+02  0.74695705150E+02  0.00000000000E+00 0. -1.
         23    2    1    2    0    0 -0.45175904782E+02 -0.40908546011E+02  0.50773384068E+02  0.12084002803E+03  0.91159225182E+02 0.  0.
         24    2    1    2    0    0  0.21718504957E+02 -0.38719780943E+02  0.22918434335E+02  0.94303769232E+02  0.79981443880E+02 0.  0.
        -13    1    4    4    0    0  0.16464039899E+01 -0.61255867012E+02  0.14435858534E+02  0.62955427892E+02  0.00000000000E+00 0.  1.
         14    1    4    4    0    0  0.20072100967E+02  0.22536086069E+02  0.84825758005E+01  0.31348341340E+02  0.00000000000E+00 0. -1.
        -11    1    3    3    0    0  0.21333660942E+02 -0.33928687766E+02  0.32262870970E+02  0.51450692764E+02  0.00000000000E+00 0.  1.
         11    1    3    3    0    0 -0.66509565724E+02 -0.69798582457E+01  0.18510513098E+02  0.69389335269E+02  0.00000000000E+00 0. -1.
         -2    1    1    2    0  502  0.23457399825E+02  0.79628326955E+02  0.42999839111E+03  0.43793782254E+03  0.00000000000E+00 0.  1.
<scales pt_clust_5="13000.00000" pt_clust_6="13000.00000" pt_clust_7="13000.00000" pt_clust_8="13000.00000" pt_clust_9="13000.00000"></scales>
<clustering>
<clus scale="   79.981">  5  6 -1 -1</clus>
<clus scale="   83.012">  5  9 -1 -1</clus>
<clus scale="   91.159">  7  8 -1 -1</clus>
<clus scale="  109.656">  1  7  2 -1</clus>
<clus scale="  279.549">  2  5  1 -1</clus>
</clustering>
</event>
<event>
 9    2  0.6085395E-005  0.3198162E+03  0.7546771E-02  0.1082931E+00
         -3   -1    0    0    0  501 -0.00000000000E+00  0.00000000000E+00  0.21663761958E+03  0.21663761958E+03  0.00000000000E+00 0.  1.
         21   -1    0    0  501  502  0.00000000000E+00 -0.00000000000E+00 -0.47271434448E+03  0.47271434448E+03  0.00000000000E+00 0.  1.
         23    2    1    2    0    0 -0.18500578632E+03 -0.16754131754E+03 -0.25917326336E+03  0.36952076753E+03  0.84128372969E+02 0.  0.
         24    2    1    2    0    0  0.60591253255E+02  0.68889215164E+02 -0.74932372414E+02  0.14291391566E+03  0.79953129508E+02 0.  0.
        -11    1    4    4    0    0  0.38529097836E+02  0.21937365729E+02 -0.79300700674E+02  0.90853401271E+02  0.00000000000E+00 0.  1.
         12    1    4    4    0    0  0.22062155419E+02  0.46951849436E+02  0.43683282599E+01  0.52060514394E+02  0.00000000000E+00 0. -1.
        -11    1    3    3    0    0 -0.15975154048E+03 -0.93375517613E+02 -0.18113244570E+03  0.25893726047E+03  0.00000000000E+00 0.  1.
         11    1    3    3    0    0 -0.25254245839E+02 -0.74165799926E+02 -0.78040817666E+02  0.11058350706E+03  0.00000000000E+00 0. -1.
         -4    1    1    2    0  502  0.12441453306E+03  0.98652102375E+02  0.78028910876E+02  0.17691728088E+03  0.00000000000E+00 0.  1.
<scales pt_clust_5="13000.00000" pt_clust_6="13000.00000" pt_clust_7="13000.00000" pt_clust_8="13000.00000" pt_clust_9="13000.00000"></scales>
<clustering>
<clus scale="   79.953">  5  6 -1 -1</clus>
<clus scale="   84.128">  7  8 -1 -1</clus>
<clus scale="  158.780">  5  9 -1 -1</clus>
<clus scale="  263.391">  1  7  2 -1</clus>
<clus scale="  319.816">  2  5  1 -1</clus>
</clustering>
</event>
<event>
 9    2  0.6085395E-005  0.2009356E+03  0.7546771E-02  0.1168074E+00
          4   -1    0    0  502    0 -0.00000000000E+00  0.00000000000E+00  0.79371777349E+03  0.79371777349E+03  0.00000000000E+00 0. -1.
         21   -1    0    0  501  502  0.00000000000E+00 -0.00000000000E+00 -0.35155404737E+02  0.35155404737E+02  0.00000000000E+00 0. -1.
         23    2    1    2    0    0  0.87176443975E+02  0.22120261695E+02  0.23166042231E+03  0.26495760137E+03  0.91907240717E+02 0.  0.
         24    2    1    2    0    0 -0.58542801887E+01 -0.40756039123E+02  0.41721047672E+03  0.42610119062E+03  0.76172931181E+02 0.  0.
        -11    1    4    4    0    0 -0.42312050120E+00 -0.51914836905E+02  0.15240398880E+03  0.16100405313E+03  0.00000000000E+00 0.  1.
         12    1    4    4    0    0 -0.54311596875E+01  0.11158797781E+02  0.26480648792E+03  0.26509713750E+03  0.00000000000E+00 0. -1.
        -11    1    3    3    0    0  0.41475378461E+02  0.47203603067E+02  0.65311050612E+02  0.90630681852E+02  0.00000000000E+00 0. -1.
         11    1    3    3    0    0  0.45701065514E+02 -0.25083341371E+02  0.16634937170E+03  0.17432691952E+03  0.00000000000E+00 0.  1.
          3    1    1    2  501    0 -0.81322163787E+02  0.18635777428E+02  0.10969146972E+03  0.13781438623E+03  0.00000000000E+00 0. -1.
<scales pt_clust_5="13000.00000" pt_clust_6="13000.00000" pt_clust_7="13000.00000" pt_clust_8="13000.00000" pt_clust_9="13000.00000"></scales>
<clustering>
<clus scale="   76.173">  5  6 -1 -1</clus>
<clus scale="   83.430">  5  9 -1 -1</clus>
<clus scale="   91.907">  7  8 -1 -1</clus>
<clus scale="  128.592">  1  7  2 -1</clus>
<clus scale="  200.936">  2  5  1 -1</clus>
</clustering>
</event>
<event>
 9    2  0.6085395E-005  0.2070670E+03  0.7546771E-02  0.1167274E+00
         21   -1    0    0  501  502  0.00000000000E+00  0.00000000000E+00  0.52715294661E+03  0.52715294661E+03  0.00000000000E+00 0.  1.
         -1   -1    0    0    0  501 -0.00000000000E+00 -0.00000000000E+00 -0.71961107708E+02  0.71961107708E+02  0.00000000000E+00 0.  1.
         23    2    1    2    0    0  0.12648598217E+02  0.75924709682E+02  0.25843516020E+02  0.12244148688E+03  0.91648686905E+02 0.  0.
         24    2    1    2    0    0 -0.76755901250E+02 -0.69930157255E+02  0.18678157675E+03  0.22570582206E+03  0.72622761069E+02 0.  0.
        -13    1    4    4    0    0 -0.55530261920E+02 -0.47214468704E+02  0.17955845092E+03  0.19378868218E+03  0.00000000000E+00 0.  1.
         14    1    4    4    0    0 -0.21225639330E+02 -0.22715688551E+02  0.72231258372E+01  0.31917139881E+02  0.00000000000E+00 0. -1.
        -13    1    3    3    0    0  0.37183192986E+02  0.81066365720E+02  0.41388058807E+01  0.89283118258E+02  0.00000000000E+00 0. -1.
         13    1    3    3    0    0 -0.24534594769E+02 -0.51416560383E+01  0.21704710139E+02  0.33158368620E+02  0.00000000000E+00 0.  1.
         -2    1    1    2    0  502  0.64107303033E+02 -0.59945524266E+01  0.24256674612E+03  0.25096674538E+03  0.00000000000E+00 0.  1.
<scales pt_clust_5="13000.00000" pt_clust_6="13000.00000" pt_clust_7="13000.00000" pt_clust_8="13000.00000" pt_clust_9="13000.00000"></scales>
<clustering>
<clus scale="   72.623">  5  6 -1 -1</clus>
<clus scale="   64.387">  5  9 -1 -1</clus>
<clus scale="   91.649">  7  8 -1 -1</clus>
<clus scale="  119.683">  2  7  1 -1</clus>
<clus scale="  207.067">  1  5  2 -1</clus>
</clustering>
</event>
<event>
 9    2  0.6085395E-005  0.1620069E+03  0.7546771E-02  0.1201911E+00
          2   -1    0    0  502    0 -0.00000000000E+00  0.00000000000E+00  0.55702756115E+03  0.55702756115E+03  0.00000000000E+00 0. -1.
         21   -1    0    0  501  502  0.00000000000E+00 -0.00000000000E+00 -0.36408788497E+02  0.36408788497E+02  0.00000000000E+00 0. -1.
         23    2    1    2    0    0 -0.47334620726E+02 -0.56412920591E+02  0.28515575629E+03  0.30762336236E+03  0.88855747110E+02 0.  0.
         24    2    1    2    0    0 -0.12629588703E+02  0.63924304098E+01  0.14144834803E+03  0.16359795666E+03  0.80970899618E+02 0.  0.
        -13    1    4    4    0    0 -0.39519363197E+01 -0.29490882389E+02  0.11338708031E+03  0.11722610599E+03  0.00000000000E+00 0.  1.
         14    1    4    4    0    0 -0.86776523836E+01  0.35883312799E+02  0.28061267726E+02  0.46371850672E+02  0.00000000000E+00 0. -1.
        -13    1    3    3    0    0 -0.69538923908E+02 -0.26752904937E+02  0.22456153021E+03  0.23659936753E+03  0.00000000000E+00 0. -1.
         13    1    3    3    0    0  0.22204303182E+02 -0.29660015654E+02  0.60594226072E+02  0.71023994830E+02  0.00000000000E+00 0.  1.
          1    1    1    2  501    0  0.59964209430E+02  0.50020490181E+02  0.94014668340E+02  0.12221503064E+03  0.00000000000E+00 0. -1.
<scales pt_clust_5="13000.00000" pt_clust_6="13000.00000" pt_clust_7="13000.00000" pt_clust_8="13000.00000" pt_clust_9="13000.00000"></scales>
<clustering>
<clus scale="   80.971">  5  6 -1 -1</clus>
<clus scale="   78.088">  5  9 -1 -1</clus>
<clus scale="   88.856">  7  8 -1 -1</clus>
<clus scale="  115.405">  1  7  2 -1</clus>
<clus scale="  162.007">  2  5  1 -1</clus>
</clustering>
</event>
<event>
 9    2  0.6085395E-005  0.2611317E+03  0.7546771E-02  0.1141089E+00
          2   -1    0    0  502    0 -0.00000000000E+00  0.00000000000E+00  0.74499409639E+03  0.74499409639E+03  0.00000000000E+00 0. -1.
         21   -1    0    0  501  502  0.00000000000E+00 -0.00000000000E+00 -0.90431051021E+02  0.90431051021E+02  0.00000000000E+00 0. -1.
         23    2    1    2    0    0 -0.60482675327E+02 -0.19963976611E+02  0.53840598912E+03  0.54962416615E+03  0.90271814680E+02 0.  0.
         24    2    1    2    0    0  0.13528098837E+03 -0.18624480027E+02  0.30000037462E+02  0.16535643590E+03  0.88288909694E+02 0.  0.
        -11    1    4    4    0    0  0.13975600131E+02 -0.18502054791E+02  0.37203053036E+02  0.43837319554E+02  0.00000000000E+00 0.  1.
         12    1    4    4    0    0  0.12130538824E+03 -0.12242523545E+00 -0.72030155738E+01  0.12151911635E+03  0.00000000000E+00 0. -1.
        -13    1    3    3    0    0  0.23866578710E+02 -0.60581665678E+01  0.10268168928E+03  0.10559282302E+03  0.00000000000E+00 0.  1.
         13    1    3    3    0    0 -0.84349254037E+02 -0.13905810043E+02  0.43572429984E+03  0.44403134313E+03  0.00000000000E+00 0. -1.
          1    1    1    2  501    0 -0.74798313045E+02  0.38588456638E+02  0.86157018792E+02  0.12044454536E+03  0.00000000000E+00 0. -1.
<scales pt_clust_5="13000.00000" pt_clust_6="13000.00000" pt_clust_7="13000.00000" pt_clust_8="13000.00000" pt_clust_9="13000.00000"></scales>
<clustering>
<clus scale="   88.289">  5  6 -1 -1</clus>
<clus scale="   84.166">  5  9 -1 -1</clus>
<clus scale="   90.272">  7  8 -1 -1</clus>
<clus scale="  110.479">  1  7  2 -1</clus>
<clus scale="  261.132">  2  5  1 -1</clus>
</clustering>
</event>
<event>
 9    2  0.6085395E-005  0.2853035E+03  0.7546771E-02  0.1133926E+00
         -1   -1    0    0    0  501 -0.00000000000E+00  0.00000000000E+00  0.73026158698E+02  0.73026158698E+02  0.00000000000E+00 0.  1.
         21   -1    0    0  501  502  0.00000000000E+00 -0.00000000000E+00 -0.57258536164E+03  0.57258536164E+03  0.00000000000E+00 0. -1.
         23    2    1    2    0    0  0.65150059750E-01  0.14778827946E+02 -0.48340624308E+02  0.11176106870E+03  0.99675987672E+02 0.  0.
         24    2    1    2    0    0 -0.68223328772E+02  0.10275517527E+03 -0.26474957363E+03  0.30313315912E+03  0.81143864775E+02 0.  0.
        -13    1    4    4    0    0  0.17382347793E+02  0.15936956159E+02 -0.26331714155E+02  0.35348150684E+02  0.00000000000E+00 0.  1.
         14    1    4    4    0    0 -0.85605676565E+02  0.86818219112E+02 -0.23841785947E+03  0.26778500844E+03  0.00000000000E+00 0. -1.
        -11    1    3    3    0    0 -0.41352318778E+02 -0.18923233808E+02 -0.33051465079E+02  0.56218345671E+02  0.00000000000E+00 0.  1.
         11    1    3    3    0    0  0.41417468838E+02  0.33702061754E+02 -0.15289159229E+02  0.55542723028E+02  0.00000000000E+00 0. -1.
         -2    1    1    2    0  502  0.68158178712E+02 -0.11753400322E+03 -0.18646900500E+03  0.23071729251E+03  0.00000000000E+00 0.  1.
<scales pt_clust_5="13000.00000" pt_clust_6="13000.00000" pt_clust_7="13000.00000" pt_clust_8="13000.00000" pt_clust_9="13000.00000"></scales>
<clustering>
<clus scale="   81.144">  5  6 -1 -1</clus>
<clus scale="   99.676">  7  8 -1 -1</clus>
<clus scale="  100.766">  1  7  2 -1</clus>
<clus scale="  129.100">  5  9 -1 -1</clus>
<clus scale="  285.304">  2  5  1 -1</clus>
</clustering>
</event>
<event>
 9    2  0.6085395E-005  0.1474392E+04  0.7546771E-02  0.9237661E-01
         21   -1    0    0  501  502  0.00000000000E+00  0.00000000000E+00  0.38732809920E+03  0.38732809920E+03  0.00000000000E+00 0. -1.
          2   -1    0    0  502    0 -0.00000000000E+00 -0.00000000000E+00 -0.23819016224E+04  0.23819016224E+04  0.00000000000E+00 0. -1.
         23    2    1    2    0    0  0.13678971011E+02  0.39393679024E+03 -0.21559674297E+03  0.45869070234E+03  0.92422377598E+02 0.  0.
         24    2    1    2    0    0 -0.19519308532E+03  0.30657647915E+03  0.18890318793E+02  0.37250075337E+03  0.79438586271E+02 0.  0.
        -11    1    4    4    0    0 -0.49710490642E+02  0.14585645383E+03  0.22224006124E+02  0.15568925606E+03  0.00000000000E+00 0.  1.
         12    1    4    4    0    0 -0.14548259468E+03  0.16072002532E+03 -0.33336873309E+01  0.21681149731E+03  0.00000000000E+00 0. -1.
        -13    1    3    3    0    0 -0.33276051557E+02  0.69803490342E+02 -0.39466015768E+02  0.86818139071E+02  0.00000000000E+00 0.  1.
         13    1    3    3    0    0  0.46955022568E+02  0.32413329990E+03 -0.17613072720E+03  0.37187256327E+03  0.00000000000E+00 0. -1.
          1    1    1    2  501    0  0.18151411431E+03 -0.70051326939E+03 -0.17978670990E+04  0.19380382659E+04  0.00000000000E+00 0. -1.
<scales pt_clust_5="13000.00000" pt_clust_6="13000.00000" pt_clust_7="13000.00000" pt_clust_8="13000.00000" pt_clust_9="13000.00000"></scales>
<clustering>
<clus scale="   79.439">  5  6 -1 -1</clus>
<clus scale="   92.422">  7  8 -1 -1</clus>
<clus scale="  404.865">  2  7  1 -1</clus>
<clus scale="  392.014">  5  9 -1 -1</clus>
<clus scale=" 1474.392">  1  5  2 -1</clus>
</clustering>
</event>
<event>
 9    2  0.6085395E-005  0.1841886E+03  0.7546771E-02  0.1173331E+00
          2   -1    0    0  502    0 -0.00000000000E+00  0.00000000000E+00  0.62951796773E+02  0.62951796773E+02  0.00000000000E+00 0. -1.
         21   -1    0    0  501  502  0.00000000000E+00 -0.00000000000E+00 -0.45634860604E+03  0.45634860604E+03  0.00000000000E+00 0. -1.
         23    2    1    2    0    0 -0.70342661971E+02 -0.93709863897E+02 -0.12493773217E+03  0.19373056995E+03  0.90512254028E+02 0.  0.
         24    2    1    2    0    0  0.30468124261E+01  0.97112604995E+01 -0.12332154329E+03  0.14487838188E+03  0.75352178797E+02 0.  0.
        -11    1    4    4    0    0 -0.18602770407E+02 -0.10120906936E+02 -0.34417177872E+01  0.21455564438E+02  0.00000000000E+00 0.  1.
         12    1    4    4    0    0  0.21649582833E+02  0.19832167435E+02 -0.11987982550E+03  0.12342281744E+03  0.00000000000E+00 0. -1.
        -13    1    3    3    0    0 -0.88846449819E+02 -0.55501720777E+02 -0.79198953312E+02  0.13132633727E+03  0.00000000000E+00 0. -1.
         13    1    3    3    0    0  0.18503787847E+02 -0.38208143120E+02 -0.45738778859E+02  0.62404232684E+02  0.00000000000E+00 0.  1.
          1    1    1    2  501    0  0.67295849545E+02  0.83998603398E+02 -0.14513753380E+03  0.18069145098E+03  0.00000000000E+00 0. -1.
<scales pt_clust_5="13000.00000" pt_clust_6="13000.00000" pt_clust_7="13000.00000" pt_clust_8="13000.00000" pt_clust_9="13000.00000"></scales>
<clustering>
<clus scale="   75.352">  5  6 -1 -1</clus>
<clus scale="   90.512">  7  8 -1 -1</clus>
<clus scale="  107.631">  5  9 -1 -1</clus>
<clus scale="  148.061">  1  7  2 -1</clus>
<clus scale="  184.189">  2  5  1 -1</clus>
</clustering>
</event>
<event>
 9    2  0.6085395E-005  0.2441936E+03  0.7546771E-02  0.1131518E+00
         21   -1    0    0  501  502  0.00000000000E+00  0.00000000000E+00  0.18241536583E+03  0.18241536583E+03  0.00000000000E+00 0. -1.
          2   -1    0    0  502    0 -0.00000000000E+00 -0.00000000000E+00 -0.25223219997E+03  0.25223219997E+03  0.00000000000E+00 0. -1.
         23    2    1    2    0    0 -0.81789287956E+02 -0.11862641808E+03  0.25821288831E+02  0.17239356179E+03  0.91055403453E+02 0.  0.
         24    2    1    2    0    0  0.32747969619E+02 -0.23055405548E+02 -0.74855765004E+01  0.88329705814E+02  0.78371690261E+02 0.  0.
        -13    1    4    4    0    0  0.23498648751E+02 -0.52298488682E+02 -0.53617519830E+01  0.57585300172E+02  0.00000000000E+00 0.  1.
         14    1    4    4    0    0  0.92493208677E+01  0.29243083134E+02 -0.21238245174E+01  0.30744405642E+02  0.00000000000E+00 0. -1.
        -11    1    3    3    0    0 -0.50967386963E+02 -0.58386552972E+02  0.58640816127E+02  0.97187496201E+02  0.00000000000E+00 0. -1.
         11    1    3    3    0    0 -0.30821900993E+02 -0.60239865112E+02 -0.32819527295E+02  0.75206065589E+02  0.00000000000E+00 0.  1.
          1    1    1    2  501    0  0.49041318337E+02  0.14168182363E+03 -0.88152546468E+02  0.17392429819E+03  0.00000000000E+00 0. -1.
<scales pt_clust_5="13000.00000" pt_clust_6="13000.00000" pt_clust_7="13000.00000" pt_clust_8="13000.00000" pt_clust_9="13000.00000"></scales>
<clustering>
<clus scale="   78.372">  5  6 -1 -1</clus>
<clus scale="   91.055">  7  8 -1 -1</clus>
<clus scale="  149.929">  5  9 -1 -1</clus>
<clus scale="  170.449">  2  7  1 -1</clus>
<clus scale="  244.194">  1  5  2 -1</clus>
</clustering>
</event>
<event>
 9    2  0.6085395E-005  0.2082563E+03  0.7546771E-02  0.1176296E+00
          2   -1    0    0  502    0 -0.00000000000E+00  0.00000000000E+00  0.74636591858E+02  0.74636591858E+02  0.00000000000E+00 0. -1.
         21   -1    0    0  501  502  0.00000000000E+00 -0.00000000000E+00 -0.31119623305E+03  0.31119623305E+03  0.00000000000E+00 0.  1.
         23    2    1    2    0    0  0.25496717651E+00 -0.23318513084E+02 -0.87550217085E+02  0.12975761549E+03  0.92887998175E+02 0.  0.
         24    2    1    2    0    0 -0.18902352089E+02  0.50799685740E+02 -0.18415630712E+03  0.20771982503E+03  0.79347799409E+02 0.  0.
        -13    1    4    4    0    0  0.51263346904E+01  0.57147603553E+02 -0.68179033245E+02  0.89109530767E+02  0.00000000000E+00 0.  1.
         14    1    4    4    0    0 -0.24028686780E+02 -0.63479178126E+01 -0.11597727388E+03  0.11861029426E+03  0.00000000000E+00 0. -1.
        -11    1    3    3    0    0 -0.51307402663E+01 -0.56444957313E+02 -0.74818398984E+02  0.93862402102E+02  0.00000000000E+00 0.  1.
         11    1    3    3    0    0  0.53857074428E+01  0.33126444229E+02 -0.12731818101E+02  0.35895213387E+02  0.00000000000E+00 0. -1.
          1    1    1    2  501    0  0.18647384913E+02 -0.27481172656E+02  0.35146883011E+02  0.48355384395E+02  0.00000000000E+00 0. -1.
<scales pt_clust_5="13000.00000" pt_clust_6="13000.00000" pt_clust_7="13000.00000" pt_clust_8="13000.00000" pt_clust_9="13000.00000"></scales>
<clustering>
<clus scale="   79.348">  5  6 -1 -1</clus>
<clus scale="   33.211">  5  9 -1 -1</clus>
<clus scale="   92.888">  7  8 -1 -1</clus>
<clus scale="   95.771">  1  7  2 -1</clus>
<clus scale="  208.256">  2  5  1 -1</clus>
</clustering>
</event>
<event>
 9    2  0.6085395E-005  0.2915867E+03  0.7546771E-02  0.1132877E+00
         -3   -1    0    0    0  501 -0.00000000000E+00  0.00000000000E+00  0.37815407377E+03  0.37815407377E+03  0.00000000000E+00 0.  1.
         21   -1    0    0  501  502  0.00000000000E+00 -0.00000000000E+00 -0.10170285516E+03  0.10170285516E+03  0.00000000000E+00 0.  1.
         23    2    1    2    0    0  0.17811198682E+02 -0.25796046797E+02  0.41355084082E+02  0.10529984471E+03  0.91624993790E+02 0.  0.
         24    2    1    2    0    0 -0.61356806966E+02 -0.93749596029E+02  0.19945735825E+03  0.24243023952E+03  0.80221809714E+02 0.  0.
        -11    1    4    4    0    0 -0.76348612254E+02 -0.86107313877E+02  0.19238407918E+03  0.22417674727E+03  0.00000000000E+00 0.  1.
         12    1    4    4    0    0  0.14991805288E+02 -0.76422821519E+01  0.70732790788E+01  0.18253492247E+02  0.00000000000E+00 0. -1.
        -13    1    3    3    0    0 -0.16950393229E+02 -0.42235890656E+02  0.48146599054E+02  0.66251651229E+02  0.00000000000E+00 0. -1.
         13    1    3    3    0    0  0.34761591911E+02  0.16439843859E+02 -0.67915149725E+01  0.39048193478E+02  0.00000000000E+00 0.  1.
         -4    1    1    2    0  502  0.43545608284E+02  0.11954564283E+03  0.35638776271E+02  0.13212684471E+03  0.00000000000E+00 0.  1.
<scales pt_clust_5="13000.00000" pt_clust_6="13000.00000" pt_clust_7="13000.00000" pt_clust_8="13000.00000" pt_clust_9="13000.00000"></scales>
<clustering>
<clus scale="   80.222">  5  6 -1 -1</clus>
<clus scale="   91.625">  7  8 -1 -1</clus>
<clus scale="   96.839">  1  7  2 -1</clus>
<clus scale="  122.440">  5  9 -1 -1</clus>
<clus scale="  291.587">  2  5  1 -1</clus>
</clustering>
</event>
<event>
 9    2  0.6085395E-005  0.3910863E+03  0.7546771E-02  0.1096980E+00
          4   -1    0    0  502    0 -0.00000000000E+00  0.00000000000E+00  0.13731892173E+03  0.13731892173E+03  0.00000000000E+00 0. -1.
         21   -1    0    0  501  502  0.00000000000E+00 -0.00000000000E+00 -0.44750565100E+03  0.44750565100E+03  0.00000000000E+00 0. -1.
         23    2    1    2    0    0 -0.50898710542E+02  0.14516079219E+02 -0.30178994918E+02  0.10383309704E+03  0.84078207734E+02 0.  0.
         24    2    1    2    0    0 -0.52519763366E+02 -0.45107296008E+02  0.61312671831E+02  0.12303781534E+03  0.81154584457E+02 0.  0.
        -13    1    4    4    0    0  0.18546708624E+02 -0.16141603771E+02  0.33188722701E+02  0.41304032341E+02  0.00000000000E+00 0.  1.
         14    1    4    4    0    0 -0.71066471991E+02 -0.28965692237E+02  0.28123949130E+02  0.81733782995E+02  0.00000000000E+00 0. -1.
        -11    1    3    3    0    0 -0.16710195752E+02  0.45257107852E+02  0.10471690583E+01  0.48254875570E+02  0.00000000000E+00 0.  1.
         11    1    3    3    0    0 -0.34188514790E+02 -0.30741028634E+02 -0.31226163976E+02  0.55578221469E+02  0.00000000000E+00 0. -1.
          3    1    1    2  501    0  0.10341847391E+03  0.30591216789E+02 -0.34132040618E+03  0.35795366036E+03  0.00000000000E+00 0. -1.
<scales pt_clust_5="13000.00000" pt_clust_6="13000.00000" pt_clust_7="13000.00000" pt_clust_8="13000.00000" pt_clust_9="13000.00000"></scales>
<clustering>
<clus scale="   81.155">  5  6 -1 -1</clus>
<clus scale="   84.078">  7  8 -1 -1</clus>
<clus scale="   99.351">  1  7  2 -1</clus>
<clus scale="  104.176">  5  9 -1 -1</clus>
<clus scale="  391.086">  2  5  1 -1</clus>
</clustering>
</event>
<event>
 9    2  0.6085395E-005  0.2514145E+03  0.7546771E-02  0.1142123E+00
         21   -1    0    0  501  502  0.00000000000E+00  0.00000000000E+00  0.59118990284E+02  0.59118990284E+02  0.00000000000E+00 0. -1.
          4   -1    0    0  502    0 -0.00000000000E+00 -0.00000000000E+00 -0.68838331072E+03  0.68838331072E+03  0.00000000000E+00 0. -1.
         23    2    1    2    0    0 -0.16391380318E+01  0.72731730563E+02 -0.35720659145E+03  0.37706381380E+03  0.96374163026E+02 0.  0.
         24    2    1    2    0    0  0.14324874986E+02  0.14766528175E+02  0.56703261449E+00  0.83835741504E+02  0.81270275192E+02 0.  0.
        -13    1    4    4    0    0 -0.32142683802E+02  0.48475364028E+01 -0.12061456792E+02  0.34671738796E+02  0.00000000000E+00 0.  1.
         14    1    4    4    0    0  0.46467558789E+02  0.99189917725E+01  0.12628489407E+02  0.49164002708E+02  0.00000000000E+00 0. -1.
        -13    1    3    3    0    0  0.42567999730E+02  0.53065879941E+02 -0.25602168842E+03  0.26490588359E+03  0.00000000000E+00 0. -1.
         13    1    3    3    0    0 -0.44207137762E+02  0.19665850621E+02 -0.10118490303E+03  0.11215793021E+03  0.00000000000E+00 0.  1.
          3    1    1    2  501    0 -0.12685736955E+02 -0.87498258738E+02 -0.27262476161E+03  0.28660274570E+03  0.00000000000E+00 0. -1.
<scales pt_clust_5="13000.00000" pt_clust_6="13000.00000" pt_clust_7="13000.00000" pt_clust_8="13000.00000" pt_clust_9="13000.00000"></scales>
<clustering>
<clus scale="   81.270">  5  6 -1 -1</clus>
<clus scale="   88.413">  5  9 -1 -1</clus>
<clus scale="   96.374">  7  8 -1 -1</clus>
<clus scale="  120.750">  2  7  1 -1</clus>
<clus scale="  251.415">  1  5  2 -1</clus>
</clustering>
</event>
<event>
 9    2  0.6085395E-005  0.3043430E+03  0.7546771E-02  0.1122220E+00
         -3   -1    0    0    0  501 -0.00000000000E+00  0.00000000000E+00  0.60726192020E+02  0.60726192020E+02  0.00000000000E+00 0.  1.
         21   -1    0    0  501  502  0.00000000000E+00 -0.00000000000E+00 -0.70983092437E+03  0.70983092437E+03  0.00000000000E+00 0.  1.
         23    2    1    2    0    0  0.64987096932E+02 -0.30672877804E+01 -0.18144649860E+03  0.21258856451E+03  0.89656761515E+02 0.  0.
         24    2    1    2    0    0 -0.98077688916E+02  0.12310131821E+03 -0.32032077449E+03  0.36506577159E+03  0.76775330742E+02 0.  0.
        -13    1    4    4    0    0 -0.82762583074E+02  0.85952463129E+02 -0.29330331301E+03  0.31664539235E+03  0.00000000000E+00 0.  1.
         14    1    4    4    0    0 -0.15315105842E+02  0.37148855085E+02 -0.27017461479E+02  0.48420379241E+02  0.00000000000E+00 0. -1.
        -11    1    3    3    0    0  0.86356122195E+02 -0.75815683552E+01 -0.12549073547E+03  0.15252142377E+03  0.00000000000E+00 0.  1.
         11    1    3    3    0    0 -0.21369025263E+02  0.45142805748E+01 -0.55955763132E+02  0.60067140747E+02  0.00000000000E+00 0. -1.
         -4    1    1    2    0  502  0.33090591984E+02 -0.12003403043E+03 -0.14733745926E+03  0.19290278029E+03  0.00000000000E+00 0.  1.
<scales pt_clust_5="13000.00000" pt_clust_6="13000.00000" pt_clust_7="13000.00000" pt_clust_8="13000.00000" pt_clust_9="13000.00000"></scales>
<clustering>
<clus scale="   76.775">  5  6 -1 -1</clus>
<clus scale="   89.657">  7  8 -1 -1</clus>
<clus scale="  110.775">  1  7  2 -1</clus>
<clus scale="  138.283">  5  9 -1 -1</clus>
<clus scale="  304.343">  2  5  1 -1</clus>
</clustering>
</event>
<event>
 9    2  0.6085395E-005  0.5376886E+03  0.7546771E-02  0.1054883E+00
          2   -1    0    0  502    0 -0.00000000000E+00  0.00000000000E+00  0.26987682557E+03  0.26987682557E+03  0.00000000000E+00 0. -1.
         21   -1    0    0  501  502  0.00000000000E+00 -0.00000000000E+00 -0.40197878075E+03  0.40197878075E+03  0.00000000000E+00 0. -1.
         23    2    1    2    0    0 -0.49164162454E+02 -0.61862006994E+02 -0.89988775150E+01  0.12025486167E+03  0.90201048656E+02 0.  0.
         24    2    1    2    0    0 -0.76947857748E+02  0.19034456318E+03  0.11770378882E+03  0.25093489054E+03  0.83439270391E+02 0.  0.
        -11    1    4    4    0    0 -0.36799776401E+02  0.12253228749E+02  0.25432488209E+02  0.46380778502E+02  0.00000000000E+00 0.  1.
         12    1    4    4    0    0 -0.40148081348E+02  0.17809133443E+03  0.92271300612E+02  0.20455411204E+03  0.00000000000E+00 0. -1.
        -11    1    3    3    0    0  0.26171425053E+02 -0.23790796482E+02 -0.53125996898E+01  0.35765475001E+02  0.00000000000E+00 0.  1.
         11    1    3    3    0    0 -0.75335587507E+02 -0.38071210512E+02 -0.36862778252E+01  0.84489386665E+02  0.00000000000E+00 0. -1.
          1    1    1    2  501    0  0.12611202020E+03 -0.12848255619E+03 -0.24080686649E+03  0.30066585412E+03  0.00000000000E+00 0. -1.
<scales pt_clust_5="13000.00000" pt_clust_6="13000.00000" pt_clust_7="13000.00000" pt_clust_8="13000.00000" pt_clust_9="13000.00000"></scales>
<clustering>
<clus scale="   83.439">  5  6 -1 -1</clus>
<clus scale="   90.201">  7  8 -1 -1</clus>
<clus scale="  119.918">  1  7  2 -1</clus>
<clus scale="  181.720">  5  9 -1 -1</clus>
<clus scale="  537.689">  2  5  1 -1</clus>
</clustering>
</event>
<event>
 9    2  0.6085395E-005  0.1850262E+03  0.7546771E-02  0.1186420E+00
         21   -1    0    0  501  502  0.00000000000E+00  0.00000000000E+00  0.96553837832E+02  0.96553837832E+02  0.00000000000E+00 0.  1.
          2   -1    0    0  502    0 -0.00000000000E+00 -0.00000000000E+00 -0.41754737912E+03  0.41754737912E+03  0.00000000000E+00 0. -1.
         23    2    1    2    0    0  0.55506308113E+02  0.37221233210E+02  0.33807299618E+02  0.11395335154E+03  0.85884005362E+02 0.  0.
         24    2    1    2    0    0  0.28370657099E+01  0.29481422887E+02 -0.10304009220E+03  0.13324588305E+03  0.79120171340E+02 0.  0.
        -11    1    4    4    0    0  0.18445566333E+01 -0.26279369560E+02 -0.19394881211E+02  0.32713438688E+02  0.00000000000E+00 0.  1.
         12    1    4    4    0    0  0.99250907658E+00  0.55760792447E+02 -0.83645210989E+02  0.10053244436E+03  0.00000000000E+00 0. -1.
        -13    1    3    3    0    0  0.22266515154E+02  0.53193754158E+02 -0.79852159220E+01  0.58216293697E+02  0.00000000000E+00 0.  1.
         13    1    3    3    0    0  0.33239792959E+02 -0.15972520948E+02  0.41792515540E+02  0.55737057839E+02  0.00000000000E+00 0. -1.
          1    1    1    2  501    0 -0.58343373823E+02 -0.66702656097E+02 -0.25176074871E+03  0.26690198237E+03  0.00000000000E+00 0. -1.
<scales pt_clust_5="13000.00000" pt_clust_6="13000.00000" pt_clust_7="13000.00000" pt_clust_8="13000.00000" pt_clust_9="13000.00000"></scales>
<clustering>
<clus scale="   79.120">  5  6 -1 -1</clus>
<clus scale="   85.884">  7  8 -1 -1</clus>
<clus scale="   88.618">  5  9 -1 -1</clus>
<clus scale="  108.823">  2  7  1 -1</clus>
<clus scale="  185.026">  1  5  2 -1</clus>
</clustering>
</event>
<event>
 9    2  0.6085395E-005  0.2314270E+03  0.7546771E-02  0.1148355E+00
          2   -1    0    0  502    0 -0.00000000000E+00  0.00000000000E+00  0.20383726706E+03  0.20383726706E+03  0.00000000000E+00 0. -1.
         21   -1    0    0  501  502  0.00000000000E+00 -0.00000000000E+00 -0.24865881464E+03  0.24865881464E+03  0.00000000000E+00 0.  1.
         23    2    1    2    0    0  0.99865443345E+02 -0.30405345068E+01 -0.14788349269E+03  0.19915793741E+03  0.88385547457E+02 0.  0.
         24    2    1    2    0    0  0.31243246483E+02 -0.16406473259E+02  0.12447678569E+02  0.92780927200E+02  0.84900193961E+02 0.  0.
        -13    1    4    4    0    0  0.60419580808E+02 -0.10551843810E+02  0.14252674262E+02  0.62968292628E+02  0.00000000000E+00 0.  1.
         14    1    4    4    0    0 -0.29176334325E+02 -0.58546294493E+01 -0.18049956935E+01  0.29812634572E+02  0.00000000000E+00 0. -1.
        -11    1    3    3    0    0  0.72116875735E+02  0.31192654582E+02 -0.12936593284E+03  0.15135841584E+03  0.00000000000E+00 0.  1.
         11    1    3    3    0    0  0.27748567610E+02 -0.34233189089E+02 -0.18517559845E+02  0.47799521568E+02  0.00000000000E+00 0. -1.
          1    1    1    2  501    0 -0.13110868983E+03  0.19447007766E+02  0.90614266537E+02  0.16055721709E+03  0.00000000000E+00 0. -1.
<scales pt_clust_5="13000.00000" pt_clust_6="13000.00000" pt_clust_7="13000.00000" pt_clust_8="13000.00000" pt_clust_9="13000.00000"></scales>
<clustering>
<clus scale="   84.900">  5  6 -1 -1</clus>
<clus scale="   88.386">  7  8 -1 -1</clus>
<clus scale="  132.543">  5  9 -1 -1</clus>
<clus scale="  133.396">  1  7  2 -1</clus>
<clus scale="  231.427">  2  5  1 -1</clus>
</clustering>
</event>
<event>
 9    2  0.6085395E-005  0.1483383E+03  0.7546771E-02  0.1213706E+00
         -1   -1    0    0    0  501 -0.00000000000E+00  0.00000000000E+00  0.17792004729E+03  0.17792004729E+03  0.00000000000E+00 0.  1.
         21   -1    0    0  501  502  0.00000000000E+00 -0.00000000000E+00 -0.27176608301E+03  0.27176608301E+03  0.00000000000E+00 0.  1.
         23    2    1    2    0    0 -0.69290490692E+02  0.23628363139E+02  0.13404848505E+03  0.17776673275E+03  0.90953522642E+02 0.  0.
         24    2    1    2    0    0  0.65337111528E+02  0.55772362420E+01 -0.21742572203E+03  0.24064333659E+03  0.79594140084E+02 0.  0.
        -11    1    4    4    0    0  0.50200476869E+02 -0.27388530534E+02 -0.17849524019E+03  0.18743204169E+03  0.00000000000E+00 0.  1.
         12    1    4    4    0    0  0.15136634659E+02  0.32965766776E+02 -0.38930481845E+02  0.53211294897E+02  0.00000000000E+00 0. -1.
        -13    1    3    3    0    0 -0.10539568284E+02  0.31786553445E+02  0.26405249289E+01  0.33592258802E+02  0.00000000000E+00 0. -1.
         13    1    3    3    0    0 -0.58750922408E+02 -0.81581903058E+01  0.13140796012E+03  0.14417447394E+03  0.00000000000E+00 0.  1.
         -2    1    1    2    0  502  0.39533791643E+01 -0.29205599381E+02 -0.10468798740E+02  0.31276060959E+02  0.00000000000E+00 0.  1.
<scales pt_clust_5="13000.00000" pt_clust_6="13000.00000" pt_clust_7="13000.00000" pt_clust_8="13000.00000" pt_clust_9="13000.00000"></scales>
<clustering>
<clus scale="   79.594">  5  6 -1 -1</clus>
<clus scale="   29.472">  5  9 -1 -1</clus>
<clus scale="   90.954">  7  8 -1 -1</clus>
<clus scale="  116.756">  1  7  2 -1</clus>
<clus scale="  148.338">  2  5  1 -1</clus>
</clustering>
</event>
<event>
 9    2  0.6241863E-005  0.1847287E+03  0.7546771E-02  0.1189159E+00
         -3   -1    0    0    0  501 -0.00000000000E+00  0.00000000000E+00  0.65416816151E+03  0.65416816151E+03  0.00000000000E+00 0.  1.
         21   -1    0    0  501  502  0.00000000000E+00 -0.00000000000E+00 -0.36862872403E+02  0.36862872403E+02  0.00000000000E+00 0.  1.
         23    2    1    2    0    0 -0.46861072677E+02  0.97396188141E+01  0.35907349350E+03  0.37352770650E+03  0.91095298893E+02 0.  0.
         24    2    1    2    0    0  0.57221248823E+02  0.42389135259E+02  0.86817137672E+02  0.13803821881E+03  0.80288382434E+02 0.  0.
        -13    1    4    4    0    0  0.46001151277E+02  0.45801408244E+02  0.16809987812E+02  0.67055578487E+02  0.00000000000E+00 0.  1.
         14    1    4    4    0    0  0.11220097546E+02 -0.34122729849E+01  0.70007149859E+02  0.70982640324E+02  0.00000000000E+00 0. -1.
        -13    1    3    3    0    0  0.23435686314E+02 -0.11350487197E+02  0.57000189283E+02  0.62666470548E+02  0.00000000000E+00 0. -1.
         13    1    3    3    0    0 -0.70296758990E+02  0.21090106011E+02  0.30207330422E+03  0.31086123595E+03  0.00000000000E+00 0.  1.
         -4    1    1    2    0  502 -0.10360176147E+02 -0.52128754073E+02  0.17141465793E+03  0.17946510860E+03  0.00000000000E+00 0.  1.
<scales pt_clust_5="13000.00000" pt_clust_6="13000.00000" pt_clust_7="13000.00000" pt_clust_8="13000.00000" pt_clust_9="13000.00000"></scales>
<clustering>
<clus scale="   80.288">  5  6 -1 -1</clus>
<clus scale="   53.148">  5  9 -1 -1</clus>
<clus scale="   91.095">  7  8 -1 -1</clus>
<clus scale="  102.904">  1  7  2 -1</clus>
<clus scale="  184.729">  2  5  1 -1</clus>
</clustering>
</event>
<event>
 9    2  0.6085395E-005  0.2397078E+03  0.7546771E-02  0.1149464E+00
          2   -1    0    0  502    0 -0.00000000000E+00  0.00000000000E+00  0.13157729306E+03  0.13157729306E+03  0.00000000000E+00 0. -1.
         21   -1    0    0  501  502  0.00000000000E+00 -0.00000000000E+00 -0.25198138524E+03  0.25198138524E+03  0.00000000000E+00 0.  1.
         23    2    1    2    0    0  0.11251665938E+02 -0.72110696523E+02 -0.37785976504E+01  0.11698538297E+03  0.91349600380E+02 0.  0.
         24    2    1    2    0    0  0.34975805608E+02  0.41956817574E+02  0.36055070534E+02  0.10422308593E+03  0.81109814514E+02 0.  0.
        -13    1    4    4    0    0  0.55684525946E+02  0.35093864587E+02  0.45944653778E+02  0.80269900787E+02  0.00000000000E+00 0.  1.
         14    1    4    4    0    0 -0.20708720338E+02  0.68629529874E+01 -0.98895832438E+01  0.23953185143E+02  0.00000000000E+00 0. -1.
        -11    1    3    3    0    0 -0.13806580362E+02 -0.61615245734E+02 -0.37687901165E+02  0.73535284472E+02  0.00000000000E+00 0.  1.
         11    1    3    3    0    0  0.25058246300E+02 -0.10495450788E+02  0.33909303514E+02  0.43450098500E+02  0.00000000000E+00 0. -1.
          1    1    1    2  501    0 -0.46227471547E+02  0.30153878948E+02 -0.15268056506E+03  0.16235020939E+03  0.00000000000E+00 0. -1.
<scales pt_clust_5="13000.00000" pt_clust_6="13000.00000" pt_clust_7="13000.00000" pt_clust_8="13000.00000" pt_clust_9="13000.00000"></scales>
<clustering>
<clus scale="   81.110">  5  6 -1 -1</clus>
<clus scale="   55.193">  5  9 -1 -1</clus>
<clus scale="   91.350">  7  8 -1 -1</clus>
<clus scale="  116.924">  1  7  2 -1</clus>
<clus scale="  239.708">  2  5  1 -1</clus>
</clustering>
</event>
<event>
 9    2  0.6085395E-005  0.1462231E+03  0.7546771E-02  0.1225747E+00
          4   -1    0    0  502    0 -0.00000000000E+00  0.00000000000E+00  0.17834245773E+03  0.17834245773E+03  0.00000000000E+00 0. -1.
         21   -1    0    0  501  502  0.00000000000E+00 -0.00000000000E+00 -0.83374459786E+02  0.83374459786E+02  0.00000000000E+00 0. -1.
         23    2    1    2    0    0 -0.59385279890E+01  0.15456286226E+02  0.57571930901E+02  0.11078755674E+03  0.93194380743E+02 0.  0.
         24    2    1    2    0    0  0.26529699778E+02  0.52035704940E+01  0.68540322403E+02  0.10825863689E+03  0.79317429039E+02 0.  0.
        -11    1    4    4    0    0  0.51031900249E+02 -0.49441271749E+01  0.24439428726E+02  0.56797754472E+02  0.00000000000E+00 0.  1.
         12    1    4    4    0    0 -0.24502200471E+02  0.10147697669E+02  0.44100893677E+02  0.51460882416E+02  0.00000000000E+00 0. -1.
        -11    1    3    3    0    0 -0.16135400879E+02  0.53096787829E+02  0.36987521254E+02  0.66691054631E+02  0.00000000000E+00 0. -1.
         11    1    3    3    0    0  0.10196872890E+02 -0.37640501603E+02  0.20584409646E+02  0.44096502108E+02  0.00000000000E+00 0.  1.
          3    1    1    2  501    0 -0.20591171789E+02 -0.20659856720E+02 -0.31144255360E+02  0.42670723890E+02  0.00000000000E+00 0. -1.
<scales pt_clust_5="13000.00000" pt_clust_6="13000.00000" pt_clust_7="13000.00000" pt_clust_8="13000.00000" pt_clust_9="13000.00000"></scales>
<clustering>
<clus scale="   79.317">  5  6 -1 -1</clus>
<clus scale="   29.169">  5  9 -1 -1</clus>
<clus scale="   93.194">  7  8 -1 -1</clus>
<clus scale="   94.654">  1  7  2 -1</clus>
<clus scale="  146.223">  2  5  1 -1</clus>
</clustering>
</event>
<event>
 9    2  0.6085395E-005  0.5937019E+03  0.7546771E-02  0.1005322E+00
          2   -1    0    0  502    0 -0.00000000000E+00  0.00000000000E+00  0.93230724507E+03  0.93230724507E+03  0.00000000000E+00 0. -1.
         21   -1    0    0  501  502  0.00000000000E+00 -0.00000000000E+00 -0.28774176066E+03  0.28774176066E+03  0.00000000000E+00 0. -1.
         23    2    1    2    0    0 -0.16448356004E+03  0.33930892176E+03  0.70603804682E+02  0.39426815953E+03  0.90978560498E+02 0.  0.
         24    2    1    2    0    0 -0.60058044542E+02  0.57114361391E+02  0.35781999222E+02  0.12065126936E+03  0.80045976410E+02 0.  0.
        -13    1    4    4    0    0 -0.43582324200E+02  0.28859226135E+02  0.60279468360E+02  0.79786516540E+02  0.00000000000E+00 0.  1.
         14    1    4    4    0    0 -0.16475720342E+02  0.28255135256E+02 -0.24497469139E+02  0.40864752824E+02  0.00000000000E+00 0. -1.
        -13    1    3    3    0    0 -0.15335231090E+03  0.23240282168E+03  0.68603605759E+02  0.28676550962E+03  0.00000000000E+00 0.  1.
         13    1    3    3    0    0 -0.11131249144E+02  0.10690610008E+03  0.20001989233E+01  0.10750264991E+03  0.00000000000E+00 0. -1.
          1    1    1    2  501    0  0.22454160459E+03 -0.39642328316E+03  0.53817968051E+03  0.70512957684E+03  0.00000000000E+00 0. -1.
<scales pt_clust_5="13000.00000" pt_clust_6="13000.00000" pt_clust_7="13000.00000" pt_clust_8="13000.00000" pt_clust_9="13000.00000"></scales>
<clustering>
<clus scale="   80.046">  5  6 -1 -1</clus>
<clus scale="   90.979">  7  8 -1 -1</clus>
<clus scale="  387.895">  1  7  2 -1</clus>
<clus scale="  123.226">  5  9 -1 -1</clus>
<clus scale="  593.702">  2  5  1 -1</clus>
</clustering>
</event>
<event>
 9    2  0.6085395E-005  0.2385191E+03  0.7546771E-02  0.1157835E+00
         -1   -1    0    0    0  501 -0.00000000000E+00  0.00000000000E+00  0.67140039156E+02  0.67140039156E+02  0.00000000000E+00 0.  1.
         21   -1    0    0  501  502  0.00000000000E+00 -0.00000000000E+00 -0.42047430064E+03  0.42047430064E+03  0.00000000000E+00 0.  1.
         23    2    1    2    0    0 -0.29812342855E+02  0.16429291421E+02 -0.10693493367E+03  0.14467994461E+03  0.91315436429E+02 0.  0.
         24    2    1    2    0    0  0.63122149643E+02 -0.99488635804E+02 -0.12312938416E+03  0.19060620697E+03  0.85366776096E+02 0.  0.
        -13    1    4    4    0    0  0.16092147256E+02 -0.86266070343E+02 -0.10862914422E+03  0.13964627839E+03  0.00000000000E+00 0.  1.
         14    1    4    4    0    0  0.47030002386E+02 -0.13222565461E+02 -0.14500239943E+02  0.50959928574E+02  0.00000000000E+00 0. -1.
        -11    1    3    3    0    0 -0.19512364517E+02  0.37625860601E+02 -0.11271017211E+03  0.12041603154E+03  0.00000000000E+00 0.  1.
         11    1    3    3    0    0 -0.10299978337E+02 -0.21196569180E+02  0.57752384329E+01  0.24263913075E+02  0.00000000000E+00 0. -1.
         -2    1    1    2    0  502 -0.33309806788E+02  0.83059344383E+02 -0.12326994365E+03  0.15232818822E+03  0.00000000000E+00 0.  1.
<scales pt_clust_5="13000.00000" pt_clust_6="13000.00000" pt_clust_7="13000.00000" pt_clust_8="13000.00000" pt_clust_9="13000.00000"></scales>
<clustering>
<clus scale="   85.367">  5  6 -1 -1</clus>
<clus scale="   89.490">  5  9 -1 -1</clus>
<clus scale="   91.315">  7  8 -1 -1</clus>
<clus scale="   97.454">  1  7  2 -1</clus>
<clus scale="  238.519">  2  5  1 -1</clus>
</clustering>
</event>
<event>
 9    2  0.6085395E-005  0.1831858E+03  0.7546771E-02  0.1167729E+00
         21   -1    0    0  501  502  0.00000000000E+00  0.00000000000E+00  0.36118257468E+02  0.36118257468E+02  0.00000000000E+00 0. -1.
          2   -1    0    0  502    0 -0.00000000000E+00 -0.00000000000E+00 -0.10792243765E+04  0.10792243765E+04  0.00000000000E+00 0. -1.
         23    2    1    2    0    0  0.13956671631E+03  0.26775627419E+02 -0.75342810652E+03  0.77260311771E+03  0.95214827013E+02 0.  0.
         24    2    1    2    0    0 -0.72743542623E+02  0.22398388367E+01 -0.13195560321E+03  0.16900525879E+03  0.76510498675E+02 0.  0.
        -13    1    4    4    0    0 -0.69968986476E+02  0.12332741919E+01 -0.14212330044E+03  0.15841784168E+03  0.00000000000E+00 0.  1.
         14    1    4    4    0    0 -0.27745561476E+01  0.10065646448E+01  0.10167697227E+02  0.10587417112E+02  0.00000000000E+00 0. -1.
        -11    1    3    3    0    0 -0.26444140478E+01 -0.20226148992E+02 -0.67592799337E+02  0.70603658198E+02  0.00000000000E+00 0.  1.
         11    1    3    3    0    0  0.14221113036E+03  0.47001776410E+02 -0.68583530718E+03  0.70199945951E+03  0.00000000000E+00 0. -1.
          1    1    1    2  501    0 -0.66823173685E+02 -0.29015466255E+02 -0.15772240934E+03  0.17373425750E+03  0.00000000000E+00 0. -1.
<scales pt_clust_5="13000.00000" pt_clust_6="13000.00000" pt_clust_7="13000.00000" pt_clust_8="13000.00000" pt_clust_9="13000.00000"></scales>
<clustering>
<clus scale="   76.510">  5  6 -1 -1</clus>
<clus scale="   72.851">  5  9 -1 -1</clus>
<clus scale="   95.215">  7  8 -1 -1</clus>
<clus scale="  171.060">  2  7  1 -1</clus>
<clus scale="  183.186">  1  5  2 -1</clus>
</clustering>
</event>
<event>
 9    2  0.6085395E-005  0.1795502E+03  0.7546771E-02  0.1207285E+00
         -1   -1    0    0    0  501 -0.00000000000E+00  0.00000000000E+00  0.31776760200E+03  0.31776760200E+03  0.00000000000E+00 0.  1.
         21   -1    0    0  501  502  0.00000000000E+00 -0.00000000000E+00 -0.51791125182E+02  0.51791125182E+02  0.00000000000E+00 0. -1.
         23    2    1    2    0    0 -0.42453315692E+01  0.96706402570E+01  0.61031068997E+02  0.97086877535E+02  0.74763134521E+02 0.  0.
         24    2    1    2    0    0  0.66810060405E+02  0.15520276600E+02  0.15525538415E+03  0.18869819007E+03  0.82451861540E+02 0.  0.
        -11    1    4    4    0    0  0.84116428597E+02  0.52721325335E+00  0.12696970479E+03  0.15230613070E+03  0.00000000000E+00 0.  1.
         12    1    4    4    0    0 -0.17306368192E+02  0.14993063347E+02  0.28285679353E+02  0.36392059367E+02  0.00000000000E+00 0. -1.
        -11    1    3    3    0    0 -0.19629414387E+02  0.38274909281E+02  0.35619019815E+02  0.55847982615E+02  0.00000000000E+00 0. -1.
         11    1    3    3    0    0  0.15384082817E+02 -0.28604269024E+02  0.25412049183E+02  0.41238894920E+02  0.00000000000E+00 0.  1.
         -2    1    1    2    0  502 -0.62564728836E+02 -0.25190916857E+02  0.49690023672E+02  0.83773659577E+02  0.00000000000E+00 0.  1.
<scales pt_clust_5="13000.00000" pt_clust_6="13000.00000" pt_clust_7="13000.00000" pt_clust_8="13000.00000" pt_clust_9="13000.00000"></scales>
<clustering>
<clus scale="   74.763">  7  8 -1 -1</clus>
<clus scale="   75.505">  1  7  2 -1</clus>
<clus scale="   82.452">  5  6 -1 -1</clus>
<clus scale="   67.601">  5  9 -1 -1</clus>
<clus scale="  179.550">  2  5  1 -1</clus>
</clustering>
</event>
<event>
 9    2  0.6085395E-005  0.3116122E+03  0.7546771E-02  0.1119283E+00
         21   -1    0    0  501  502  0.00000000000E+00  0.00000000000E+00  0.21865122087E+03  0.21865122087E+03  0.00000000000E+00 0. -1.
          4   -1    0    0  502    0 -0.00000000000E+00 -0.00000000000E+00 -0.22274735653E+03  0.22274735653E+03  0.00000000000E+00 0. -1.
         23    2    1    2    0    0 -0.95791061046E+01  0.26280517310E+02 -0.57794161236E+02  0.12519348091E+03  0.10747473064E+03 0.  0.
         24    2    1    2    0    0 -0.50603669940E+02  0.10285470080E+03 -0.17674686982E+02  0.15685662557E+03  0.10560201484E+03 0.  0.
        -13    1    4    4    0    0  0.23034604480E+01  0.43278000875E+02 -0.54040378980E+02  0.69272316621E+02  0.00000000000E+00 0.  1.
         14    1    4    4    0    0 -0.52907130388E+02  0.59576699922E+02  0.36365691998E+02  0.87584308948E+02  0.00000000000E+00 0. -1.
        -11    1    3    3    0    0 -0.37136375068E+02 -0.23444923977E+02 -0.51975248320E+02  0.68045582160E+02  0.00000000000E+00 0. -1.
         11    1    3    3    0    0  0.27557268963E+02  0.49725441288E+02 -0.58189129156E+01  0.57147898749E+02  0.00000000000E+00 0.  1.
          3    1    1    2  501    0  0.60182776044E+02 -0.12913521811E+03  0.71372712557E+02  0.15934847092E+03  0.00000000000E+00 0. -1.
<scales pt_clust_5="13000.00000" pt_clust_6="13000.00000" pt_clust_7="13000.00000" pt_clust_8="13000.00000" pt_clust_9="13000.00000"></scales>
<clustering>
<clus scale="  105.602">  5  6 -1 -1</clus>
<clus scale="  107.475">  7  8 -1 -1</clus>
<clus scale="  111.055">  2  7  1 -1</clus>
<clus scale="  133.134">  5  9 -1 -1</clus>
<clus scale="  311.612">  1  5  2 -1</clus>
</clustering>
</event>
<event>
 9    2  0.6085395E-005  0.1596830E+03  0.7546771E-02  0.1196009E+00
         -1   -1    0    0    0  501 -0.00000000000E+00  0.00000000000E+00  0.88611166231E+02  0.88611166231E+02  0.00000000000E+00 0.  1.
         21   -1    0    0  501  502  0.00000000000E+00 -0.00000000000E+00 -0.35042818619E+03  0.35042818619E+03  0.00000000000E+00 0.  1.
         23    2    1    2    0    0 -0.93875294314E+02 -0.39699180146E+02 -0.56134771671E+01  0.13714713340E+03  0.91592735995E+02 0.  0.
         24    2    1    2    0    0  0.65074661029E+02 -0.13106907327E+02 -0.16163608868E+03  0.18981651813E+03  0.74145686761E+02 0.  0.
        -11    1    4    4    0    0  0.31261136457E+02 -0.30126879187E+02 -0.13919664085E+03  0.14581012422E+03  0.00000000000E+00 0.  1.
         12    1    4    4    0    0  0.33813524572E+02  0.17019971860E+02 -0.22439447829E+02  0.44006393910E+02  0.00000000000E+00 0. -1.
        -13    1    3    3    0    0 -0.35551849500E+02  0.19419400283E+02 -0.30211340719E+02  0.50534861416E+02  0.00000000000E+00 0.  1.
         13    1    3    3    0    0 -0.58323444814E+02 -0.59118580430E+02  0.24597863552E+02  0.86612271985E+02  0.00000000000E+00 0. -1.
         -2    1    1    2    0  502  0.28800633286E+02  0.52806087473E+02 -0.94567454108E+02  0.11207570088E+03  0.00000000000E+00 0.  1.
<scales pt_clust_5="13000.00000" pt_clust_6="13000.00000" pt_clust_7="13000.00000" pt_clust_8="13000.00000" pt_clust_9="13000.00000"></scales>
<clustering>
<clus scale="   74.146">  5  6 -1 -1</clus>
<clus scale="   60.150">  5  9 -1 -1</clus>
<clus scale="   91.593">  7  8 -1 -1</clus>
<clus scale="  137.032">  1  7  2 -1</clus>
<clus scale="  159.683">  2  5  1 -1</clus>
</clustering>
</event>
<event>
 9    2  0.6085395E-005  0.2944827E+03  0.7546771E-02  0.1097722E+00
         21   -1    0    0  501  502  0.00000000000E+00  0.00000000000E+00  0.74642174663E+02  0.74642174663E+02  0.00000000000E+00 0. -1.
          2   -1    0    0  502    0 -0.00000000000E+00 -0.00000000000E+00 -0.91860752169E+03  0.91860752169E+03  0.00000000000E+00 0. -1.
         23    2    1    2    0    0 -0.18749299864E+03 -0.93835475707E+02 -0.33863004327E+03  0.40837036394E+03  0.90207133297E+02 0.  0.
         24    2    1    2    0    0  0.14006462466E+02  0.21274159976E+02 -0.64351446580E+02  0.10547398715E+03  0.79591974569E+02 0.  0.
        -11    1    4    4    0    0 -0.32218363324E+02  0.15322229901E+02 -0.18896495898E+02  0.40371663598E+02  0.00000000000E+00 0.  1.
         12    1    4    4    0    0  0.46224825790E+02  0.59519300752E+01 -0.45454950682E+02  0.65102323557E+02  0.00000000000E+00 0. -1.
        -11    1    3    3    0    0 -0.15501002165E+03 -0.11029337877E+03 -0.26487472391E+03  0.32611555556E+03  0.00000000000E+00 0. -1.
         11    1    3    3    0    0 -0.32482976985E+02  0.16457903061E+02 -0.73755319363E+02  0.82254808378E+02  0.00000000000E+00 0.  1.
          1    1    1    2  501    0  0.17348653617E+03  0.72561315731E+02 -0.44098385718E+03  0.47940534526E+03  0.00000000000E+00 0. -1.
<scales pt_clust_5="13000.00000" pt_clust_6="13000.00000" pt_clust_7="13000.00000" pt_clust_8="13000.00000" pt_clust_9="13000.00000"></scales>
<clustering>
<clus scale="   79.592">  5  6 -1 -1</clus>
<clus scale="   90.207">  7  8 -1 -1</clus>
<clus scale="  188.050">  5  9 -1 -1</clus>
<clus scale="  228.246">  2  7  1 -1</clus>
<clus scale="  294.483">  1  5  2 -1</clus>
</clustering>
</event>
<event>
 9    2  0.6085395E-005  0.2713771E+03  0.7546771E-02  0.1138681E+00
         21   -1    0    0  501  502  0.00000000000E+00  0.00000000000E+00  0.65912556849E+02  0.65912556849E+02  0.00000000000E+00 0. -1.
          2   -1    0    0  502    0 -0.00000000000E+00 -0.00000000000E+00 -0.53545873266E+03  0.53545873266E+03  0.00000000000E+00 0. -1.
         23    2    1    2    0    0  0.47509780287E+02  0.29387464518E+02 -0.12689058640E+03  0.16426900496E+03  0.88103818198E+02 0.  0.
         24    2    1    2    0    0 -0.11873909330E+03  0.23086681811E+02 -0.95529864924E+02  0.17461747590E+03  0.82056935386E+02 0.  0.
        -11    1    4    4    0    0 -0.34040121202E+02  0.37409512213E+02 -0.66559114482E+01  0.51014729370E+02  0.00000000000E+00 0.  1.
         12    1    4    4    0    0 -0.84698972093E+02 -0.14322830402E+02 -0.88873953475E+02  0.12360274653E+03  0.00000000000E+00 0. -1.
        -11    1    3    3    0    0 -0.23743780046E+02  0.12139338991E+00 -0.13881487011E+02  0.27504136214E+02  0.00000000000E+00 0.  1.
         11    1    3    3    0    0  0.71253560333E+02  0.29266071128E+02 -0.11300909939E+03  0.13676486875E+03  0.00000000000E+00 0. -1.
          1    1    1    2  501    0  0.71229313008E+02 -0.52474146329E+02 -0.24712572449E+03  0.26248480865E+03  0.00000000000E+00 0. -1.
<scales pt_clust_5="13000.00000" pt_clust_6="13000.00000" pt_clust_7="13000.00000" pt_clust_8="13000.00000" pt_clust_9="13000.00000"></scales>
<clustering>
<clus scale="   82.057">  5  6 -1 -1</clus>
<clus scale="   88.104">  7  8 -1 -1</clus>
<clus scale="   88.471">  5  9 -1 -1</clus>
<clus scale="  104.322">  2  7  1 -1</clus>
<clus scale="  271.377">  1  5  2 -1</clus>
</clustering>
</event>
<event>
 9    2  0.6085395E-005  0.1525097E+03  0.7546771E-02  0.1213093E+00
         21   -1    0    0  501  502  0.00000000000E+00  0.00000000000E+00  0.25252837480E+03  0.25252837480E+03  0.00000000000E+00 0. -1.
         -1   -1    0    0    0  501 -0.00000000000E+00 -0.00000000000E+00 -0.68454010497E+02  0.68454010497E+02  0.00000000000E+00 0.  1.
         23    2    1    2    0    0 -0.73516202880E+02  0.11738884722E+02  0.94309770646E+02  0.14401663183E+03  0.79397883506E+02 0.  0.
         24    2    1    2    0    0  0.36192026750E+02 -0.45177178451E+02  0.42393996548E+02  0.10800788892E+03  0.80731733993E+02 0.  0.
        -13    1    4    4    0    0  0.10522332427E+02 -0.64423430234E+02  0.38249159942E+02  0.75657756239E+02  0.00000000000E+00 0.  1.
         14    1    4    4    0    0  0.25669694323E+02  0.19246251783E+02  0.41448366059E+01  0.32350132686E+02  0.00000000000E+00 0. -1.
        -13    1    3    3    0    0 -0.98932629619E+01  0.29593290828E+02  0.30603618157E+01  0.31352915789E+02  0.00000000000E+00 0.  1.
         13    1    3    3    0    0 -0.63622939918E+02 -0.17854406106E+02  0.91249408830E+02  0.11266371605E+03  0.00000000000E+00 0. -1.
         -2    1    1    2    0  502  0.37324176130E+02  0.33438293729E+02  0.47370597111E+02  0.68957864540E+02  0.00000000000E+00 0.  1.
<scales pt_clust_5="13000.00000" pt_clust_6="13000.00000" pt_clust_7="13000.00000" pt_clust_8="13000.00000" pt_clust_9="13000.00000"></scales>
<clustering>
<clus scale="   79.398">  7  8 -1 -1</clus>
<clus scale="   80.732">  5  6 -1 -1</clus>
<clus scale="   50.112">  5  9 -1 -1</clus>
<clus scale="  108.841">  2  7  1 -1</clus>
<clus scale="  152.510">  1  5  2 -1</clus>
</clustering>
</event>
<event>
 9    2  0.6085395E-005  0.2055003E+03  0.7546771E-02  0.1166015E+00
          4   -1    0    0  502    0 -0.00000000000E+00  0.00000000000E+00  0.16213992252E+03  0.16213992252E+03  0.00000000000E+00 0. -1.
         21   -1    0    0  501  502  0.00000000000E+00 -0.00000000000E+00 -0.19998496303E+03  0.19998496303E+03  0.00000000000E+00 0. -1.
         23    2    1    2    0    0  0.76886223313E+02  0.39952593981E+02  0.53890386593E+02  0.13707875972E+03  0.91535301921E+02 0.  0.
         24    2    1    2    0    0 -0.24002249984E+01 -0.40909105943E+02 -0.11656068505E+03  0.14652624113E+03  0.78766934765E+02 0.  0.
        -11    1    4    4    0    0 -0.35154793465E+02 -0.26334817375E+02 -0.31011678878E+02  0.53769009072E+02  0.00000000000E+00 0.  1.
         12    1    4    4    0    0  0.32754568467E+02 -0.14574288568E+02 -0.85549006169E+02  0.92757232059E+02  0.00000000000E+00 0. -1.
        -13    1    3    3    0    0  0.59855122473E+02  0.58789967161E+02  0.68029064774E+02  0.10801319169E+03  0.00000000000E+00 0. -1.
         13    1    3    3    0    0  0.17031100840E+02 -0.18837373179E+02 -0.14138678182E+02  0.29065568029E+02  0.00000000000E+00 0.  1.
          3    1    1    2  501    0 -0.74485998315E+02  0.95651196190E+00  0.24825257943E+02  0.78519884692E+02  0.00000000000E+00 0. -1.
<scales pt_clust_5="13000.00000" pt_clust_6="13000.00000" pt_clust_7="13000.00000" pt_clust_8="13000.00000" pt_clust_9="13000.00000"></scales>
<clustering>
<clus scale="   78.767">  5  6 -1 -1</clus>
<clus scale="   74.492">  5  9 -1 -1</clus>
<clus scale="   91.535">  7  8 -1 -1</clus>
<clus scale="  126.041">  1  7  2 -1</clus>
<clus scale="  205.500">  2  5  1 -1</clus>
</clustering>
</event>
<event>
 9    2  0.6085395E-005  0.2477754E+03  0.7546771E-02  0.1148397E+00
         21   -1    0    0  501  502  0.00000000000E+00  0.00000000000E+00  0.94670502149E+02  0.94670502149E+02  0.00000000000E+00 0. -1.
          4   -1    0    0  502    0 -0.00000000000E+00 -0.00000000000E+00 -0.35197454296E+03  0.35197454296E+03  0.00000000000E+00 0. -1.
         23    2    1    2    0    0 -0.16423566429E+02 -0.56596306786E+02 -0.35915716736E+02  0.11437189860E+03  0.91203711569E+02 0.  0.
         24    2    1    2    0    0  0.39736213280E+02 -0.62338104271E+02 -0.45582235767E+02  0.11873941540E+03  0.80970998896E+02 0.  0.
        -11    1    4    4    0    0  0.23496544268E+02 -0.15939443429E+02  0.21470730461E+02  0.35596990265E+02  0.00000000000E+00 0.  1.
         12    1    4    4    0    0  0.16239669012E+02 -0.46398660841E+02 -0.67052966228E+02  0.83142425136E+02  0.00000000000E+00 0. -1.
        -11    1    3    3    0    0  0.70654309165E+01 -0.72854248069E+02 -0.66856373405E+01  0.73500745047E+02  0.00000000000E+00 0. -1.
         11    1    3    3    0    0 -0.23488997345E+02  0.16257941283E+02 -0.29230079396E+02  0.40871153550E+02  0.00000000000E+00 0.  1.
          3    1    1    2  501    0 -0.23312646851E+02  0.11893441106E+03 -0.17580608831E+03  0.21353373111E+03  0.00000000000E+00 0. -1.
<scales pt_clust_5="13000.00000" pt_clust_6="13000.00000" pt_clust_7="13000.00000" pt_clust_8="13000.00000" pt_clust_9="13000.00000"></scales>
<clustering>
<clus scale="   80.971">  5  6 -1 -1</clus>
<clus scale="   91.204">  7  8 -1 -1</clus>
<clus scale="  108.586">  2  7  1 -1</clus>
<clus scale="   86.474">  5  9 -1 -1</clus>
<clus scale="  247.775">  1  5  2 -1</clus>
</clustering>
</event>
<event>
 9    2  0.6085395E-005  0.1293026E+03  0.7546771E-02  0.1239681E+00
          2   -1    0    0  502    0 -0.00000000000E+00  0.00000000000E+00  0.48978821143E+03  0.48978821143E+03  0.00000000000E+00 0. -1.
         21   -1    0    0  501  502  0.00000000000E+00 -0.00000000000E+00 -0.29946525076E+02  0.29946525076E+02  0.00000000000E+00 0. -1.
         23    2    1    2    0    0  0.37921946813E+02  0.39492806081E+01  0.27970540006E+03  0.29799557340E+03  0.95459834871E+02 0.  0.
         24    2    1    2    0    0  0.52070518605E+01 -0.54643215402E+00  0.14782879120E+03  0.16774412497E+03  0.79103274135E+02 0.  0.
        -11    1    4    4    0    0 -0.27642159307E+02  0.29861153180E+01  0.12382054382E+03  0.12690363639E+03  0.00000000000E+00 0.  1.
         12    1    4    4    0    0  0.32849211167E+02 -0.35325474720E+01  0.24008247377E+02  0.40840488588E+02  0.00000000000E+00 0. -1.
        -13    1    3    3    0    0  0.50007130062E+02  0.39111724442E+02  0.20403855524E+03  0.21368708915E+03  0.00000000000E+00 0. -1.
         13    1    3    3    0    0 -0.12085183249E+02 -0.35162443834E+02  0.75666844823E+02  0.84308484247E+02  0.00000000000E+00 0.  1.
          1    1    1    2  501    0 -0.43128998673E+02 -0.34028484540E+01  0.32307495100E+02  0.53995038140E+02  0.00000000000E+00 0. -1.
<scales pt_clust_5="13000.00000" pt_clust_6="13000.00000" pt_clust_7="13000.00000" pt_clust_8="13000.00000" pt_clust_9="13000.00000"></scales>
<clustering>
<clus scale="   79.103">  5  6 -1 -1</clus>
<clus scale="   43.263">  5  9 -1 -1</clus>
<clus scale="   95.460">  7  8 -1 -1</clus>
<clus scale="  102.792">  1  7  2 -1</clus>
<clus scale="  129.303">  2  5  1 -1</clus>
</clustering>
</event>
<event>
 9    2  0.6085395E-005  0.6201380E+03  0.7546771E-02  0.1028566E+00
         -1   -1    0    0    0  501 -0.00000000000E+00  0.00000000000E+00  0.90023573642E+03  0.90023573642E+03  0.00000000000E+00 0.  1.
         21   -1    0    0  501  502  0.00000000000E+00 -0.00000000000E+00 -0.20377002794E+03  0.20377002794E+03  0.00000000000E+00 0.  1.
         23    2    1    2    0    0 -0.12561872908E+03  0.36388258942E+02 -0.49655169423E+01  0.16774889602E+03  0.10493267019E+03 0.  0.
         24    2    1    2    0    0  0.81914117273E+02 -0.25544358103E+03  0.64917874838E+03  0.70685405976E+03  0.79045991446E+02 0.  0.
        -13    1    4    4    0    0  0.71047416665E+02 -0.17721321920E+03  0.36519614243E+03  0.41209280863E+03  0.00000000000E+00 0.  1.
         14    1    4    4    0    0  0.10866700608E+02 -0.78230361833E+02  0.28398260594E+03  0.29476125114E+03  0.00000000000E+00 0. -1.
        -13    1    3    3    0    0 -0.43371713651E+02  0.60757023490E+02  0.22009556440E+02  0.77826358151E+02  0.00000000000E+00 0.  1.
         13    1    3    3    0    0 -0.82247015429E+02 -0.24368764549E+02 -0.26975073382E+02  0.89922537868E+02  0.00000000000E+00 0. -1.
         -2    1    1    2    0  502  0.43704611807E+02  0.21905532209E+03  0.52252477043E+02  0.22940280858E+03  0.00000000000E+00 0.  1.
<scales pt_clust_5="13000.00000" pt_clust_6="13000.00000" pt_clust_7="13000.00000" pt_clust_8="13000.00000" pt_clust_9="13000.00000"></scales>
<clustering>
<clus scale="   79.046">  5  6 -1 -1</clus>
<clus scale="  104.933">  7  8 -1 -1</clus>
<clus scale="  167.675">  1  7  2 -1</clus>
<clus scale="  226.395">  5  9 -1 -1</clus>
<clus scale="  620.138">  2  5  1 -1</clus>
</clustering>
</event>
<event>
 9    2  0.6085395E-005  0.2199035E+03  0.7546771E-02  0.1164321E+00
         -1   -1    0    0    0  501 -0.00000000000E+00  0.00000000000E+00  0.17567014130E+03  0.17567014130E+03  0.00000000000E+00 0.  1.
         21   -1    0    0  501  502  0.00000000000E+00 -0.00000000000E+00 -0.19002830703E+03  0.19002830703E+03  0.00000000000E+00 0.  1.
         23    2    1    2    0    0  0.49388812536E+02 -0.35387660497E+02  0.72550807365E+02  0.12924397518E+03  0.88027519280E+02 0.  0.
         24    2    1    2    0    0 -0.11633401380E+03 -0.47069420937E+01 -0.68075398275E+02  0.15618031374E+03  0.78754507672E+02 0.  0.
        -13    1    4    4    0    0 -0.12675935972E+03  0.39979356685E+01 -0.63629099389E+02  0.14188932678E+03  0.00000000000E+00 0.  1.
         14    1    4    4    0    0  0.10425345919E+02 -0.87048777622E+01 -0.44462988854E+01  0.14290986956E+02  0.00000000000E+00 0. -1.
        -13    1    3    3    0    0  0.67189547819E+02 -0.49957996834E+02  0.60305613560E+02  0.10318431960E+03  0.00000000000E+00 0.  1.
         13    1    3    3    0    0 -0.17800735283E+02  0.14570336336E+02  0.12245193805E+02  0.26059655579E+02  0.00000000000E+00 0. -1.
         -2    1    1    2    0  502  0.66945201260E+02  0.40094602591E+02 -0.18833574824E+02  0.80274159412E+02  0.00000000000E+00 0.  1.
<scales pt_clust_5="13000.00000" pt_clust_6="13000.00000" pt_clust_7="13000.00000" pt_clust_8="13000.00000" pt_clust_9="13000.00000"></scales>
<clustering>
<clus scale="   78.755">  5  6 -1 -1</clus>
<clus scale="   78.034">  5  9 -1 -1</clus>
<clus scale="   88.028">  7  8 -1 -1</clus>
<clus scale="  106.960">  1  7  2 -1</clus>
<clus scale="  219.903">  2  5  1 -1</clus>
</clustering>
</event>
<event>
 9    2  0.6085395E-005  0.3145469E+03  0.7546771E-02  0.1092846E+00
          2   -1    0    0  502    0 -0.00000000000E+00  0.00000000000E+00  0.45609831201E+03  0.45609831201E+03  0.00000000000E+00 0. -1.
         21   -1    0    0  501  502  0.00000000000E+00 -0.00000000000E+00 -0.15322034207E+03  0.15322034207E+03  0.00000000000E+00 0.  1.
         23    2    1    2    0    0  0.18183485986E+03  0.64126058070E+02  0.10084054445E+03  0.23547525535E+03  0.90020624830E+02 0.  0.
         24    2    1    2    0    0  0.64776836928E+01 -0.23018465275E+02 -0.97401444448E+01  0.87484904223E+02  0.83587845549E+02 0.  0.
        -11    1    4    4    0    0 -0.18816098498E+02 -0.39900251902E+02 -0.27774325996E+02  0.52129539121E+02  0.00000000000E+00 0.  1.
         12    1    4    4    0    0  0.25293782191E+02  0.16881786627E+02  0.18034181551E+02  0.35355365102E+02  0.00000000000E+00 0. -1.
        -13    1    3    3    0    0  0.12520860676E+03  0.33766737472E+01  0.36634226924E+02  0.13050158510E+03  0.00000000000E+00 0. -1.
         13    1    3    3    0    0  0.56626253103E+02  0.60749384322E+02  0.64206317523E+02  0.10497367025E+03  0.00000000000E+00 0.  1.
          1    1    1    2  501    0 -0.18831254355E+03 -0.41107592795E+02  0.21177756994E+03  0.28635849450E+03  0.00000000000E+00 0. -1.
<scales pt_clust_5="13000.00000" pt_clust_6="13000.00000" pt_clust_7="13000.00000" pt_clust_8="13000.00000" pt_clust_9="13000.00000"></scales>
<clustering>
<clus scale="   83.588">  5  6 -1 -1</clus>
<clus scale="   90.021">  7  8 -1 -1</clus>
<clus scale="  192.747">  5  9 -1 -1</clus>
<clus scale="  212.791">  1  7  2 -1</clus>
<clus scale="  314.547">  2  5  1 -1</clus>
</clustering>
</event>
<event>
 9    2  0.6085395E-005  0.2501017E+03  0.7546771E-02  0.1151496E+00
         21   -1    0    0  501  502  0.00000000000E+00  0.00000000000E+00  0.25169024526E+03  0.25169024526E+03  0.00000000000E+00 0. -1.
          2   -1    0    0  502    0 -0.00000000000E+00 -0.00000000000E+00 -0.12489137347E+03  0.12489137347E+03  0.00000000000E+00 0. -1.
         23    2    1    2    0    0 -0.32186132011E+02  0.17164697429E+01  0.45835529265E+01  0.98215986985E+02  0.92663249348E+02 0.  0.
         24    2    1    2    0    0  0.10670282435E+02 -0.11114994557E+03  0.55490092243E+02  0.14840073925E+03  0.80470266212E+02 0.  0.
        -13    1    4    4    0    0  0.21741192856E+02 -0.51251584019E+01 -0.86928053709E+01  0.23968971205E+02  0.00000000000E+00 0.  1.
         14    1    4    4    0    0 -0.11070910421E+02 -0.10602478717E+03  0.64182897614E+02  0.12443176804E+03  0.00000000000E+00 0. -1.
        -11    1    3    3    0    0 -0.50218432167E+01  0.24681506067E+02  0.40482647632E+02  0.47678510991E+02  0.00000000000E+00 0.  1.
         11    1    3    3    0    0 -0.27164288795E+02 -0.22965036324E+02 -0.35899094706E+02  0.50537475993E+02  0.00000000000E+00 0. -1.
          1    1    1    2  501    0  0.21515849576E+02  0.10943347583E+03  0.66725226613E+02  0.12996489250E+03  0.00000000000E+00 0. -1.
<scales pt_clust_5="13000.00000" pt_clust_6="13000.00000" pt_clust_7="13000.00000" pt_clust_8="13000.00000" pt_clust_9="13000.00000"></scales>
<clustering>
<clus scale="   80.470">  5  6 -1 -1</clus>
<clus scale="   92.663">  7  8 -1 -1</clus>
<clus scale="   98.109">  2  7  1 -1</clus>
<clus scale="  110.455">  5  9 -1 -1</clus>
<clus scale="  250.102">  1  5  2 -1</clus>
</clustering>
</event>
<event>
 9    2  0.6085395E-005  0.1737346E+03  0.7546771E-02  0.1184820E+00
         21   -1    0    0  501  502  0.00000000000E+00  0.00000000000E+00  0.18073161360E+03  0.18073161360E+03  0.00000000000E+00 0.  1.
         -1   -1    0    0    0  501 -0.00000000000E+00 -0.00000000000E+00 -0.15361553918E+03  0.15361553918E+03  0.00000000000E+00 0.  1.
         23    2    1    2    0    0  0.73525124061E+02  0.64887505752E+02 -0.48876003759E+02  0.14471989085E+03  0.94544438200E+02 0.  0.
         24    2    1    2    0    0 -0.67443931339E+02 -0.93251482722E+02  0.78068528695E+02  0.16054448797E+03  0.80220412244E+02 0.  0.
        -11    1    4    4    0    0 -0.76642585892E+02 -0.96974421689E+02  0.83563546478E+02  0.14920117538E+03  0.00000000000E+00 0.  1.
         12    1    4    4    0    0  0.91986545528E+01  0.37229389669E+01 -0.54950177830E+01  0.11343312592E+02  0.00000000000E+00 0. -1.
        -11    1    3    3    0    0  0.34072396034E+02  0.85161773111E+02 -0.35942417914E+02  0.98515547892E+02  0.00000000000E+00 0.  1.
         11    1    3    3    0    0  0.39452728027E+02 -0.20274267360E+02 -0.12933585845E+02  0.46204342962E+02  0.00000000000E+00 0. -1.
         -2    1    1    2    0  502 -0.60811927219E+01  0.28363976971E+02 -0.20764505137E+01  0.29082773961E+02  0.00000000000E+00 0.  1.
<scales pt_clust_5="13000.00000" pt_clust_6="13000.00000" pt_clust_7="13000.00000" pt_clust_8="13000.00000" pt_clust_9="13000.00000"></scales>
<clustering>
<clus scale="   80.220">  5  6 -1 -1</clus>
<clus scale="   29.009">  5  9 -1 -1</clus>
<clus scale="   94.544">  7  8 -1 -1</clus>
<clus scale="  136.217">  2  7  1 -1</clus>
<clus scale="  173.735">  1  5  2 -1</clus>
</clustering>
</event>
<event>
 9    2  0.6085395E-005  0.2613457E+03  0.7546771E-02  0.1119001E+00
          2   -1    0    0  502    0 -0.00000000000E+00  0.00000000000E+00  0.81708896210E+03  0.81708896210E+03  0.00000000000E+00 0. -1.
         21   -1    0    0  501  502  0.00000000000E+00 -0.00000000000E+00 -0.10221183185E+03  0.10221183185E+03  0.00000000000E+00 0. -1.
         23    2    1    2    0    0 -0.14656749054E+03  0.75901371488E+02  0.60812695175E+03  0.63699395060E+03  0.93273019587E+02 0.  0.
         24    2    1    2    0    0  0.20754563209E+02  0.42858472697E+01 -0.21113916049E+02  0.85817379482E+02  0.80434475129E+02 0.  0.
        -11    1    4    4    0    0 -0.14901703689E+02  0.18692727314E+02  0.18784186268E+02  0.30402705159E+02  0.00000000000E+00 0.  1.
         12    1    4    4    0    0  0.35656266899E+02 -0.14406880044E+02 -0.39898102317E+02  0.55414674322E+02  0.00000000000E+00 0. -1.
        -11    1    3    3    0    0 -0.12920507789E+03  0.26132732248E+02  0.49395090512E+03  0.51123807420E+03  0.00000000000E+00 0. -1.
         11    1    3    3    0    0 -0.17362412656E+02  0.49768639240E+02  0.11417604663E+03  0.12575587640E+03  0.00000000000E+00 0.  1.
          1    1    1    2  501    0  0.12581292733E+03 -0.80187218757E+02  0.12786409455E+03  0.19648946387E+03  0.00000000000E+00 0. -1.
<scales pt_clust_5="13000.00000" pt_clust_6="13000.00000" pt_clust_7="13000.00000" pt_clust_8="13000.00000" pt_clust_9="13000.00000"></scales>
<clustering>
<clus scale="   80.434">  5  6 -1 -1</clus>
<clus scale="   93.273">  7  8 -1 -1</clus>
<clus scale="  149.194">  5  9 -1 -1</clus>
<clus scale="  189.586">  1  7  2 -1</clus>
<clus scale="  261.346">  2  5  1 -1</clus>
</clustering>
</event>
<event>
 9    2  0.6085395E-005  0.1778540E+03  0.7546771E-02  0.1198687E+00
          2   -1    0    0  502    0 -0.00000000000E+00  0.00000000000E+00  0.81946550196E+03  0.81946550196E+03  0.00000000000E+00 0. -1.
         21   -1    0    0  501  502  0.00000000000E+00 -0.00000000000E+00 -0.22795391182E+02  0.22795391182E+02  0.00000000000E+00 0. -1.
         23    2    1    2    0    0 -0.44094326732E+01 -0.21682057092E+02  0.22861626440E+03  0.24701539621E+03  0.90893646201E+02 0.  0.
         24    2    1    2    0    0  0.39532419131E+02 -0.16031167710E+02  0.50787687103E+03  0.51601684135E+03  0.80713406155E+02 0.  0.
        -13    1    4    4    0    0  0.50027628051E+02  0.27880732692E+01  0.16442881231E+03  0.17189348807E+03  0.00000000000E+00 0.  1.
         14    1    4    4    0    0 -0.10495208920E+02 -0.18819240980E+02  0.34344805872E+03  0.34412335329E+03  0.00000000000E+00 0. -1.
        -11    1    3    3    0    0 -0.25326624969E+02 -0.46123973254E+02  0.18787096784E+03  0.19510089543E+03  0.00000000000E+00 0.  1.
         11    1    3    3    0    0  0.20917192296E+02  0.24441916162E+02  0.40745296564E+02  0.51914500781E+02  0.00000000000E+00 0. -1.
          1    1    1    2  501    0 -0.35122986458E+02  0.37713224802E+02  0.60176975344E+02  0.79228655575E+02  0.00000000000E+00 0. -1.
<scales pt_clust_5="13000.00000" pt_clust_6="13000.00000" pt_clust_7="13000.00000" pt_clust_8="13000.00000" pt_clust_9="13000.00000"></scales>
<clustering>
<clus scale="   80.713">  5  6 -1 -1</clus>
<clus scale="   51.536">  5  9 -1 -1</clus>
<clus scale="   90.894">  7  8 -1 -1</clus>
<clus scale="   93.548">  1  7  2 -1</clus>
<clus scale="  177.854">  2  5  1 -1</clus>
</clustering>
</event>
<event>
 9    2  0.6085395E-005  0.5764659E+03  0.7546771E-02  0.1032278E+00
         -1   -1    0    0    0  501 -0.00000000000E+00  0.00000000000E+00  0.63817507728E+03  0.63817507728E+03  0.00000000000E+00 0.  1.
         21   -1    0    0  501  502  0.00000000000E+00 -0.00000000000E+00 -0.22932927499E+03  0.22932927499E+03  0.00000000000E+00 0. -1.
         23    2    1    2    0    0 -0.19722997997E+02 -0.17706973851E+03  0.12520055133E+03  0.22503445141E+03  0.56768277413E+02 0.  0.
         24    2    1    2    0    0  0.86190282527E+02 -0.13384349854E+03 -0.46028698581E+02  0.18446351020E+03  0.81026530220E+02 0.  0.
        -11    1    4    4    0    0  0.43597441500E+02 -0.12587765098E+02  0.60774915717E+01  0.45783453772E+02  0.00000000000E+00 0.  1.
         12    1    4    4    0    0  0.42592841028E+02 -0.12125573344E+03 -0.52106190152E+02  0.13868005643E+03  0.00000000000E+00 0. -1.
        -11    1    3    3    0    0 -0.34825540441E+02 -0.13319074835E+03  0.10995375705E+03  0.17618859896E+03  0.00000000000E+00 0.  1.
         11    1    3    3    0    0  0.15102542444E+02 -0.43878990153E+02  0.15246794280E+02  0.48845852444E+02  0.00000000000E+00 0. -1.
         -2    1    1    2    0  502 -0.66467284531E+02  0.31091323705E+03  0.32967394953E+03  0.45800639066E+03  0.00000000000E+00 0.  1.
<scales pt_clust_5="13000.00000" pt_clust_6="13000.00000" pt_clust_7="13000.00000" pt_clust_8="13000.00000" pt_clust_9="13000.00000"></scales>
<clustering>
<clus scale="   56.768">  7  8 -1 -1</clus>
<clus scale="   81.027">  5  6 -1 -1</clus>
<clus scale="  186.990">  1  7  2 -1</clus>
<clus scale="  180.635">  5  9 -1 -1</clus>
<clus scale="  576.466">  2  5  1 -1</clus>
</clustering>
</event>
<event>
 9    2  0.6085395E-005  0.4744352E+03  0.7546771E-02  0.1057069E+00
         21   -1    0    0  501  502  0.00000000000E+00  0.00000000000E+00  0.31182746152E+03  0.31182746152E+03  0.00000000000E+00 0. -1.
          2   -1    0    0  502    0 -0.00000000000E+00 -0.00000000000E+00 -0.51805092313E+03  0.51805092313E+03  0.00000000000E+00 0. -1.
         23    2    1    2    0    0 -0.44112288595E+02  0.12940690700E+03 -0.30399885990E+03  0.34547273625E+03  0.90796823105E+02 0.  0.
         24    2    1    2    0    0  0.76243829996E+02  0.15315160884E+03  0.24451346558E+02  0.19072526536E+03  0.80682845725E+02 0.  0.
        -13    1    4    4    0    0  0.81601900294E+02  0.79468679249E+02  0.35973840714E+01  0.11396088050E+03  0.00000000000E+00 0.  1.
         14    1    4    4    0    0 -0.53580702976E+01  0.73682929591E+02  0.20853962487E+02  0.76764384852E+02  0.00000000000E+00 0. -1.
        -11    1    3    3    0    0 -0.25153343620E+02  0.49974890090E+02 -0.39060514399E+02  0.68234185859E+02  0.00000000000E+00 0.  1.
         11    1    3    3    0    0 -0.18958944975E+02  0.79432016909E+02 -0.26493834550E+03  0.27723855039E+03  0.00000000000E+00 0. -1.
          1    1    1    2  501    0 -0.32131541401E+02 -0.28255851584E+03  0.73324051734E+02  0.29368038305E+03  0.00000000000E+00 0. -1.
<scales pt_clust_5="13000.00000" pt_clust_6="13000.00000" pt_clust_7="13000.00000" pt_clust_8="13000.00000" pt_clust_9="13000.00000"></scales>
<clustering>
<clus scale="   80.683">  5  6 -1 -1</clus>
<clus scale="   90.797">  7  8 -1 -1</clus>
<clus scale="  164.122">  2  7  1 -1</clus>
<clus scale="  216.517">  5  9 -1 -1</clus>
<clus scale="  474.435">  1  5  2 -1</clus>
</clustering>
</event>
<event>
 9    2  0.6085395E-005  0.2302347E+03  0.7546771E-02  0.1155175E+00
         21   -1    0    0  501  502  0.00000000000E+00  0.00000000000E+00  0.97692583863E+02  0.97692583863E+02  0.00000000000E+00 0.  1.
          2   -1    0    0  502    0 -0.00000000000E+00 -0.00000000000E+00 -0.49608591500E+03  0.49608591500E+03  0.00000000000E+00 0. -1.
         23    2    1    2    0    0  0.17469173640E+02 -0.70504344582E+02  0.19212431500E+02  0.11691103743E+03  0.89571415726E+02 0.  0.
         24    2    1    2    0    0  0.16219528438E+02  0.33699875628E+02 -0.41097072104E+02  0.97067130172E+02  0.79588338996E+02 0.  0.
        -11    1    4    4    0    0 -0.91497420900E+01  0.50137369061E+02 -0.43135725664E+02  0.66769486933E+02  0.00000000000E+00 0.  1.
         12    1    4    4    0    0  0.25369270528E+02 -0.16437493433E+02  0.20386535595E+01  0.30297643239E+02  0.00000000000E+00 0. -1.
        -13    1    3    3    0    0 -0.68710655744E+01 -0.67377453914E+02  0.44999345666E+02  0.81313430308E+02  0.00000000000E+00 0.  1.
         13    1    3    3    0    0  0.24340239214E+02 -0.31268906676E+01 -0.25786914166E+02  0.35597607117E+02  0.00000000000E+00 0. -1.
          1    1    1    2  501    0 -0.33688702078E+02  0.36804468954E+02 -0.37650869053E+03  0.37980033127E+03  0.00000000000E+00 0. -1.
<scales pt_clust_5="13000.00000" pt_clust_6="13000.00000" pt_clust_7="13000.00000" pt_clust_8="13000.00000" pt_clust_9="13000.00000"></scales>
<clustering>
<clus scale="   79.588">  5  6 -1 -1</clus>
<clus scale="   49.895">  5  9 -1 -1</clus>
<clus scale="   89.571">  7  8 -1 -1</clus>
<clus scale="  115.322">  2  7  1 -1</clus>
<clus scale="  230.235">  1  5  2 -1</clus>
</clustering>
</event>
<event>
 9    2  0.6085395E-005  0.1905139E+03  0.7546771E-02  0.1185037E+00
         -3   -1    0    0    0  501 -0.00000000000E+00  0.00000000000E+00  0.75257508132E+02  0.75257508132E+02  0.00000000000E+00 0.  1.
         21   -1    0    0  501  502  0.00000000000E+00 -0.00000000000E+00 -0.35835176879E+03  0.35835176879E+03  0.00000000000E+00 0.  1.
         23    2    1    2    0    0  0.28026364710E+02 -0.42473367552E+02 -0.13780699973E+02  0.10372240084E+03  0.89325050651E+02 0.  0.
         24    2    1    2    0    0 -0.91218574605E+02  0.32251458033E+02 -0.16114453631E+03  0.20419566454E+03  0.79795506985E+02 0.  0.
        -11    1    4    4    0    0 -0.76699534914E+02  0.21842112745E+01 -0.15087024974E+03  0.16926140047E+03  0.00000000000E+00 0.  1.
         12    1    4    4    0    0 -0.14519039691E+02  0.30067246758E+02 -0.10274286578E+02  0.34934264066E+02  0.00000000000E+00 0. -1.
        -13    1    3    3    0    0 -0.30275157048E+02 -0.50536239627E+01 -0.15580459399E+02  0.34422012791E+02  0.00000000000E+00 0.  1.
         13    1    3    3    0    0  0.58301521758E+02 -0.37419743589E+02  0.17997594269E+01  0.69300388048E+02  0.00000000000E+00 0. -1.
         -4    1    1    2    0  502  0.63192209895E+02  0.10221909519E+02 -0.10816902437E+03  0.12569121155E+03  0.00000000000E+00 0.  1.
<scales pt_clust_5="13000.00000" pt_clust_6="13000.00000" pt_clust_7="13000.00000" pt_clust_8="13000.00000" pt_clust_9="13000.00000"></scales>
<clustering>
<clus scale="   79.796">  5  6 -1 -1</clus>
<clus scale="   64.014">  5  9 -1 -1</clus>
<clus scale="   89.325">  7  8 -1 -1</clus>
<clus scale="  102.803">  1  7  2 -1</clus>
<clus scale="  190.514">  2  5  1 -1</clus>
</clustering>
</event>
<event>
 9    2  0.6085395E-005  0.2115960E+03  0.7546771E-02  0.1145107E+00
         21   -1    0    0  501  502  0.00000000000E+00  0.00000000000E+00  0.47239748144E+02  0.47239748144E+02  0.00000000000E+00 0. -1.
          2   -1    0    0  502    0 -0.00000000000E+00 -0.00000000000E+00 -0.97203259371E+03  0.97203259371E+03  0.00000000000E+00 0. -1.
         23    2    1    2    0    0  0.96260711498E+02  0.13488181595E+03 -0.25701963020E+03  0.31877684795E+03  0.90001997900E+02 0.  0.
         24    2    1    2    0    0 -0.62428405401E+02 -0.44048590073E+02 -0.42097177853E+03  0.43534223807E+03  0.80424137144E+02 0.  0.
        -13    1    4    4    0    0  0.15398925391E+02 -0.21731882883E+02 -0.15666210447E+03  0.15891008971E+03  0.00000000000E+00 0.  1.
         14    1    4    4    0    0 -0.77827330793E+02 -0.22316707190E+02 -0.26430967407E+03  0.27643214836E+03  0.00000000000E+00 0. -1.
        -11    1    3    3    0    0  0.26725623249E+02  0.42844597761E+02 -0.18410808131E+02  0.53748268357E+02  0.00000000000E+00 0.  1.
         11    1    3    3    0    0  0.69535088250E+02  0.92037218193E+02 -0.23860882207E+03  0.26502857959E+03  0.00000000000E+00 0. -1.
          1    1    1    2  501    0 -0.33832306097E+02 -0.90833225880E+02 -0.24680143683E+03  0.26515325584E+03  0.00000000000E+00 0. -1.
<scales pt_clust_5="13000.00000" pt_clust_6="13000.00000" pt_clust_7="13000.00000" pt_clust_8="13000.00000" pt_clust_9="13000.00000"></scales>
<clustering>
<clus scale="   80.424">  5  6 -1 -1</clus>
<clus scale="   90.002">  7  8 -1 -1</clus>
<clus scale="   96.929">  5  9 -1 -1</clus>
<clus scale="  188.573">  2  7  1 -1</clus>
<clus scale="  211.596">  1  5  2 -1</clus>
</clustering>
</event>
<event>
 9    2  0.6085395E-005  0.1195096E+03  0.7546771E-02  0.1249704E+00
         21   -1    0    0  501  502  0.00000000000E+00  0.00000000000E+00  0.50060180770E+03  0.50060180770E+03  0.00000000000E+00 0. -1.
         -1   -1    0    0    0  501 -0.00000000000E+00 -0.00000000000E+00 -0.29955961467E+02  0.29955961467E+02  0.00000000000E+00 0.  1.
         23    2    1    2    0    0 -0.26634499526E+02 -0.48772520626E+02  0.12131104412E+03  0.16134597213E+03  0.90708312547E+02 0.  0.
         24    2    1    2    0    0  0.72070979095E+01  0.33323897496E+02  0.21822168369E+03  0.23576992312E+03  0.82488356826E+02 0.  0.
        -13    1    4    4    0    0 -0.27616667036E+02 -0.11236931223E+02  0.49106074153E+02  0.57448720092E+02  0.00000000000E+00 0.  1.
         14    1    4    4    0    0  0.34823764945E+02  0.44560828719E+02  0.16911560953E+03  0.17832120303E+03  0.00000000000E+00 0. -1.
        -11    1    3    3    0    0  0.11706457614E+02 -0.63136837166E+02  0.85664299699E+02  0.10705920605E+03  0.00000000000E+00 0.  1.
         11    1    3    3    0    0 -0.38340957139E+02  0.14364316540E+02  0.35646744420E+02  0.54286766083E+02  0.00000000000E+00 0. -1.
         -2    1    1    2    0  502  0.19427401616E+02  0.15448623130E+02  0.13111311842E+03  0.13344187391E+03  0.00000000000E+00 0.  1.
<scales pt_clust_5="13000.00000" pt_clust_6="13000.00000" pt_clust_7="13000.00000" pt_clust_8="13000.00000" pt_clust_9="13000.00000"></scales>
<clustering>
<clus scale="   82.488">  5  6 -1 -1</clus>
<clus scale="   24.821">  5  9 -1 -1</clus>
<clus scale="   90.708">  7  8 -1 -1</clus>
<clus scale="  106.377">  2  7  1 -1</clus>
<clus scale="  119.510">  1  5  2 -1</clus>
</clustering>
</event>
<event>
 9    2  0.6085395E-005  0.3443502E+03  0.7546771E-02  0.1114099E+00
         21   -1    0    0  501  502  0.00000000000E+00  0.00000000000E+00  0.10238798936E+03  0.10238798936E+03  0.00000000000E+00 0.  1.
         -3   -1    0    0    0  501 -0.00000000000E+00 -0.00000000000E+00 -0.51288885872E+03  0.51288885872E+03  0.00000000000E+00 0.  1.
         23    2    1    2    0    0 -0.68164240802E+01 -0.61936071256E+01 -0.22342431283E+02  0.96389528519E+02  0.93310945585E+02 0.  0.
         24    2    1    2    0    0 -0.15371126044E+03  0.36172838309E+02 -0.16546561528E+03  0.24273521451E+03  0.81276618468E+02 0.  0.
        -13    1    4    4    0    0 -0.11750641871E+03 -0.98095686307E+01 -0.97171557437E+02  0.15279495296E+03  0.00000000000E+00 0.  1.
         14    1    4    4    0    0 -0.36204841728E+02  0.45982406940E+02 -0.68294057838E+02  0.89940261554E+02  0.00000000000E+00 0. -1.
        -11    1    3    3    0    0  0.17952957333E+02  0.29888710802E+02  0.15852504020E+02  0.38300725764E+02  0.00000000000E+00 0.  1.
         11    1    3    3    0    0 -0.24769381413E+02 -0.36082317927E+02 -0.38194935303E+02  0.58088802754E+02  0.00000000000E+00 0. -1.
         -4    1    1    2    0  502  0.16052768452E+03 -0.29979231183E+02 -0.22269282280E+03  0.27615210506E+03  0.00000000000E+00 0.  1.
<scales pt_clust_5="13000.00000" pt_clust_6="13000.00000" pt_clust_7="13000.00000" pt_clust_8="13000.00000" pt_clust_9="13000.00000"></scales>
<clustering>
<clus scale="   81.277">  5  6 -1 -1</clus>
<clus scale="   93.311">  7  8 -1 -1</clus>
<clus scale="   93.764">  2  7  1 -1</clus>
<clus scale="  160.294">  5  9 -1 -1</clus>
<clus scale="  344.350">  1  5  2 -1</clus>
</clustering>
</event>
<event>
 9    2  0.6085395E-005  0.1895662E+03  0.7546771E-02  0.1162916E+00
         -3   -1    0    0    0  501 -0.00000000000E+00  0.00000000000E+00  0.29041077474E+03  0.29041077474E+03  0.00000000000E+00 0.  1.
         21   -1    0    0  501  502  0.00000000000E+00 -0.00000000000E+00 -0.14463302175E+03  0.14463302175E+03  0.00000000000E+00 0.  1.
         23    2    1    2    0    0  0.10889407184E+03  0.97672131807E+02  0.17209890263E+03  0.24365895787E+03  0.91399623893E+02 0.  0.
         24    2    1    2    0    0 -0.75784757352E+02 -0.11251030377E+03 -0.11069162034E+02  0.15202723225E+03  0.67733707239E+02 0.  0.
        -11    1    4    4    0    0 -0.57360794034E+02 -0.11366079394E+03 -0.23910081810E+02  0.12954045230E+03  0.00000000000E+00 0.  1.
         12    1    4    4    0    0 -0.18423963318E+02  0.11504901609E+01  0.12840919776E+02  0.22486779953E+02  0.00000000000E+00 0. -1.
        -13    1    3    3    0    0  0.14475985596E+02  0.71657355628E+02  0.89339882467E+02  0.11543805860E+03  0.00000000000E+00 0. -1.
         13    1    3    3    0    0  0.94418086243E+02  0.26014776179E+02  0.82759020167E+02  0.12822089927E+03  0.00000000000E+00 0.  1.
         -4    1    1    2    0  502 -0.33109314487E+02  0.14838171968E+02 -0.15251987609E+02  0.39357606370E+02  0.00000000000E+00 0.  1.
<scales pt_clust_5="13000.00000" pt_clust_6="13000.00000" pt_clust_7="13000.00000" pt_clust_8="13000.00000" pt_clust_9="13000.00000"></scales>
<clustering>
<clus scale="   67.734">  5  6 -1 -1</clus>
<clus scale="   36.282">  5  9 -1 -1</clus>
<clus scale="   91.400">  7  8 -1 -1</clus>
<clus scale="  172.487">  1  7  2 -1</clus>
<clus scale="  189.566">  2  5  1 -1</clus>
</clustering>
</event>
<event>
 9    2  0.6085395E-005  0.6864813E+03  0.7546771E-02  0.1034439E+00
         -1   -1    0    0    0  501 -0.00000000000E+00  0.00000000000E+00  0.11054852669E+04  0.11054852669E+04  0.00000000000E+00 0.  1.
         21   -1    0    0  501  502  0.00000000000E+00 -0.00000000000E+00 -0.14127076085E+03  0.14127076085E+03  0.00000000000E+00 0.  1.
         23    2    1    2    0    0 -0.43078149254E+02 -0.22119246412E+02  0.12671300970E+03  0.16385927218E+03  0.91916735398E+02 0.  0.
         24    2    1    2    0    0 -0.66047730270E+02  0.19149494010E+03  0.85341598173E+03  0.88078328735E+03  0.80173229038E+02 0.  0.
        -13    1    4    4    0    0 -0.81678580933E+02  0.18178381849E+03  0.79019811829E+03  0.81494160121E+03  0.00000000000E+00 0.  1.
         14    1    4    4    0    0  0.15630850664E+02  0.97111216132E+01  0.63217863441E+02  0.65841686138E+02  0.00000000000E+00 0. -1.
        -11    1    3    3    0    0 -0.65343851056E+02 -0.24035715126E+02  0.12280989826E+03  0.14117296336E+03  0.00000000000E+00 0. -1.
         11    1    3    3    0    0  0.22265701802E+02  0.19164687137E+01  0.39031114428E+01  0.22686308822E+02  0.00000000000E+00 0.  1.
         -2    1    1    2    0  502  0.10912587952E+03 -0.16937569369E+03 -0.15914485374E+02  0.20211346823E+03  0.00000000000E+00 0.  1.
<scales pt_clust_5="13000.00000" pt_clust_6="13000.00000" pt_clust_7="13000.00000" pt_clust_8="13000.00000" pt_clust_9="13000.00000"></scales>
<clustering>
<clus scale="   80.173">  5  6 -1 -1</clus>
<clus scale="   91.917">  7  8 -1 -1</clus>
<clus scale="  103.893">  1  7  2 -1</clus>
<clus scale="  201.081">  5  9 -1 -1</clus>
<clus scale="  686.481">  2  5  1 -1</clus>
</clustering>
</event>
<event>
 9    2  0.6085395E-005  0.1559483E+03  0.7546771E-02  0.1214155E+00
         -3   -1    0    0    0  501 -0.00000000000E+00  0.00000000000E+00  0.25577540389E+02  0.25577540389E+02  0.00000000000E+00 0.  1.
         21   -1    0    0  501  502  0.00000000000E+00 -0.00000000000E+00 -0.73024545531E+03  0.73024545531E+03  0.00000000000E+00 0.  1.
         23    2    1    2    0    0  0.30497600855E+02  0.31612697374E+02 -0.41581238991E+03  0.42755881550E+03  0.89314784982E+02 0.  0.
         24    2    1    2    0    0 -0.61066513156E+02 -0.54183475064E+02 -0.18284899251E+03  0.21565297588E+03  0.80046760999E+02 0.  0.
        -13    1    4    4    0    0 -0.80012756481E+02 -0.37139855473E+02 -0.13179056694E+03  0.15858803107E+03  0.00000000000E+00 0.  1.
         14    1    4    4    0    0  0.18946243325E+02 -0.17043619591E+02 -0.51058425567E+02  0.57064944811E+02  0.00000000000E+00 0. -1.
        -13    1    3    3    0    0  0.12590140478E+02  0.60932590851E+02 -0.21473304999E+03  0.22356559445E+03  0.00000000000E+00 0. -1.
         13    1    3    3    0    0  0.17907460377E+02 -0.29319893477E+02 -0.20107933992E+03  0.20399322105E+03  0.00000000000E+00 0.  1.
         -4    1    1    2    0  502  0.30568912300E+02  0.22570777690E+02 -0.10600653250E+03  0.11261120432E+03  0.00000000000E+00 0.  1.
<scales pt_clust_5="13000.00000" pt_clust_6="13000.00000" pt_clust_7="13000.00000" pt_clust_8="13000.00000" pt_clust_9="13000.00000"></scales>
<clustering>
<clus scale="   80.047">  5  6 -1 -1</clus>
<clus scale="   37.999">  5  9 -1 -1</clus>
<clus scale="   89.315">  7  8 -1 -1</clus>
<clus scale="   99.532">  1  7  2 -1</clus>
<clus scale="  155.948">  2  5  1 -1</clus>
</clustering>
</event>
<event>
 9    2  0.6085395E-005  0.4867216E+03  0.7546771E-02  0.1046980E+00
         -3   -1    0    0    0  501 -0.00000000000E+00  0.00000000000E+00  0.12444349747E+03  0.12444349747E+03  0.00000000000E+00 0.  1.
         21   -1    0    0  501  502  0.00000000000E+00 -0.00000000000E+00 -0.97543713436E+03  0.97543713436E+03  0.00000000000E+00 0. -1.
         23    2    1    2    0    0  0.12036740252E+03  0.13511370385E+03 -0.32782106689E+03  0.38531264330E+03  0.90857892516E+02 0.  0.
         24    2    1    2    0    0  0.16105111764E+03 -0.14603124383E+02 -0.19939279595E+03  0.26897565765E+03  0.80247763815E+02 0.  0.
        -11    1    4    4    0    0  0.13788381452E+03 -0.36244657788E+02 -0.18650162604E+03  0.23475195002E+03  0.00000000000E+00 0.  1.
         12    1    4    4    0    0  0.23167303127E+02  0.21641533405E+02 -0.12891169909E+02  0.34223707630E+02  0.00000000000E+00 0. -1.
        -11    1    3    3    0    0  0.60401451180E+02  0.76227983908E+02 -0.25908957548E+03  0.27674256803E+03  0.00000000000E+00 0. -1.
         11    1    3    3    0    0  0.59965951341E+02  0.58885719944E+02 -0.68731491408E+02  0.10857007527E+03  0.00000000000E+00 0.  1.
         -4    1    1    2    0  502 -0.28141852017E+03 -0.12051057947E+03 -0.32377977404E+03  0.44559233087E+03  0.00000000000E+00 0.  1.
<scales pt_clust_5="13000.00000" pt_clust_6="13000.00000" pt_clust_7="13000.00000" pt_clust_8="13000.00000" pt_clust_9="13000.00000"></scales>
<clustering>
<clus scale="   80.248">  5  6 -1 -1</clus>
<clus scale="   90.858">  7  8 -1 -1</clus>
<clus scale="  202.483">  1  7  2 -1</clus>
<clus scale="  207.700">  5  9 -1 -1</clus>
<clus scale="  486.722">  2  5  1 -1</clus>
</clustering>
</event>
<event>
 9    2  0.6085395E-005  0.2723154E+03  0.7546771E-02  0.1111714E+00
         -3   -1    0    0    0  501 -0.00000000000E+00  0.00000000000E+00  0.25126931462E+03  0.25126931462E+03  0.00000000000E+00 0.  1.
         21   -1    0    0  501  502  0.00000000000E+00 -0.00000000000E+00 -0.28507043935E+03  0.28507043935E+03  0.00000000000E+00 0. -1.
         23    2    1    2    0    0  0.13218365323E+03 -0.11862376026E+03  0.10883912328E+03  0.22892809163E+03  0.94963159696E+02 0.  0.
         24    2    1    2    0    0 -0.79215520166E+01 -0.21271417278E+02 -0.65093421881E+02  0.10486477705E+03  0.79020527176E+02 0.  0.
        -13    1    4    4    0    0  0.14285737170E+02 -0.30505158047E+02  0.18468749337E+01  0.33735113768E+02  0.00000000000E+00 0.  1.
         14    1    4    4    0    0 -0.22207289187E+02  0.92337407686E+01 -0.66940296814E+02  0.71129663286E+02  0.00000000000E+00 0. -1.
        -13    1    3    3    0    0  0.37409754337E+02 -0.72040376183E+02  0.90800429110E+02  0.12179500584E+03  0.00000000000E+00 0. -1.
         13    1    3    3    0    0  0.94773898895E+02 -0.46583384079E+02  0.18038694174E+02  0.10713308579E+03  0.00000000000E+00 0.  1.
         -4    1    1    2    0  502 -0.12426210122E+03  0.13989517754E+03 -0.77546826130E+02  0.20254688529E+03  0.00000000000E+00 0.  1.
<scales pt_clust_5="13000.00000" pt_clust_6="13000.00000" pt_clust_7="13000.00000" pt_clust_8="13000.00000" pt_clust_9="13000.00000"></scales>
<clustering>
<clus scale="   79.021">  5  6 -1 -1</clus>
<clus scale="   94.963">  7  8 -1 -1</clus>
<clus scale="  187.114">  5  9 -1 -1</clus>
<clus scale="  201.400">  1  7  2 -1</clus>
<clus scale="  272.315">  2  5  1 -1</clus>
</clustering>
</event>
<event>
 9    2  0.6085395E-005  0.1800759E+03  0.7546771E-02  0.1197452E+00
         -1   -1    0    0    0  501 -0.00000000000E+00  0.00000000000E+00  0.22653428495E+03  0.22653428495E+03  0.00000000000E+00 0.  1.
         21   -1    0    0  501  502  0.00000000000E+00 -0.00000000000E+00 -0.18775504264E+03  0.18775504264E+03  0.00000000000E+00 0. -1.
         23    2    1    2    0    0  0.15477110842E+02  0.74477194108E+01  0.16856419861E+03  0.19231757346E+03  0.90978846575E+02 0.  0.
         24    2    1    2    0    0  0.51828103219E+02 -0.29661625650E+02 -0.11353350726E+03  0.14925615012E+03  0.76299257914E+02 0.  0.
        -13    1    4    4    0    0  0.69913383913E+02 -0.20795635513E+02 -0.69117570626E+02  0.10048670696E+03  0.00000000000E+00 0.  1.
         14    1    4    4    0    0 -0.18085280694E+02 -0.88659901371E+01 -0.44415936636E+02  0.48769443161E+02  0.00000000000E+00 0. -1.
        -11    1    3    3    0    0 -0.18018680484E+02 -0.19105493825E+02  0.13618563409E+03  0.13869469952E+03  0.00000000000E+00 0. -1.
         11    1    3    3    0    0  0.33495791327E+02  0.26553213236E+02  0.32378564516E+02  0.53622873942E+02  0.00000000000E+00 0.  1.
         -2    1    1    2    0  502 -0.67305214061E+02  0.22213906239E+02 -0.16251449042E+02  0.72715604007E+02  0.00000000000E+00 0.  1.
<scales pt_clust_5="13000.00000" pt_clust_6="13000.00000" pt_clust_7="13000.00000" pt_clust_8="13000.00000" pt_clust_9="13000.00000"></scales>
<clustering>
<clus scale="   76.299">  5  6 -1 -1</clus>
<clus scale="   70.876">  5  9 -1 -1</clus>
<clus scale="   90.979">  7  8 -1 -1</clus>
<clus scale="   92.586">  1  7  2 -1</clus>
<clus scale="  180.076">  2  5  1 -1</clus>
</clustering>
</event>
<event>
 9    2  0.6085395E-005  0.1824698E+03  0.7546771E-02  0.1196227E+00
         -1   -1    0    0    0  501 -0.00000000000E+00  0.00000000000E+00  0.75325988918E+02  0.75325988918E+02  0.00000000000E+00 0.  1.
         21   -1    0    0  501  502  0.00000000000E+00 -0.00000000000E+00 -0.33201186558E+03  0.33201186558E+03  0.00000000000E+00 0.  1.
         23    2    1    2    0    0 -0.82615153753E+01  0.53608297854E+00  0.12194148057E+01  0.91410087452E+02  0.91026243986E+02 0.  0.
         24    2    1    2    0    0 -0.65702155478E+02 -0.21818575670E+02 -0.16148891680E+03  0.19255967391E+03  0.78789176201E+02 0.  0.
        -11    1    4    4    0    0 -0.40220512689E+02 -0.13975234196E+01 -0.15384555080E+03  0.15902231358E+03  0.00000000000E+00 0.  1.
         12    1    4    4    0    0 -0.25481642789E+02 -0.20421052251E+02 -0.76433659993E+01  0.33537360332E+02  0.00000000000E+00 0. -1.
        -13    1    3    3    0    0  0.35569045157E+02 -0.21943630197E+02  0.45403499504E+01  0.42039203813E+02  0.00000000000E+00 0. -1.
         13    1    3    3    0    0 -0.43830560532E+02  0.22479713176E+02 -0.33209351447E+01  0.49370883639E+02  0.00000000000E+00 0.  1.
         -2    1    1    2    0  502  0.73963670853E+02  0.21282492692E+02 -0.96416374664E+02  0.12336809314E+03  0.00000000000E+00 0.  1.
<scales pt_clust_5="13000.00000" pt_clust_6="13000.00000" pt_clust_7="13000.00000" pt_clust_8="13000.00000" pt_clust_9="13000.00000"></scales>
<clustering>
<clus scale="   78.789">  5  6 -1 -1</clus>
<clus scale="   76.965">  5  9 -1 -1</clus>
<clus scale="   91.026">  7  8 -1 -1</clus>
<clus scale="   91.402">  1  7  2 -1</clus>
<clus scale="  182.470">  2  5  1 -1</clus>
</clustering>
</event>
<event>
 9    2  0.6085395E-005  0.2043150E+03  0.7546771E-02  0.1177604E+00
         21   -1    0    0  501  502  0.00000000000E+00  0.00000000000E+00  0.11947555680E+03  0.11947555680E+03  0.00000000000E+00 0. -1.
          2   -1    0    0  502    0 -0.00000000000E+00 -0.00000000000E+00 -0.19210160832E+03  0.19210160832E+03  0.00000000000E+00 0. -1.
         23    2    1    2    0    0  0.47185271422E+02 -0.94028980067E+01 -0.29113577229E+02  0.10268012769E+03  0.85911256032E+02 0.  0.
         24    2    1    2    0    0  0.29002538833E+02 -0.19560805811E+02 -0.80680653827E+02  0.11931494022E+03  0.80640651502E+02 0.  0.
        -13    1    4    4    0    0 -0.15500036736E+02 -0.12684389428E+02 -0.70307860056E+02  0.73104993398E+02  0.00000000000E+00 0.  1.
         14    1    4    4    0    0  0.44502575569E+02 -0.68764163830E+01 -0.10372793771E+02  0.46209946821E+02  0.00000000000E+00 0. -1.
        -11    1    3    3    0    0  0.20667320938E+01  0.34444612349E+02 -0.17543566625E+02  0.38710198028E+02  0.00000000000E+00 0.  1.
         11    1    3    3    0    0  0.45118539328E+02 -0.43847510356E+02 -0.11570010604E+02  0.63969929661E+02  0.00000000000E+00 0. -1.
          1    1    1    2  501    0 -0.76187810255E+02  0.28963703818E+02  0.37168179537E+02  0.89582097209E+02  0.00000000000E+00 0. -1.
<scales pt_clust_5="13000.00000" pt_clust_6="13000.00000" pt_clust_7="13000.00000" pt_clust_8="13000.00000" pt_clust_9="13000.00000"></scales>
<clustering>
<clus scale="   80.641">  5  6 -1 -1</clus>
<clus scale="   81.508">  5  9 -1 -1</clus>
<clus scale="   85.911">  7  8 -1 -1</clus>
<clus scale="   98.466">  2  7  1 -1</clus>
<clus scale="  204.315">  1  5  2 -1</clus>
</clustering>
</event>
<event>
 9    2  0.6085395E-005  0.3445228E+03  0.7546771E-02  0.1108021E+00
         21   -1    0    0  501  502  0.00000000000E+00  0.00000000000E+00  0.16133683250E+03  0.16133683250E+03  0.00000000000E+00 0. -1.
          2   -1    0    0  502    0 -0.00000000000E+00 -0.00000000000E+00 -0.35438437181E+03  0.35438437181E+03  0.00000000000E+00 0. -1.
         23    2    1    2    0    0 -0.56068732193E+02  0.71492633122E+01  0.19381464033E+02  0.11097187031E+03  0.93510962758E+02 0.  0.
         24    2    1    2    0    0 -0.95278083857E+02 -0.10558365215E+03 -0.87699401245E+02  0.18531218748E+03  0.80147370416E+02 0.  0.
        -11    1    4    4    0    0 -0.21155536808E+02 -0.82647189150E+02 -0.51928860518E+02  0.99873525854E+02  0.00000000000E+00 0.  1.
         12    1    4    4    0    0 -0.74122547050E+02 -0.22936462998E+02 -0.35770540727E+02  0.85438661623E+02  0.00000000000E+00 0. -1.
        -13    1    3    3    0    0 -0.27467893109E+02  0.50197051869E+02  0.56701494061E+01  0.57501128358E+02  0.00000000000E+00 0.  1.
         13    1    3    3    0    0 -0.28600839084E+02 -0.43047788556E+02  0.13711314627E+02  0.53470741950E+02  0.00000000000E+00 0. -1.
          1    1    1    2  501    0  0.15134681605E+03  0.98434388835E+02 -0.12472960211E+03  0.21943714653E+03  0.00000000000E+00 0. -1.
<scales pt_clust_5="13000.00000" pt_clust_6="13000.00000" pt_clust_7="13000.00000" pt_clust_8="13000.00000" pt_clust_9="13000.00000"></scales>
<clustering>
<clus scale="   80.147">  5  6 -1 -1</clus>
<clus scale="   93.511">  7  8 -1 -1</clus>
<clus scale="  109.266">  2  7  1 -1</clus>
<clus scale="  157.827">  5  9 -1 -1</clus>
<clus scale="  344.523">  1  5  2 -1</clus>
</clustering>
</event>
<event>
 9    2  0.6596077E-005  0.5368491E+03  0.7546771E-02  0.1027129E+00
         21   -1    0    0  501  502  0.00000000000E+00  0.00000000000E+00  0.48104607876E+03  0.48104607876E+03  0.00000000000E+00 0. -1.
          2   -1    0    0  502    0 -0.00000000000E+00 -0.00000000000E+00 -0.50141721866E+03  0.50141721866E+03  0.00000000000E+00 0. -1.
         23    2    1    2    0    0  0.18657015388E+03 -0.16995819285E+03  0.26185412110E+03  0.37595025847E+03  0.95272275465E+02 0.  0.
         24    2    1    2    0    0  0.22812019594E+02 -0.19278284852E+02 -0.31034626480E+03  0.32288982072E+03  0.83970183641E+02 0.  0.
        -13    1    4    4    0    0 -0.26398671559E+02 -0.26958401715E+02 -0.10448039168E+03  0.11108464128E+03  0.00000000000E+00 0.  1.
         14    1    4    4    0    0  0.49210691153E+02  0.76801168638E+01 -0.20586587313E+03  0.21180517944E+03  0.00000000000E+00 0. -1.
        -13    1    3    3    0    0  0.12229638963E+03 -0.14814467039E+03  0.14450251519E+03  0.24038350022E+03  0.00000000000E+00 0. -1.
         13    1    3    3    0    0  0.64273764243E+02 -0.21813522461E+02  0.11735160592E+03  0.13556675825E+03  0.00000000000E+00 0.  1.
          1    1    1    2  501    0 -0.20938217347E+03  0.18923647771E+03  0.28121003802E+02  0.28362321822E+03  0.00000000000E+00 0. -1.
<scales pt_clust_5="13000.00000" pt_clust_6="13000.00000" pt_clust_7="13000.00000" pt_clust_8="13000.00000" pt_clust_9="13000.00000"></scales>
<clustering>
<clus scale="   83.970">  5  6 -1 -1</clus>
<clus scale="   95.272">  7  8 -1 -1</clus>
<clus scale="  269.761">  2  7  1 -1</clus>
<clus scale="  209.671">  5  9 -1 -1</clus>
<clus scale="  536.849">  1  5  2 -1</clus>
</clustering>
</event>
<event>
 9    2  0.6085395E-005  0.4814816E+03  0.7546771E-02  0.1048023E+00
         21   -1    0    0  501  502  0.00000000000E+00  0.00000000000E+00  0.24061181033E+03  0.24061181033E+03  0.00000000000E+00 0. -1.
          4   -1    0    0  502    0 -0.00000000000E+00 -0.00000000000E+00 -0.51606162107E+03  0.51606162107E+03  0.00000000000E+00 0. -1.
         23    2    1    2    0    0  0.17157011405E+03 -0.58334404326E+02 -0.21110236727E+01  0.20301413137E+03  0.91493575477E+02 0.  0.
         24    2    1    2    0    0  0.84377848135E+02 -0.12069286111E+03 -0.78422828963E+02  0.18548495024E+03  0.81044053971E+02 0.  0.
        -11    1    4    4    0    0  0.75375846661E+02 -0.68860471935E+02 -0.84499110104E+02  0.13252691222E+03  0.00000000000E+00 0.  1.
         12    1    4    4    0    0  0.90020014737E+01 -0.51832389172E+02  0.60762811416E+01  0.52958038015E+02  0.00000000000E+00 0. -1.
        -11    1    3    3    0    0  0.66428877498E+02 -0.67863456833E+02 -0.16754920215E+02  0.96431176962E+02  0.00000000000E+00 0.  1.
         11    1    3    3    0    0  0.10514123655E+03  0.95290525069E+01  0.14643896542E+02  0.10658295441E+03  0.00000000000E+00 0. -1.
          3    1    1    2  501    0 -0.25594796218E+03  0.17902726543E+03 -0.19491595811E+03  0.36817434978E+03  0.00000000000E+00 0. -1.
<scales pt_clust_5="13000.00000" pt_clust_6="13000.00000" pt_clust_7="13000.00000" pt_clust_8="13000.00000" pt_clust_9="13000.00000"></scales>
<clustering>
<clus scale="   81.044">  5  6 -1 -1</clus>
<clus scale="   91.494">  7  8 -1 -1</clus>
<clus scale="  203.003">  2  7  1 -1</clus>
<clus scale="  196.885">  5  9 -1 -1</clus>
<clus scale="  481.482">  1  5  2 -1</clus>
</clustering>
</event>
<event>
 9    2  0.6085395E-005  0.2789722E+03  0.7546771E-02  0.1135244E+00
         21   -1    0    0  501  502  0.00000000000E+00  0.00000000000E+00  0.21546641611E+03  0.21546641611E+03  0.00000000000E+00 0. -1.
          2   -1    0    0  502    0 -0.00000000000E+00 -0.00000000000E+00 -0.21668977708E+03  0.21668977708E+03  0.00000000000E+00 0. -1.
         23    2    1    2    0    0  0.45988549606E+02 -0.22744626648E+02  0.90854764639E+02  0.13838095277E+03  0.90897937794E+02 0.  0.
         24    2    1    2    0    0  0.30425245533E+02 -0.32721585696E+02  0.64008441607E+02  0.11135104996E+03  0.79407669614E+02 0.  0.
        -11    1    4    4    0    0  0.25161529789E+02 -0.34077662239E+02 -0.45260464258E+01  0.42601346707E+02  0.00000000000E+00 0.  1.
         12    1    4    4    0    0  0.52637157435E+01  0.13560765434E+01  0.68534488033E+02  0.68749703250E+02  0.00000000000E+00 0. -1.
        -13    1    3    3    0    0  0.68155239023E+02 -0.73389831873E+01  0.87537259935E+02  0.11118349319E+03  0.00000000000E+00 0. -1.
         13    1    3    3    0    0 -0.22166689418E+02 -0.15405643460E+02  0.33175047041E+01  0.27197459580E+02  0.00000000000E+00 0.  1.
          1    1    1    2  501    0 -0.76413795138E+02  0.55466212344E+02 -0.15608656722E+03  0.18242419046E+03  0.00000000000E+00 0. -1.
<scales pt_clust_5="13000.00000" pt_clust_6="13000.00000" pt_clust_7="13000.00000" pt_clust_8="13000.00000" pt_clust_9="13000.00000"></scales>
<clustering>
<clus scale="   79.408">  5  6 -1 -1</clus>
<clus scale="   90.898">  7  8 -1 -1</clus>
<clus scale="   94.422">  5  9 -1 -1</clus>
<clus scale="  104.378">  2  7  1 -1</clus>
<clus scale="  278.972">  1  5  2 -1</clus>
</clustering>
</event>
<event>
 9    2  0.6085395E-005  0.1974759E+03  0.7546771E-02  0.1182633E+00
         -1   -1    0    0    0  501 -0.00000000000E+00  0.00000000000E+00  0.51949080765E+02  0.51949080765E+02  0.00000000000E+00 0.  1.
         21   -1    0    0  501  502  0.00000000000E+00 -0.00000000000E+00 -0.55556428759E+03  0.55556428759E+03  0.00000000000E+00 0.  1.
         23    2    1    2    0    0  0.10940270426E+02  0.28898072285E+01 -0.43227710492E+02  0.10656091361E+03  0.96739613665E+02 0.  0.
         24    2    1    2    0    0 -0.27739181434E+02  0.77417044187E+02 -0.30265039563E+03  0.32315372940E+03  0.77898715877E+02 0.  0.
        -13    1    4    4    0    0 -0.28501432094E+02  0.28466755887E+02 -0.24142227161E+03  0.24475988448E+03  0.00000000000E+00 0.  1.
         14    1    4    4    0    0  0.76225066066E+00  0.48950288300E+02 -0.61228124023E+02  0.78393844925E+02  0.00000000000E+00 0. -1.
        -11    1    3    3    0    0 -0.22314100898E+02 -0.16854951058E+02 -0.58610163577E+02  0.64939662369E+02  0.00000000000E+00 0. -1.
         11    1    3    3    0    0  0.33254371324E+02  0.19744758286E+02  0.15382453085E+02  0.41621251241E+02  0.00000000000E+00 0.  1.
         -2    1    1    2    0  502  0.16798911008E+02 -0.80306851415E+02 -0.15773710071E+03  0.17779872534E+03  0.00000000000E+00 0.  1.
<scales pt_clust_5="13000.00000" pt_clust_6="13000.00000" pt_clust_7="13000.00000" pt_clust_8="13000.00000" pt_clust_9="13000.00000"></scales>
<clustering>
<clus scale="   77.899">  5  6 -1 -1</clus>
<clus scale="   82.045">  5  9 -1 -1</clus>
<clus scale="   96.740">  7  8 -1 -1</clus>
<clus scale="   97.399">  1  7  2 -1</clus>
<clus scale="  197.476">  2  5  1 -1</clus>
</clustering>
</event>
<event>
 9    2  0.6085395E-005  0.1568156E+03  0.7546771E-02  0.1211816E+00
         21   -1    0    0  501  502  0.00000000000E+00  0.00000000000E+00  0.31215929976E+03  0.31215929976E+03  0.00000000000E+00 0.  1.
         -1   -1    0    0    0  501 -0.00000000000E+00 -0.00000000000E+00 -0.95406608994E+02  0.95406608994E+02  0.00000000000E+00 0.  1.
         23    2    1    2    0    0  0.70947354329E-01  0.43362621259E+02 -0.36950886319E+02  0.10930992953E+03  0.93289714001E+02 0.  0.
         24    2    1    2    0    0 -0.12457682024E+02  0.32268912169E+02  0.13461669981E+03  0.15663943928E+03  0.72234213074E+02 0.  0.
        -11    1    4    4    0    0 -0.22012763517E+02  0.49795461141E+02  0.12038474703E+03  0.13212356726E+03  0.00000000000E+00 0.  1.
         12    1    4    4    0    0  0.95550814929E+01 -0.17526548972E+02  0.14231952771E+02  0.24515872020E+02  0.00000000000E+00 0. -1.
        -11    1    3    3    0    0  0.36924401979E+02 -0.94480328693E+01 -0.93376685785E+01  0.39241162586E+02  0.00000000000E+00 0.  1.
         11    1    3    3    0    0 -0.36853454625E+02  0.52810654128E+02 -0.27613217741E+02  0.70068766945E+02  0.00000000000E+00 0. -1.
         -2    1    1    2    0  502  0.12386734670E+02 -0.75631533427E+02  0.11908687728E+03  0.14161653994E+03  0.00000000000E+00 0.  1.
<scales pt_clust_5="13000.00000" pt_clust_6="13000.00000" pt_clust_7="13000.00000" pt_clust_8="13000.00000" pt_clust_9="13000.00000"></scales>
<clustering>
<clus scale="   72.234">  5  6 -1 -1</clus>
<clus scale="   76.639">  5  9 -1 -1</clus>
<clus scale="   93.290">  7  8 -1 -1</clus>
<clus scale="  102.875">  2  7  1 -1</clus>
<clus scale="  156.816">  1  5  2 -1</clus>
</clustering>
</event>
<event>
 9    2  0.6085395E-005  0.5910625E+03  0.7546771E-02  0.1022771E+00
         21   -1    0    0  501  502  0.00000000000E+00  0.00000000000E+00  0.16906637824E+03  0.16906637824E+03  0.00000000000E+00 0. -1.
          4   -1    0    0  502    0 -0.00000000000E+00 -0.00000000000E+00 -0.10835781957E+04  0.10835781957E+04  0.00000000000E+00 0. -1.
         23    2    1    2    0    0 -0.11742355265E+03 -0.17587752501E+03 -0.43228795726E+03  0.48982434010E+03  0.91289712674E+02 0.  0.
         24    2    1    2    0    0  0.15726607844E+02 -0.15805112793E+03 -0.34417082702E+03  0.38744142011E+03  0.80186099861E+02 0.  0.
        -13    1    4    4    0    0 -0.30963572292E+02 -0.89818569451E+02 -0.19404908778E+03  0.21605824839E+03  0.00000000000E+00 0.  1.
         14    1    4    4    0    0  0.46690180136E+02 -0.68232558484E+02 -0.15012173924E+03  0.17138317172E+03  0.00000000000E+00 0. -1.
        -11    1    3    3    0    0 -0.66655774180E+01 -0.53131007883E+02 -0.18316887537E+03  0.19083545484E+03  0.00000000000E+00 0.  1.
         11    1    3    3    0    0 -0.11075797523E+03 -0.12274651713E+03 -0.24911908189E+03  0.29898888526E+03  0.00000000000E+00 0. -1.
          3    1    1    2  501    0  0.10169694481E+03  0.33392865295E+03 -0.13805303321E+03  0.37537881376E+03  0.00000000000E+00 0. -1.
<scales pt_clust_5="13000.00000" pt_clust_6="13000.00000" pt_clust_7="13000.00000" pt_clust_8="13000.00000" pt_clust_9="13000.00000"></scales>
<clustering>
<clus scale="   80.186">  5  6 -1 -1</clus>
<clus scale="   91.290">  7  8 -1 -1</clus>
<clus scale="  230.337">  2  7  1 -1</clus>
<clus scale="  266.774">  5  9 -1 -1</clus>
<clus scale="  591.062">  1  5  2 -1</clus>
</clustering>
</event>
<event>
 9    2  0.6085395E-005  0.2923074E+03  0.7546771E-02  0.1118576E+00
         -3   -1    0    0    0  501 -0.00000000000E+00  0.00000000000E+00  0.64067026777E+03  0.64067026777E+03  0.00000000000E+00 0.  1.
         21   -1    0    0  501  502  0.00000000000E+00 -0.00000000000E+00 -0.96834730548E+02  0.96834730548E+02  0.00000000000E+00 0. -1.
         23    2    1    2    0    0 -0.16873185783E+02 -0.10025032721E+03  0.21061901776E+02  0.13855935117E+03  0.91761961544E+02 0.  0.
         24    2    1    2    0    0  0.56675627517E+02  0.51062827223E+02  0.50639747772E+02  0.12259068243E+03  0.81514123231E+02 0.  0.
        -11    1    4    4    0    0  0.50822618710E+02  0.32153890891E+02  0.71770773076E+02  0.93636825768E+02  0.00000000000E+00 0.  1.
         12    1    4    4    0    0  0.58530088068E+01  0.18908936332E+02 -0.21131025304E+02  0.28953856663E+02  0.00000000000E+00 0. -1.
        -11    1    3    3    0    0  0.33280308769E+02 -0.43650497107E+02 -0.11734326227E+02  0.56130555507E+02  0.00000000000E+00 0. -1.
         11    1    3    3    0    0 -0.50153494552E+02 -0.56599830098E+02  0.32796228004E+02  0.82428795661E+02  0.00000000000E+00 0.  1.
         -4    1    1    2    0  502 -0.39802441734E+02  0.49187499982E+02  0.47213388767E+03  0.47635496472E+03  0.00000000000E+00 0.  1.
<scales pt_clust_5="13000.00000" pt_clust_6="13000.00000" pt_clust_7="13000.00000" pt_clust_8="13000.00000" pt_clust_9="13000.00000"></scales>
<clustering>
<clus scale="   81.514">  5  6 -1 -1</clus>
<clus scale="   63.274">  5  9 -1 -1</clus>
<clus scale="   91.762">  7  8 -1 -1</clus>
<clus scale="  136.949">  1  7  2 -1</clus>
<clus scale="  292.307">  2  5  1 -1</clus>
</clustering>
</event>
<event>
 9    2  0.6085395E-005  0.6030670E+03  0.7546771E-02  0.1007060E+00
          2   -1    0    0  502    0 -0.00000000000E+00  0.00000000000E+00  0.78528666548E+03  0.78528666548E+03  0.00000000000E+00 0. -1.
         21   -1    0    0  501  502  0.00000000000E+00 -0.00000000000E+00 -0.53957471602E+03  0.53957471602E+03  0.00000000000E+00 0.  1.
         23    2    1    2    0    0 -0.32890365755E+03  0.80465683647E+02 -0.33696885306E+03  0.48628712691E+03  0.90966035791E+02 0.  0.
         24    2    1    2    0    0 -0.74591717593E+02 -0.11008556029E+03  0.38885409291E+02  0.16078425425E+03  0.81588886762E+02 0.  0.
        -11    1    4    4    0    0 -0.60478735954E+02 -0.12125764039E+03  0.24405999527E+02  0.13768349817E+03  0.00000000000E+00 0.  1.
         12    1    4    4    0    0 -0.14112981639E+02  0.11172080102E+02  0.14479409764E+02  0.23100756084E+02  0.00000000000E+00 0. -1.
        -11    1    3    3    0    0 -0.26408173950E+03  0.10011206539E+03 -0.26172763586E+03  0.38504927756E+03  0.00000000000E+00 0.  1.
         11    1    3    3    0    0 -0.64821918056E+02 -0.19646381744E+02 -0.75241217192E+02  0.10123784935E+03  0.00000000000E+00 0. -1.
          1    1    1    2  501    0  0.40349537515E+03  0.29619876642E+02  0.54379539323E+03  0.67779000034E+03  0.00000000000E+00 0. -1.
<scales pt_clust_5="13000.00000" pt_clust_6="13000.00000" pt_clust_7="13000.00000" pt_clust_8="13000.00000" pt_clust_9="13000.00000"></scales>
<clustering>
<clus scale="   81.589">  5  6 -1 -1</clus>
<clus scale="   90.966">  7  8 -1 -1</clus>
<clus scale="  350.610">  1  7  2 -1</clus>
<clus scale="  156.045">  5  9 -1 -1</clus>
<clus scale="  603.067">  2  5  1 -1</clus>
</clustering>
</event>
<event>
 9    2  0.6085395E-005  0.2086919E+03  0.7546771E-02  0.1146045E+00
         21   -1    0    0  501  502  0.00000000000E+00  0.00000000000E+00  0.14333040763E+03  0.14333040763E+03  0.00000000000E+00 0. -1.
          2   -1    0    0  502    0 -0.00000000000E+00 -0.00000000000E+00 -0.52350739674E+03  0.52350739674E+03  0.00000000000E+00 0. -1.
         23    2    1    2    0    0 -0.14123212929E+03 -0.92445007703E+02  0.41242579162E+02  0.19657537499E+03  0.91914818857E+02 0.  0.
         24    2    1    2    0    0  0.51774065018E+02  0.32895875244E+02 -0.21126173641E+03  0.23422184234E+03  0.80409313755E+02 0.  0.
        -13    1    4    4    0    0  0.62160023216E+02  0.46189534766E+02 -0.19849084438E+03  0.21306326973E+03  0.00000000000E+00 0.  1.
         14    1    4    4    0    0 -0.10385958198E+02 -0.13293659522E+02 -0.12770892035E+02  0.21158572601E+02  0.00000000000E+00 0. -1.
        -13    1    3    3    0    0 -0.36273949200E+02  0.12537811448E+02  0.28054548979E+02  0.47540023400E+02  0.00000000000E+00 0.  1.
         13    1    3    3    0    0 -0.10495818009E+03 -0.10498281915E+03  0.13188030182E+02  0.14903535159E+03  0.00000000000E+00 0. -1.
          1    1    1    2  501    0  0.89458064269E+02  0.59549132459E+02 -0.21015783186E+03  0.23604058705E+03  0.00000000000E+00 0. -1.
<scales pt_clust_5="13000.00000" pt_clust_6="13000.00000" pt_clust_7="13000.00000" pt_clust_8="13000.00000" pt_clust_9="13000.00000"></scales>
<clustering>
<clus scale="   80.409">  5  6 -1 -1</clus>
<clus scale="   91.915">  7  8 -1 -1</clus>
<clus scale="  107.466">  5  9 -1 -1</clus>
<clus scale="  192.200">  2  7  1 -1</clus>
<clus scale="  208.692">  1  5  2 -1</clus>
</clustering>
</event>
<event>
 9    2  0.6085395E-005  0.1581043E+03  0.7546771E-02  0.1203546E+00
         -1   -1    0    0    0  501 -0.00000000000E+00  0.00000000000E+00  0.19261388208E+03  0.19261388208E+03  0.00000000000E+00 0.  1.
         21   -1    0    0  501  502  0.00000000000E+00 -0.00000000000E+00 -0.10387776376E+03  0.10387776376E+03  0.00000000000E+00 0.  1.
         23    2    1    2    0    0 -0.57052335997E+02 -0.47609126797E+02  0.11130554782E+02  0.12036780063E+03  0.94036802268E+02 0.  0.
         24    2    1    2    0    0  0.73050975909E+02  0.15453418497E+02  0.23734701214E+02  0.11137806648E+03  0.79161129525E+02 0.  0.
        -13    1    4    4    0    0  0.82113675272E+02  0.25635611891E+02  0.23942261592E+01  0.86055636553E+02  0.00000000000E+00 0.  1.
         14    1    4    4    0    0 -0.90626993631E+01 -0.10182193395E+02  0.21340475055E+02  0.25322429931E+02  0.00000000000E+00 0. -1.
        -11    1    3    3    0    0 -0.76118338932E+02 -0.39266925597E+02  0.31488869019E+02  0.91254818173E+02  0.00000000000E+00 0.  1.
         11    1    3    3    0    0  0.19066002935E+02 -0.83422012007E+01 -0.20358314237E+02  0.29112982454E+02  0.00000000000E+00 0. -1.
         -2    1    1    2    0  502 -0.15998639912E+02  0.32155708301E+02  0.53870862324E+02  0.64745778726E+02  0.00000000000E+00 0.  1.
<scales pt_clust_5="13000.00000" pt_clust_6="13000.00000" pt_clust_7="13000.00000" pt_clust_8="13000.00000" pt_clust_9="13000.00000"></scales>
<clustering>
<clus scale="   79.161">  5  6 -1 -1</clus>
<clus scale="   35.916">  5  9 -1 -1</clus>
<clus scale="   94.037">  7  8 -1 -1</clus>
<clus scale="  119.852">  1  7  2 -1</clus>
<clus scale="  158.104">  2  5  1 -1</clus>
</clustering>
</event>
<event>
 9    2  0.6085395E-005  0.1822844E+03  0.7546771E-02  0.1191904E+00
         21   -1    0    0  501  502  0.00000000000E+00  0.00000000000E+00  0.51009463364E+02  0.51009463364E+02  0.00000000000E+00 0. -1.
          2   -1    0    0  502    0 -0.00000000000E+00 -0.00000000000E+00 -0.43502088247E+03  0.43502088247E+03  0.00000000000E+00 0. -1.
         23    2    1    2    0    0  0.10111699151E+02 -0.37019390453E+02 -0.21496336582E+03  0.23742451196E+03  0.93211954729E+02 0.  0.
         24    2    1    2    0    0 -0.67131213957E+02  0.41119385153E+02 -0.90628254753E+02  0.15156099977E+03  0.92519470211E+02 0.  0.
        -13    1    4    4    0    0 -0.27996873117E+02  0.69176979844E+01 -0.95118131255E+02  0.99393854655E+02  0.00000000000E+00 0.  1.
         14    1    4    4    0    0 -0.39134340840E+02  0.34201687168E+02  0.44898765019E+01  0.52167145112E+02  0.00000000000E+00 0. -1.
        -11    1    3    3    0    0  0.49531696460E+02 -0.19068604956E+02 -0.15200834618E+03  0.16100788166E+03  0.00000000000E+00 0.  1.
         11    1    3    3    0    0 -0.39419997309E+02 -0.17950785497E+02 -0.62955019645E+02  0.76416630299E+02  0.00000000000E+00 0. -1.
          1    1    1    2  501    0  0.57019514807E+02 -0.40999946994E+01 -0.78419798532E+02  0.97044834109E+02  0.00000000000E+00 0. -1.
<scales pt_clust_5="13000.00000" pt_clust_6="13000.00000" pt_clust_7="13000.00000" pt_clust_8="13000.00000" pt_clust_9="13000.00000"></scales>
<clustering>
<clus scale="   92.519">  5  6 -1 -1</clus>
<clus scale="   57.167">  5  9 -1 -1</clus>
<clus scale="   93.212">  7  8 -1 -1</clus>
<clus scale="  100.803">  2  7  1 -1</clus>
<clus scale="  182.284">  1  5  2 -1</clus>
</clustering>
</event>
<event>
 9    2  0.6085395E-005  0.3693797E+03  0.7546771E-02  0.1077821E+00
         21   -1    0    0  501  502  0.00000000000E+00  0.00000000000E+00  0.50964853805E+02  0.50964853805E+02  0.00000000000E+00 0. -1.
          2   -1    0    0  502    0 -0.00000000000E+00 -0.00000000000E+00 -0.17669467501E+04  0.17669467501E+04  0.00000000000E+00 0. -1.
         23    2    1    2    0    0  0.16936099979E+03 -0.37997266048E+02 -0.91599469737E+03  0.93676413640E+03  0.91399240441E+02 0.  0.
         24    2    1    2    0    0  0.21549909007E+02  0.10341268868E+03 -0.51628452548E+03  0.53299037718E+03  0.79815087334E+02 0.  0.
        -13    1    4    4    0    0 -0.11567876245E+01  0.10733104183E+03 -0.45573218381E+03  0.46820200134E+03  0.00000000000E+00 0.  1.
         14    1    4    4    0    0  0.22706696631E+02 -0.39183531486E+01 -0.60552341664E+02  0.64788375842E+02  0.00000000000E+00 0. -1.
        -11    1    3    3    0    0  0.82504148167E+01 -0.19637806764E+02 -0.35008513119E+02  0.40979370297E+02  0.00000000000E+00 0.  1.
         11    1    3    3    0    0  0.16111058498E+03 -0.18359459283E+02 -0.88098618425E+03  0.89578476610E+03  0.00000000000E+00 0. -1.
          1    1    1    2  501    0 -0.19091090880E+03 -0.65415422637E+02 -0.28370267343E+03  0.34815709031E+03  0.00000000000E+00 0. -1.
<scales pt_clust_5="13000.00000" pt_clust_6="13000.00000" pt_clust_7="13000.00000" pt_clust_8="13000.00000" pt_clust_9="13000.00000"></scales>
<clustering>
<clus scale="   79.815">  5  6 -1 -1</clus>
<clus scale="   91.399">  7  8 -1 -1</clus>
<clus scale="  196.165">  2  7  1 -1</clus>
<clus scale="  150.152">  5  9 -1 -1</clus>
<clus scale="  369.380">  1  5  2 -1</clus>
</clustering>
</event>
<event>
 9    2  0.6085395E-005  0.2576294E+03  0.7546771E-02  0.1141791E+00
         -1   -1    0    0    0  501 -0.00000000000E+00  0.00000000000E+00  0.98078527825E+03  0.98078527825E+03  0.00000000000E+00 0.  1.
         21   -1    0    0  501  502  0.00000000000E+00 -0.00000000000E+00 -0.41414927179E+02  0.41414927179E+02  0.00000000000E+00 0. -1.
         23    2    1    2    0    0 -0.66472429052E+02  0.38067073145E+01  0.12757023650E+03  0.17050054349E+03  0.91450507064E+02 0.  0.
         24    2    1    2    0    0 -0.39540133395E+02 -0.49912479307E+02  0.15307554061E+03  0.18290786330E+03  0.77255987356E+02 0.  0.
        -13    1    4    4    0    0 -0.26029351796E+02  0.12444761403E+02  0.84269714337E+02  0.89071791246E+02  0.00000000000E+00 0.  1.
         14    1    4    4    0    0 -0.13510781599E+02 -0.62357240711E+02  0.68805826278E+02  0.93836072053E+02  0.00000000000E+00 0. -1.
        -11    1    3    3    0    0 -0.42954663176E+01  0.38073184031E+02  0.24970978044E+02  0.45733665036E+02  0.00000000000E+00 0.  1.
         11    1    3    3    0    0 -0.62176962734E+02 -0.34266476716E+02  0.10259925846E+03  0.12476687845E+03  0.00000000000E+00 0. -1.
         -2    1    1    2    0  502  0.10601256245E+03  0.46105771993E+02  0.65872457395E+03  0.66879179864E+03  0.00000000000E+00 0.  1.
<scales pt_clust_5="13000.00000" pt_clust_6="13000.00000" pt_clust_7="13000.00000" pt_clust_8="13000.00000" pt_clust_9="13000.00000"></scales>
<clustering>
<clus scale="   77.256">  5  6 -1 -1</clus>
<clus scale="   91.451">  7  8 -1 -1</clus>
<clus scale="  113.121">  1  7  2 -1</clus>
<clus scale="   72.253">  5  9 -1 -1</clus>
<clus scale="  257.629">  2  5  1 -1</clus>
</clustering>
</event>
<event>
 9    2  0.6085395E-005  0.2399227E+03  0.7546771E-02  0.1147285E+00
         21   -1    0    0  501  502  0.00000000000E+00  0.00000000000E+00  0.14786783283E+03  0.14786783283E+03  0.00000000000E+00 0. -1.
         -1   -1    0    0    0  501 -0.00000000000E+00 -0.00000000000E+00 -0.34082058780E+03  0.34082058780E+03  0.00000000000E+00 0.  1.
         23    2    1    2    0    0  0.39630832002E+02 -0.74836902126E+02  0.62869319682E+02  0.13796368389E+03  0.88939653413E+02 0.  0.
         24    2    1    2    0    0  0.24033035790E+02 -0.46964320127E+02 -0.14288731317E+03  0.17284026256E+03  0.81692949038E+02 0.  0.
        -13    1    4    4    0    0  0.36331701728E+02  0.94810080541E+01 -0.40129767298E+02  0.54957076774E+02  0.00000000000E+00 0.  1.
         14    1    4    4    0    0 -0.12298665938E+02 -0.56445328182E+02 -0.10275754587E+03  0.11788318578E+03  0.00000000000E+00 0. -1.
        -11    1    3    3    0    0  0.24398320670E+02  0.16622568503E+02  0.20997330362E+02  0.36228106733E+02  0.00000000000E+00 0.  1.
         11    1    3    3    0    0  0.15232511332E+02 -0.91459470628E+02  0.41871989320E+02  0.10173557715E+03  0.00000000000E+00 0. -1.
         -2    1    1    2    0  502 -0.63663867792E+02  0.12180122225E+03 -0.11293476149E+03  0.17788447419E+03  0.00000000000E+00 0.  1.
<scales pt_clust_5="13000.00000" pt_clust_6="13000.00000" pt_clust_7="13000.00000" pt_clust_8="13000.00000" pt_clust_9="13000.00000"></scales>
<clustering>
<clus scale="   81.693">  5  6 -1 -1</clus>
<clus scale="   88.940">  7  8 -1 -1</clus>
<clus scale="  122.807">  2  7  1 -1</clus>
<clus scale="   96.834">  5  9 -1 -1</clus>
<clus scale="  239.923">  1  5  2 -1</clus>
</clustering>
</event>
<event>
 9    2  0.6085395E-005  0.2818151E+03  0.7546771E-02  0.1134464E+00
          2   -1    0    0  502    0 -0.00000000000E+00  0.00000000000E+00  0.13545084878E+04  0.13545084878E+04  0.00000000000E+00 0. -1.
         21   -1    0    0  501  502  0.00000000000E+00 -0.00000000000E+00 -0.27394649318E+02  0.27394649318E+02  0.00000000000E+00 0. -1.
         23    2    1    2    0    0  0.31906188253E+02  0.44261650320E+02  0.33395721024E+03  0.34953699907E+03  0.87587652749E+02 0.  0.
         24    2    1    2    0    0 -0.11883357832E+02  0.93127851604E+02  0.26072968501E+03  0.28689580587E+03  0.74264553071E+02 0.  0.
        -11    1    4    4    0    0  0.14741506989E+02  0.91813180528E+02  0.19883947374E+03  0.21950878904E+03  0.00000000000E+00 0.  1.
         12    1    4    4    0    0 -0.26624864821E+02  0.13146710764E+01  0.61890211271E+02  0.67387016835E+02  0.00000000000E+00 0. -1.
        -13    1    3    3    0    0  0.40834417270E+02 -0.22384252286E+01  0.67629309629E+02  0.79032801432E+02  0.00000000000E+00 0. -1.
         13    1    3    3    0    0 -0.89282290169E+01  0.46500075548E+02  0.26632790061E+03  0.27050419764E+03  0.00000000000E+00 0.  1.
          1    1    1    2  501    0 -0.20022830421E+02 -0.13738950192E+03  0.73242694323E+03  0.74547033217E+03  0.00000000000E+00 0. -1.
<scales pt_clust_5="13000.00000" pt_clust_6="13000.00000" pt_clust_7="13000.00000" pt_clust_8="13000.00000" pt_clust_9="13000.00000"></scales>
<clustering>
<clus scale="   74.265">  5  6 -1 -1</clus>
<clus scale="   87.588">  7  8 -1 -1</clus>
<clus scale="  103.193">  1  7  2 -1</clus>
<clus scale="  105.145">  5  9 -1 -1</clus>
<clus scale="  281.815">  2  5  1 -1</clus>
</clustering>
</event>
<event>
 9    2  0.6085395E-005  0.4140089E+03  0.7546771E-02  0.1075807E+00
         21   -1    0    0  501  502  0.00000000000E+00  0.00000000000E+00  0.89218284651E+03  0.89218284651E+03  0.00000000000E+00 0.  1.
         -1   -1    0    0    0  501 -0.00000000000E+00 -0.00000000000E+00 -0.10555951007E+03  0.10555951007E+03  0.00000000000E+00 0.  1.
         23    2    1    2    0    0 -0.10825647731E+03  0.37659177971E+02  0.54950122900E+02  0.15705867405E+03  0.92250921531E+02 0.  0.
         24    2    1    2    0    0 -0.51604226441E+02  0.14448845061E+03  0.28721049340E+03  0.33444232428E+03  0.76301325062E+02 0.  0.
        -11    1    4    4    0    0 -0.27043168957E+02  0.48720219187E+02  0.18079457719E+03  0.18918687028E+03  0.00000000000E+00 0.  1.
         12    1    4    4    0    0 -0.24561057483E+02  0.95768231425E+02  0.10641591621E+03  0.14525545400E+03  0.00000000000E+00 0. -1.
        -11    1    3    3    0    0 -0.50745575194E+02  0.23933172561E+02 -0.21784555476E+02  0.60187016938E+02  0.00000000000E+00 0.  1.
         11    1    3    3    0    0 -0.57510902116E+02  0.13726005410E+02  0.76734678375E+02  0.96871657114E+02  0.00000000000E+00 0. -1.
         -2    1    1    2    0  502  0.15986070375E+03 -0.18214762858E+03  0.44446272014E+03  0.50624135825E+03  0.00000000000E+00 0.  1.
<scales pt_clust_5="13000.00000" pt_clust_6="13000.00000" pt_clust_7="13000.00000" pt_clust_8="13000.00000" pt_clust_9="13000.00000"></scales>
<clustering>
<clus scale="   76.301">  5  6 -1 -1</clus>
<clus scale="   92.251">  7  8 -1 -1</clus>
<clus scale="  147.132">  2  7  1 -1</clus>
<clus scale="  188.580">  5  9 -1 -1</clus>
<clus scale="  414.009">  1  5  2 -1</clus>
</clustering>
</event>
<event>
 9    2  0.6085395E-005  0.2407363E+03  0.7546771E-02  0.1122079E+00
         -1   -1    0    0    0  501 -0.00000000000E+00  0.00000000000E+00  0.22683590476E+04  0.22683590476E+04  0.00000000000E+00 0.  1.
         21   -1    0    0  501  502  0.00000000000E+00 -0.00000000000E+00 -0.23994580243E+02  0.23994580243E+02  0.00000000000E+00 0.  1.
         23    2    1    2    0    0 -0.86775225480E+02 -0.18970361999E+03  0.99979736495E+03  0.10247175467E+04  0.83269900325E+02 0.  0.
         24    2    1    2    0    0  0.34237538346E+02  0.43508901684E+02  0.39225893623E+03  0.40128608586E+03  0.64017310935E+02 0.  0.
        -13    1    4    4    0    0  0.50240169639E+02  0.18818388878E+02  0.28803348938E+03  0.29298719667E+03  0.00000000000E+00 0.  1.
         14    1    4    4    0    0 -0.16002631294E+02  0.24690512806E+02  0.10422544684E+03  0.10829888920E+03  0.00000000000E+00 0. -1.
        -11    1    3    3    0    0  0.15830831693E+01 -0.86702958020E+02  0.46157666804E+03  0.46965192383E+03  0.00000000000E+00 0.  1.
         11    1    3    3    0    0 -0.88358308649E+02 -0.10300066198E+03  0.53822069691E+03  0.55506562284E+03  0.00000000000E+00 0. -1.
         -2    1    1    2    0  502  0.52537687134E+02  0.14619471831E+03  0.85230816615E+03  0.86634999528E+03  0.00000000000E+00 0.  1.
<scales pt_clust_5="13000.00000" pt_clust_6="13000.00000" pt_clust_7="13000.00000" pt_clust_8="13000.00000" pt_clust_9="13000.00000"></scales>
<clustering>
<clus scale="   64.017">  5  6 -1 -1</clus>
<clus scale="   83.270">  7  8 -1 -1</clus>
<clus scale="  155.348">  5  9 -1 -1</clus>
<clus scale="  224.614">  1  7  2 -1</clus>
<clus scale="  240.736">  2  5  1 -1</clus>
</clustering>
</event>
<event>
 9    2  0.6085395E-005  0.1338963E+03  0.7546771E-02  0.1237572E+00
         -3   -1    0    0    0  501 -0.00000000000E+00  0.00000000000E+00  0.31935090528E+02  0.31935090528E+02  0.00000000000E+00 0.  1.
         21   -1    0    0  501  502  0.00000000000E+00 -0.00000000000E+00 -0.42335721153E+03  0.42335721153E+03  0.00000000000E+00 0.  1.
         23    2    1    2    0    0  0.24333490454E+02  0.14442186318E+02 -0.19418179158E+03  0.21689775377E+03  0.92397899899E+02 0.  0.
         24    2    1    2    0    0 -0.10705841828E+02 -0.34164977021E+02 -0.19546767019E+03  0.21435617062E+03  0.80368508082E+02 0.  0.
        -13    1    4    4    0    0 -0.45388080133E+02 -0.22407485084E+02 -0.12688056192E+03  0.13660472246E+03  0.00000000000E+00 0.  1.
         14    1    4    4    0    0  0.34682238305E+02 -0.11757491937E+02 -0.68587108272E+02  0.77751448164E+02  0.00000000000E+00 0. -1.
        -13    1    3    3    0    0 -0.33907372135E+01  0.45633108709E+02 -0.54747159984E+02  0.71352149481E+02  0.00000000000E+00 0. -1.
         13    1    3    3    0    0  0.27724227667E+02 -0.31190922390E+02 -0.13943463160E+03  0.14554560429E+03  0.00000000000E+00 0.  1.
         -4    1    1    2    0  502 -0.13627648626E+02  0.19722790702E+02 -0.17726592355E+01  0.24038377668E+02  0.00000000000E+00 0.  1.
<scales pt_clust_5="13000.00000" pt_clust_6="13000.00000" pt_clust_7="13000.00000" pt_clust_8="13000.00000" pt_clust_9="13000.00000"></scales>
<clustering>
<clus scale="   80.369">  5  6 -1 -1</clus>
<clus scale="   23.973">  5  9 -1 -1</clus>
<clus scale="   92.398">  7  8 -1 -1</clus>
<clus scale="   96.634">  1  7  2 -1</clus>
<clus scale="  133.896">  2  5  1 -1</clus>
</clustering>
</event>
<event>
 9    2  0.6085395E-005  0.3828218E+03  0.7546771E-02  0.1098202E+00
          2   -1    0    0  502    0 -0.00000000000E+00  0.00000000000E+00  0.14336280486E+03  0.14336280486E+03  0.00000000000E+00 0. -1.
         21   -1    0    0  501  502  0.00000000000E+00 -0.00000000000E+00 -0.43611320530E+03  0.43611320530E+03  0.00000000000E+00 0. -1.
         23    2    1    2    0    0 -0.50487280618E+02 -0.85657536164E-01 -0.12444839963E+03  0.16129176521E+03  0.89323325694E+02 0.  0.
         24    2    1    2    0    0  0.63423205589E+02 -0.63683879620E+02 -0.27096514753E+03  0.29663748968E+03  0.80582563746E+02 0.  0.
        -13    1    4    4    0    0  0.23656055631E+02 -0.32182480744E+02 -0.28867428781E+02  0.49281329926E+02  0.00000000000E+00 0.  1.
         14    1    4    4    0    0  0.39767149957E+02 -0.31501398876E+02 -0.24209771875E+03  0.24735615976E+03  0.00000000000E+00 0. -1.
        -11    1    3    3    0    0 -0.75800464245E+02 -0.75420463125E+01 -0.94396881515E+02  0.12129865655E+03  0.00000000000E+00 0.  1.
         11    1    3    3    0    0  0.25313183627E+02  0.74563887764E+01 -0.30051518112E+02  0.39993108654E+02  0.00000000000E+00 0. -1.
          1    1    1    2  501    0 -0.12935924971E+02  0.63769537156E+02  0.10266314671E+03  0.12154675527E+03  0.00000000000E+00 0. -1.
<scales pt_clust_5="13000.00000" pt_clust_6="13000.00000" pt_clust_7="13000.00000" pt_clust_8="13000.00000" pt_clust_9="13000.00000"></scales>
<clustering>
<clus scale="   80.583">  5  6 -1 -1</clus>
<clus scale="   65.068">  5  9 -1 -1</clus>
<clus scale="   89.323">  7  8 -1 -1</clus>
<clus scale="  102.604">  1  7  2 -1</clus>
<clus scale="  382.822">  2  5  1 -1</clus>
</clustering>
</event>
<event>
 9    2  0.6085395E-005  0.1790755E+03  0.7546771E-02  0.1180471E+00
         -1   -1    0    0    0  501 -0.00000000000E+00  0.00000000000E+00  0.47948731144E+02  0.47948731144E+02  0.00000000000E+00 0.  1.
         21   -1    0    0  501  502  0.00000000000E+00 -0.00000000000E+00 -0.69811321919E+03  0.69811321919E+03  0.00000000000E+00 0.  1.
         23    2    1    2    0    0 -0.91312427330E+02  0.30236530715E+02 -0.47939638337E+03  0.49861540756E+03  0.97694549968E+02 0.  0.
         24    2    1    2    0    0  0.19400988900E+02 -0.81087610320E+01 -0.14623780780E+03  0.16830977109E+03  0.80625878204E+02 0.  0.
        -13    1    4    4    0    0  0.27842612966E+02 -0.25739739359E+02 -0.14367564862E+03  0.14859487638E+03  0.00000000000E+00 0.  1.
         14    1    4    4    0    0 -0.84416240654E+01  0.17630978327E+02 -0.25621591809E+01  0.19714894707E+02  0.00000000000E+00 0. -1.
        -13    1    3    3    0    0 -0.42209887567E+02 -0.24308109648E+02 -0.89731577494E+02  0.10209953380E+03  0.00000000000E+00 0. -1.
         13    1    3    3    0    0 -0.49102539763E+02  0.54544640363E+02 -0.38966480588E+03  0.39651587376E+03  0.00000000000E+00 0.  1.
         -2    1    1    2    0  502  0.71911438430E+02 -0.22127769683E+02 -0.24530296870E+02  0.79136771685E+02  0.00000000000E+00 0.  1.
<scales pt_clust_5="13000.00000" pt_clust_6="13000.00000" pt_clust_7="13000.00000" pt_clust_8="13000.00000" pt_clust_9="13000.00000"></scales>
<clustering>
<clus scale="   80.626">  5  6 -1 -1</clus>
<clus scale="   75.239">  5  9 -1 -1</clus>
<clus scale="   97.695">  7  8 -1 -1</clus>
<clus scale="  137.100">  1  7  2 -1</clus>
<clus scale="  179.076">  2  5  1 -1</clus>
</clustering>
</event>
<event>
 9    2  0.6085395E-005  0.1578571E+03  0.7546771E-02  0.1192608E+00
         -1   -1    0    0    0  501 -0.00000000000E+00  0.00000000000E+00  0.29034407275E+03  0.29034407275E+03  0.00000000000E+00 0.  1.
         21   -1    0    0  501  502  0.00000000000E+00 -0.00000000000E+00 -0.14468781584E+03  0.14468781584E+03  0.00000000000E+00 0.  1.
         23    2    1    2    0    0 -0.11187968596E+03  0.49062838655E+02  0.21403882171E+03  0.26299983812E+03  0.91826310957E+02 0.  0.
         24    2    1    2    0    0  0.41044528979E+02 -0.30961218824E+02 -0.28157263806E+02  0.88585283333E+02  0.66417395974E+02 0.  0.
        -11    1    4    4    0    0  0.21440246865E+02 -0.44403683392E+02 -0.38601696421E+02  0.62621579755E+02  0.00000000000E+00 0.  1.
         12    1    4    4    0    0  0.19604282113E+02  0.13442464567E+02  0.10444432616E+02  0.25963703578E+02  0.00000000000E+00 0. -1.
        -11    1    3    3    0    0 -0.60400890135E+02  0.13884773694E+02  0.30332304541E+02  0.69000747593E+02  0.00000000000E+00 0. -1.
         11    1    3    3    0    0 -0.51478795824E+02  0.35178064962E+02  0.18370651717E+03  0.19399909053E+03  0.00000000000E+00 0.  1.
         -2    1    1    2    0  502  0.70835156980E+02 -0.18101619831E+02 -0.40225300999E+02  0.83446767136E+02  0.00000000000E+00 0.  1.
<scales pt_clust_5="13000.00000" pt_clust_6="13000.00000" pt_clust_7="13000.00000" pt_clust_8="13000.00000" pt_clust_9="13000.00000"></scales>
<clustering>
<clus scale="   66.417">  5  6 -1 -1</clus>
<clus scale="   73.112">  5  9 -1 -1</clus>
<clus scale="   91.826">  7  8 -1 -1</clus>
<clus scale="  152.828">  1  7  2 -1</clus>
<clus scale="  157.857">  2  5  1 -1</clus>
</clustering>
</event>
<event>
 9    2  0.6085395E-005  0.3059257E+03  0.7546771E-02  0.1121433E+00
          2   -1    0    0  502    0 -0.00000000000E+00  0.00000000000E+00  0.86743827325E+03  0.86743827325E+03  0.00000000000E+00 0. -1.
         21   -1    0    0  501  502  0.00000000000E+00 -0.00000000000E+00 -0.50604511423E+02  0.50604511423E+02  0.00000000000E+00 0. -1.
         23    2    1    2    0    0 -0.13823099927E+02 -0.64456197063E+02  0.25794956288E+03  0.28090695630E+03  0.89582708581E+02 0.  0.
         24    2    1    2    0    0  0.55875544098E+02 -0.31839469191E+02  0.51197810814E+03  0.52206435166E+03  0.79333321017E+02 0.  0.
        -13    1    4    4    0    0  0.63322783265E+02 -0.57034943667E+01  0.22524285888E+03  0.23404412021E+03  0.00000000000E+00 0.  1.
         14    1    4    4    0    0 -0.74472391670E+01 -0.26135974824E+02  0.28673524926E+03  0.28802023144E+03  0.00000000000E+00 0. -1.
        -11    1    3    3    0    0  0.36991209954E+02 -0.16791598094E+02  0.78085567898E+02  0.88020811712E+02  0.00000000000E+00 0. -1.
         11    1    3    3    0    0 -0.50814309881E+02 -0.47664598968E+02  0.17986399498E+03  0.19288614459E+03  0.00000000000E+00 0.  1.
          1    1    1    2  501    0 -0.42052444171E+02  0.96295666253E+02  0.46906090808E+02  0.11507147672E+03  0.00000000000E+00 0. -1.
<scales pt_clust_5="13000.00000" pt_clust_6="13000.00000" pt_clust_7="13000.00000" pt_clust_8="13000.00000" pt_clust_9="13000.00000"></scales>
<clustering>
<clus scale="   79.333">  5  6 -1 -1</clus>
<clus scale="   89.583">  7  8 -1 -1</clus>
<clus scale="  105.077">  5  9 -1 -1</clus>
<clus scale="  111.224">  1  7  2 -1</clus>
<clus scale="  305.926">  2  5  1 -1</clus>
</clustering>
</event>
<event>
 9    2  0.6085395E-005  0.2467473E+03  0.7546771E-02  0.1150779E+00
         21   -1    0    0  501  502  0.00000000000E+00  0.00000000000E+00  0.96856895510E+02  0.96856895510E+02  0.00000000000E+00 0. -1.
          2   -1    0    0  502    0 -0.00000000000E+00 -0.00000000000E+00 -0.39073007132E+03  0.39073007132E+03  0.00000000000E+00 0. -1.
         23    2    1    2    0    0 -0.44210260080E+02  0.88187888103E+01 -0.19657370307E+03  0.22234856126E+03  0.93623414950E+02 0.  0.
         24    2    1    2    0    0 -0.21481229594E+02 -0.38103614102E+02 -0.14967141434E+03  0.17626766276E+03  0.82191410941E+02 0.  0.
        -13    1    4    4    0    0  0.13313096696E+02 -0.43030536858E+02 -0.12622898625E+03  0.13402470898E+03  0.00000000000E+00 0.  1.
         14    1    4    4    0    0 -0.34794326289E+02  0.49269227556E+01 -0.23442428084E+02  0.42242953782E+02  0.00000000000E+00 0. -1.
        -11    1    3    3    0    0 -0.14042598380E+02 -0.26672681688E+02 -0.12774194399E+02  0.32738456900E+02  0.00000000000E+00 0.  1.
         11    1    3    3    0    0 -0.30167661700E+02  0.35491470498E+02 -0.18379950867E+03  0.18961010436E+03  0.00000000000E+00 0. -1.
          1    1    1    2  501    0  0.65691489674E+02  0.29284825292E+02  0.52371941598E+02  0.88970742802E+02  0.00000000000E+00 0. -1.
<scales pt_clust_5="13000.00000" pt_clust_6="13000.00000" pt_clust_7="13000.00000" pt_clust_8="13000.00000" pt_clust_9="13000.00000"></scales>
<clustering>
<clus scale="   82.191">  5  6 -1 -1</clus>
<clus scale="   71.923">  5  9 -1 -1</clus>
<clus scale="   93.623">  7  8 -1 -1</clus>
<clus scale="  103.912">  2  7  1 -1</clus>
<clus scale="  246.747">  1  5  2 -1</clus>
</clustering>
</event>
<event>
 9    2  0.6085395E-005  0.4649760E+03  0.7546771E-02  0.1063792E+00
          2   -1    0    0  502    0 -0.00000000000E+00  0.00000000000E+00  0.11164701032E+04  0.11164701032E+04  0.00000000000E+00 0. -1.
         21   -1    0    0  501  502  0.00000000000E+00 -0.00000000000E+00 -0.89849436402E+02  0.89849436402E+02  0.00000000000E+00 0.  1.
         23    2    1    2    0    0 -0.93950018731E+02  0.57344890521E+02  0.40530406726E+03  0.43028022102E+03  0.93566228804E+02 0.  0.
         24    2    1    2    0    0 -0.16989432582E+03  0.17871690498E+02  0.28905691035E+03  0.34514736777E+03  0.79933277112E+02 0.  0.
        -11    1    4    4    0    0 -0.11988597316E+03 -0.20270423050E+02  0.22263765794E+03  0.25367511376E+03  0.00000000000E+00 0.  1.
         12    1    4    4    0    0 -0.50008352668E+02  0.38142113548E+02  0.66419252410E+02  0.91472254007E+02  0.00000000000E+00 0. -1.
        -13    1    3    3    0    0  0.47583369218E+01  0.41851749034E+02  0.86961046329E+02  0.96625225723E+02  0.00000000000E+00 0.  1.
         13    1    3    3    0    0 -0.98708355653E+02  0.15493141487E+02  0.31834302094E+03  0.33365499530E+03  0.00000000000E+00 0. -1.
          1    1    1    2  501    0  0.26384434456E+03 -0.75216581019E+02  0.33225968917E+03  0.43089195080E+03  0.00000000000E+00 0. -1.
<scales pt_clust_5="13000.00000" pt_clust_6="13000.00000" pt_clust_7="13000.00000" pt_clust_8="13000.00000" pt_clust_9="13000.00000"></scales>
<clustering>
<clus scale="   79.933">  5  6 -1 -1</clus>
<clus scale="   93.566">  7  8 -1 -1</clus>
<clus scale="  144.463">  1  7  2 -1</clus>
<clus scale="  217.021">  5  9 -1 -1</clus>
<clus scale="  464.976">  2  5  1 -1</clus>
</clustering>
</event>
<event>
 9    2  0.6085395E-005  0.3692278E+03  0.7546771E-02  0.1098706E+00
          2   -1    0    0  502    0 -0.00000000000E+00  0.00000000000E+00  0.18227791358E+03  0.18227791358E+03  0.00000000000E+00 0. -1.
         21   -1    0    0  501  502  0.00000000000E+00 -0.00000000000E+00 -0.32216680724E+03  0.32216680724E+03  0.00000000000E+00 0. -1.
         23    2    1    2    0    0 -0.51588691870E+02 -0.44686398766E+02 -0.55127191603E+02  0.12561270100E+03  0.89895917791E+02 0.  0.
         24    2    1    2    0    0 -0.68978174912E+02  0.16538938268E+03 -0.68322584165E+02  0.20743825013E+03  0.79063364411E+02 0.  0.
        -13    1    4    4    0    0 -0.25796022563E+02  0.74032494047E+01 -0.27962133530E+02  0.38757241819E+02  0.00000000000E+00 0.  1.
         14    1    4    4    0    0 -0.43182152349E+02  0.15798613328E+03 -0.40360450635E+02  0.16868100831E+03  0.00000000000E+00 0. -1.
        -13    1    3    3    0    0 -0.34977113882E+02 -0.37203535658E+01  0.18493470097E+02  0.39739752923E+02  0.00000000000E+00 0.  1.
         13    1    3    3    0    0 -0.16611577988E+02 -0.40966045200E+02 -0.73620661700E+02  0.85872948079E+02  0.00000000000E+00 0. -1.
          1    1    1    2  501    0  0.12056686678E+03 -0.12070298392E+03 -0.16439117892E+02  0.17139376969E+03  0.00000000000E+00 0. -1.
<scales pt_clust_5="13000.00000" pt_clust_6="13000.00000" pt_clust_7="13000.00000" pt_clust_8="13000.00000" pt_clust_9="13000.00000"></scales>
<clustering>
<clus scale="   79.063">  5  6 -1 -1</clus>
<clus scale="   89.896">  7  8 -1 -1</clus>
<clus scale="  112.870">  1  7  2 -1</clus>
<clus scale="  171.838">  5  9 -1 -1</clus>
<clus scale="  369.228">  2  5  1 -1</clus>
</clustering>
</event>
<event>
 9    2  0.6085395E-005  0.3587254E+03  0.7546771E-02  0.1109764E+00
         21   -1    0    0  501  502  0.00000000000E+00  0.00000000000E+00  0.33756283286E+03  0.33756283286E+03  0.00000000000E+00 0.  1.
         -1   -1    0    0    0  501 -0.00000000000E+00 -0.00000000000E+00 -0.35817351569E+03  0.35817351569E+03  0.00000000000E+00 0.  1.
         23    2    1    2    0    0  0.16715513206E+02  0.17264298826E+02 -0.25226251411E+03  0.26871585246E+03  0.89411234996E+02 0.  0.
         24    2    1    2    0    0  0.64911018455E+02 -0.58503575776E+00 -0.62961155204E+02  0.12085403763E+03  0.80173616380E+02 0.  0.
        -11    1    4    4    0    0  0.78833603091E+02 -0.16617662445E+02 -0.57343028142E+02  0.98889365242E+02  0.00000000000E+00 0.  1.
         12    1    4    4    0    0 -0.13922584636E+02  0.16032626688E+02 -0.56181270617E+01  0.21964672389E+02  0.00000000000E+00 0. -1.
        -13    1    3    3    0    0 -0.31767908132E+02 -0.36564447956E+01 -0.47548482749E+02  0.57301202321E+02  0.00000000000E+00 0. -1.
         13    1    3    3    0    0  0.48483421338E+02  0.20920743622E+02 -0.20471403136E+03  0.21141465014E+03  0.00000000000E+00 0.  1.
         -2    1    1    2    0  502 -0.81626531660E+02 -0.16679263069E+02  0.29461298648E+03  0.30616645846E+03  0.00000000000E+00 0.  1.
<scales pt_clust_5="13000.00000" pt_clust_6="13000.00000" pt_clust_7="13000.00000" pt_clust_8="13000.00000" pt_clust_9="13000.00000"></scales>
<clustering>
<clus scale="   80.174">  5  6 -1 -1</clus>
<clus scale="   83.313">  5  9 -1 -1</clus>
<clus scale="   89.411">  7  8 -1 -1</clus>
<clus scale="   92.584">  2  7  1 -1</clus>
<clus scale="  358.725">  1  5  2 -1</clus>
</clustering>
</event>
<event>
 9    2  0.6085395E-005  0.1632299E+03  0.7546771E-02  0.1194047E+00
         21   -1    0    0  501  502  0.00000000000E+00  0.00000000000E+00  0.69515786952E+02  0.69515786952E+02  0.00000000000E+00 0. -1.
          2   -1    0    0  502    0 -0.00000000000E+00 -0.00000000000E+00 -0.31756984559E+03  0.31756984559E+03  0.00000000000E+00 0. -1.
         23    2    1    2    0    0 -0.96124389535E+02 -0.89564858548E+01 -0.11284736011E+03  0.17513078078E+03  0.92823201790E+02 0.  0.
         24    2    1    2    0    0  0.63882150931E+02 -0.35336415926E+02 -0.82876461668E+02  0.13619287721E+03  0.79689399583E+02 0.  0.
        -13    1    4    4    0    0  0.26418738877E+02  0.13532680599E+02 -0.65965436225E+02  0.72336173416E+02  0.00000000000E+00 0.  1.
         14    1    4    4    0    0  0.37463412054E+02 -0.48869096525E+02 -0.16911025443E+02  0.63856703794E+02  0.00000000000E+00 0. -1.
        -13    1    3    3    0    0 -0.98017042206E+02  0.19706230729E+02 -0.64768534142E+02  0.11912446897E+03  0.00000000000E+00 0. -1.
         13    1    3    3    0    0  0.18926526710E+01 -0.28662716584E+02 -0.48078825971E+02  0.56006311813E+02  0.00000000000E+00 0.  1.
          1    1    1    2  501    0  0.32242238604E+02  0.44292901781E+02 -0.52330236856E+02  0.75761974550E+02  0.00000000000E+00 0. -1.
<scales pt_clust_5="13000.00000" pt_clust_6="13000.00000" pt_clust_7="13000.00000" pt_clust_8="13000.00000" pt_clust_9="13000.00000"></scales>
<clustering>
<clus scale="   79.689">  5  6 -1 -1</clus>
<clus scale="   54.785">  5  9 -1 -1</clus>
<clus scale="   92.823">  7  8 -1 -1</clus>
<clus scale="  133.926">  2  7  1 -1</clus>
<clus scale="  163.230">  1  5  2 -1</clus>
</clustering>
</event>
<event>
 9    2  0.6085395E-005  0.3048625E+03  0.7546771E-02  0.1124814E+00
          2   -1    0    0  502    0 -0.00000000000E+00  0.00000000000E+00  0.48719710087E+03  0.48719710087E+03  0.00000000000E+00 0. -1.
         21   -1    0    0  501  502  0.00000000000E+00 -0.00000000000E+00 -0.10336733946E+03  0.10336733946E+03  0.00000000000E+00 0. -1.
         23    2    1    2    0    0  0.77055232246E+01 -0.46927034554E+02  0.22323474151E+03  0.24598947032E+03  0.91736296149E+02 0.  0.
         24    2    1    2    0    0 -0.19665772707E+02 -0.10834777953E+03  0.29775891905E+02  0.14118627881E+03  0.83192413359E+02 0.  0.
        -11    1    4    4    0    0 -0.33190449415E+01 -0.36629574550E+02  0.52587171746E+02  0.64172832439E+02  0.00000000000E+00 0.  1.
         12    1    4    4    0    0 -0.16346727765E+02 -0.71718204978E+02 -0.22811279840E+02  0.77013446371E+02  0.00000000000E+00 0. -1.
        -11    1    3    3    0    0  0.29400962078E+02 -0.57157668473E+00  0.18019965120E+02  0.34488583820E+02  0.00000000000E+00 0.  1.
         11    1    3    3    0    0 -0.21695438853E+02 -0.46355457869E+02  0.20521477639E+03  0.21150088650E+03  0.00000000000E+00 0. -1.
          1    1    1    2  501    0  0.11960249482E+02  0.15527481408E+03  0.13081912800E+03  0.20338869120E+03  0.00000000000E+00 0. -1.
<scales pt_clust_5="13000.00000" pt_clust_6="13000.00000" pt_clust_7="13000.00000" pt_clust_8="13000.00000" pt_clust_9="13000.00000"></scales>
<clustering>
<clus scale="   83.192">  5  6 -1 -1</clus>
<clus scale="   91.736">  7  8 -1 -1</clus>
<clus scale="  103.330">  1  7  2 -1</clus>
<clus scale="  125.395">  5  9 -1 -1</clus>
<clus scale="  304.863">  2  5  1 -1</clus>
</clustering>
</event>
<event>
 9    2  0.6085395E-005  0.3661006E+03  0.7546771E-02  0.1059712E+00
          2   -1    0    0  502    0 -0.00000000000E+00  0.00000000000E+00  0.81723964380E+03  0.81723964380E+03  0.00000000000E+00 0. -1.
         21   -1    0    0  501  502  0.00000000000E+00 -0.00000000000E+00 -0.14931030656E+03  0.14931030656E+03  0.00000000000E+00 0. -1.
         23    2    1    2    0    0 -0.15524260619E+03  0.27782503294E+03  0.29325866128E+03  0.44271050571E+03  0.93300234421E+02 0.  0.
         24    2    1    2    0    0  0.31290468723E+02 -0.21479042529E+02  0.64276311549E+02  0.10262446314E+03  0.70426511399E+02 0.  0.
        -13    1    4    4    0    0  0.30096433510E+00 -0.42500522791E+02  0.36046173730E+02  0.55728912224E+02  0.00000000000E+00 0.  1.
         14    1    4    4    0    0  0.30989504388E+02  0.21021480262E+02  0.28230137819E+02  0.46895550918E+02  0.00000000000E+00 0. -1.
        -11    1    3    3    0    0 -0.12617222836E+03  0.27379566418E+03  0.25767369148E+03  0.39658445281E+03  0.00000000000E+00 0. -1.
         11    1    3    3    0    0 -0.29070377836E+02  0.40293687635E+01  0.35584969803E+02  0.46126052900E+02  0.00000000000E+00 0.  1.
          1    1    1    2  501    0  0.12395213747E+03 -0.25634599041E+03  0.31039436441E+03  0.42121498150E+03  0.00000000000E+00 0. -1.
<scales pt_clust_5="13000.00000" pt_clust_6="13000.00000" pt_clust_7="13000.00000" pt_clust_8="13000.00000" pt_clust_9="13000.00000"></scales>
<clustering>
<clus scale="   70.427">  5  6 -1 -1</clus>
<clus scale="   93.300">  7  8 -1 -1</clus>
<clus scale="  284.741">  5  9 -1 -1</clus>
<clus scale="  331.651">  1  7  2 -1</clus>
<clus scale="  366.101">  2  5  1 -1</clus>
</clustering>
</event>
<event>
 9    2  0.6085395E-005  0.1955599E+03  0.7546771E-02  0.1183081E+00
         -1   -1    0    0    0  501 -0.00000000000E+00  0.00000000000E+00  0.12884123582E+03  0.12884123582E+03  0.00000000000E+00 0.  1.
         21   -1    0    0  501  502  0.00000000000E+00 -0.00000000000E+00 -0.36734524973E+03  0.36734524973E+03  0.00000000000E+00 0. -1.
         23    2    1    2    0    0  0.33997082294E+02 -0.24775109918E+02  0.76548932762E+02  0.12537382237E+03  0.89940249905E+02 0.  0.
         24    2    1    2    0    0 -0.93067721622E+02  0.46271165253E+02 -0.19396140362E+03  0.23437739420E+03  0.80679088208E+02 0.  0.
        -13    1    4    4    0    0 -0.23477432126E+02  0.22695928061E+02 -0.68611802602E+01  0.33367210916E+02  0.00000000000E+00 0.  1.
         14    1    4    4    0    0 -0.69590289496E+02  0.23575237192E+02 -0.18710022336E+03  0.20101018328E+03  0.00000000000E+00 0. -1.
        -11    1    3    3    0    0  0.36129539147E+02 -0.52872758025E+02  0.72783528572E+02  0.96944902762E+02  0.00000000000E+00 0.  1.
         11    1    3    3    0    0 -0.21324568528E+01  0.28097648107E+02  0.37654041901E+01  0.28428919609E+02  0.00000000000E+00 0. -1.
         -2    1    1    2    0  502  0.59070639328E+02 -0.21496055335E+02 -0.12109154304E+03  0.13643526898E+03  0.00000000000E+00 0.  1.
<scales pt_clust_5="13000.00000" pt_clust_6="13000.00000" pt_clust_7="13000.00000" pt_clust_8="13000.00000" pt_clust_9="13000.00000"></scales>
<clustering>
<clus scale="   80.679">  5  6 -1 -1</clus>
<clus scale="   62.860">  5  9 -1 -1</clus>
<clus scale="   89.940">  7  8 -1 -1</clus>
<clus scale="   99.292">  1  7  2 -1</clus>
<clus scale="  195.560">  2  5  1 -1</clus>
</clustering>
</event>
<event>
 9    2  0.6085395E-005  0.2085321E+03  0.7546771E-02  0.1160349E+00
          2   -1    0    0  502    0 -0.00000000000E+00  0.00000000000E+00  0.73266245993E+03  0.73266245993E+03  0.00000000000E+00 0. -1.
         21   -1    0    0  501  502  0.00000000000E+00 -0.00000000000E+00 -0.40957417415E+02  0.40957417415E+02  0.00000000000E+00 0. -1.
         23    2    1    2    0    0 -0.95118300832E+02  0.35959739981E+02  0.29312892594E+03  0.32378819381E+03  0.92593915422E+02 0.  0.
         24    2    1    2    0    0  0.47110187106E+02 -0.32462061670E+02  0.38849590708E+03  0.40065218211E+03  0.79498088222E+02 0.  0.
        -11    1    4    4    0    0  0.57974820841E+02 -0.30446528763E+02  0.17467667309E+03  0.18654761078E+03  0.00000000000E+00 0.  1.
         12    1    4    4    0    0 -0.10864633735E+02 -0.20155329071E+01  0.21381923400E+03  0.21410457133E+03  0.00000000000E+00 0. -1.
        -13    1    3    3    0    0 -0.28475772957E+01 -0.25174632449E+02  0.75353207497E+02  0.79498281085E+02  0.00000000000E+00 0.  1.
         13    1    3    3    0    0 -0.92270723537E+02  0.61134372429E+02  0.21777571844E+03  0.24428991272E+03  0.00000000000E+00 0. -1.
          1    1    1    2  501    0  0.48008113727E+02 -0.34976783109E+01  0.10080209488E+02  0.49179501426E+02  0.00000000000E+00 0. -1.
<scales pt_clust_5="13000.00000" pt_clust_6="13000.00000" pt_clust_7="13000.00000" pt_clust_8="13000.00000" pt_clust_9="13000.00000"></scales>
<clustering>
<clus scale="   79.498">  5  6 -1 -1</clus>
<clus scale="   48.135">  5  9 -1 -1</clus>
<clus scale="   92.594">  7  8 -1 -1</clus>
<clus scale="  137.529">  1  7  2 -1</clus>
<clus scale="  208.532">  2  5  1 -1</clus>
</clustering>
</event>
<event>
 9    2  0.6085395E-005  0.2609235E+03  0.7546771E-02  0.1144144E+00
         21   -1    0    0  501  502  0.00000000000E+00  0.00000000000E+00  0.18881594318E+03  0.18881594318E+03  0.00000000000E+00 0. -1.
          2   -1    0    0  502    0 -0.00000000000E+00 -0.00000000000E+00 -0.19362075738E+03  0.19362075738E+03  0.00000000000E+00 0. -1.
         23    2    1    2    0    0 -0.21805532535E+02 -0.55632696658E+00 -0.55060885806E+02  0.11671744762E+03  0.10057569629E+03 0.  0.
         24    2    1    2    0    0 -0.67511189737E+02  0.30193743830E+02  0.10917809361E+03  0.15468926585E+03  0.80867112841E+02 0.  0.
        -11    1    4    4    0    0  0.13795352050E+02  0.22455520943E+02  0.16209823717E+02  0.30940597020E+02  0.00000000000E+00 0.  1.
         12    1    4    4    0    0 -0.81306541787E+02  0.77382228869E+01  0.92968269893E+02  0.12374866883E+03  0.00000000000E+00 0. -1.
        -13    1    3    3    0    0 -0.36710583272E+02 -0.39562570054E+02 -0.92967171081E+01  0.54765799751E+02  0.00000000000E+00 0.  1.
         13    1    3    3    0    0  0.14905050737E+02  0.39006243087E+02 -0.45764168698E+02  0.61951647870E+02  0.00000000000E+00 0. -1.
          1    1    1    2  501    0  0.89316722272E+02 -0.29637416863E+02 -0.58922022009E+02  0.11102998709E+03  0.00000000000E+00 0. -1.
<scales pt_clust_5="13000.00000" pt_clust_6="13000.00000" pt_clust_7="13000.00000" pt_clust_8="13000.00000" pt_clust_9="13000.00000"></scales>
<clustering>
<clus scale="   80.867">  5  6 -1 -1</clus>
<clus scale="   94.106">  5  9 -1 -1</clus>
<clus scale="  100.576">  7  8 -1 -1</clus>
<clus scale="  102.914">  2  7  1 -1</clus>
<clus scale="  260.923">  1  5  2 -1</clus>
</clustering>
</event>
<event>
 9    2  0.6085395E-005  0.2705928E+03  0.7546771E-02  0.1142444E+00
         -1   -1    0    0    0  501 -0.00000000000E+00  0.00000000000E+00  0.30029502500E+03  0.30029502500E+03  0.00000000000E+00 0.  1.
         21   -1    0    0  501  502  0.00000000000E+00 -0.00000000000E+00 -0.11449531885E+03  0.11449531885E+03  0.00000000000E+00 0.  1.
         23    2    1    2    0    0  0.28454516561E+02  0.15554775002E+02  0.22385018362E+02  0.98681422533E+02  0.90472778050E+02 0.  0.
         24    2    1    2    0    0  0.38645721313E+02 -0.11261166010E+03  0.12919701802E+03  0.19325400773E+03  0.80500709772E+02 0.  0.
        -11    1    4    4    0    0  0.30787378492E+02 -0.44109109812E+02  0.87939612176E+01  0.54505137342E+02  0.00000000000E+00 0.  1.
         12    1    4    4    0    0  0.78583428208E+01 -0.68502550286E+02  0.12040305680E+03  0.13874887039E+03  0.00000000000E+00 0. -1.
        -11    1    3    3    0    0  0.56502429142E+02  0.28481402646E+02  0.24199952706E+02  0.67744759994E+02  0.00000000000E+00 0.  1.
         11    1    3    3    0    0 -0.28047912581E+02 -0.12926627644E+02 -0.18149343446E+01  0.30936662539E+02  0.00000000000E+00 0. -1.
         -2    1    1    2    0  502 -0.67100237875E+02  0.97056885095E+02  0.34217669769E+02  0.12285491358E+03  0.00000000000E+00 0.  1.
<scales pt_clust_5="13000.00000" pt_clust_6="13000.00000" pt_clust_7="13000.00000" pt_clust_8="13000.00000" pt_clust_9="13000.00000"></scales>
<clustering>
<clus scale="   80.501">  5  6 -1 -1</clus>
<clus scale="   90.473">  7  8 -1 -1</clus>
<clus scale="   96.109">  1  7  2 -1</clus>
<clus scale="  117.361">  5  9 -1 -1</clus>
<clus scale="  270.593">  2  5  1 -1</clus>
</clustering>
</event>
<event>
 9    2  0.6085395E-005  0.4298815E+03  0.7546771E-02  0.1091137E+00
         21   -1    0    0  501  502  0.00000000000E+00  0.00000000000E+00  0.30911917655E+03  0.30911917655E+03  0.00000000000E+00 0.  1.
         -3   -1    0    0    0  501 -0.00000000000E+00 -0.00000000000E+00 -0.39882493606E+03  0.39882493606E+03  0.00000000000E+00 0.  1.
         23    2    1    2    0    0 -0.11800195304E+02 -0.38155306753E+01 -0.23778797998E+03  0.25327227054E+03  0.86312900091E+02 0.  0.
         24    2    1    2    0    0 -0.20078217054E+03 -0.12974365617E+02  0.68211957241E+02  0.22696057351E+03  0.79852468002E+02 0.  0.
        -11    1    4    4    0    0 -0.18450777880E+03 -0.36266335219E+02  0.58347933576E+02  0.19688283029E+03  0.00000000000E+00 0.  1.
         12    1    4    4    0    0 -0.16274391737E+02  0.23291969602E+02  0.98640236650E+01  0.30077743220E+02  0.00000000000E+00 0. -1.
        -11    1    3    3    0    0 -0.97913188811E+01 -0.44152189414E+02 -0.14938997097E+03  0.15608539067E+03  0.00000000000E+00 0. -1.
         11    1    3    3    0    0 -0.20088764229E+01  0.40336658739E+02 -0.88398009009E+02  0.97186879873E+02  0.00000000000E+00 0.  1.
         -4    1    1    2    0  502  0.21258236584E+03  0.16789896292E+02  0.79870263224E+02  0.22771126857E+03  0.00000000000E+00 0.  1.
<scales pt_clust_5="13000.00000" pt_clust_6="13000.00000" pt_clust_7="13000.00000" pt_clust_8="13000.00000" pt_clust_9="13000.00000"></scales>
<clustering>
<clus scale="   79.852">  5  6 -1 -1</clus>
<clus scale="   86.313">  7  8 -1 -1</clus>
<clus scale="   87.199">  2  7  1 -1</clus>
<clus scale="  207.432">  5  9 -1 -1</clus>
<clus scale="  429.882">  1  5  2 -1</clus>
</clustering>
</event>
<event>
 9    2  0.6085395E-005  0.1123994E+03  0.7546771E-02  0.1267890E+00
          4   -1    0    0  502    0 -0.00000000000E+00  0.00000000000E+00  0.33545049221E+02  0.33545049221E+02  0.00000000000E+00 0. -1.
         21   -1    0    0  501  502  0.00000000000E+00 -0.00000000000E+00 -0.43525643437E+03  0.43525643437E+03  0.00000000000E+00 0.  1.
         23    2    1    2    0    0 -0.32401799083E+02 -0.99321134706E+01 -0.56461799787E+02  0.10571623283E+03  0.82701049488E+02 0.  0.
         24    2    1    2    0    0  0.12127264059E+02  0.20754598618E+02 -0.21142934280E+03  0.22730586987E+03  0.79923510837E+02 0.  0.
        -13    1    4    4    0    0 -0.17324086309E+02  0.18848356663E+02 -0.17188032965E+02  0.30835255675E+02  0.00000000000E+00 0.  1.
         14    1    4    4    0    0  0.29451350368E+02  0.19062419549E+01 -0.19424130983E+03  0.19647061419E+03  0.00000000000E+00 0. -1.
        -11    1    3    3    0    0 -0.31260685231E+02  0.22606726713E+02  0.21822961610E+01  0.38640095113E+02  0.00000000000E+00 0. -1.
         11    1    3    3    0    0 -0.11411138520E+01 -0.32538840183E+02 -0.58644095948E+02  0.67076137716E+02  0.00000000000E+00 0.  1.
          3    1    1    2  501    0  0.20274535024E+02 -0.10822485148E+02 -0.13382024257E+03  0.13577938090E+03  0.00000000000E+00 0. -1.
<scales pt_clust_5="13000.00000" pt_clust_6="13000.00000" pt_clust_7="13000.00000" pt_clust_8="13000.00000" pt_clust_9="13000.00000"></scales>
<clustering>
<clus scale="   79.924">  5  6 -1 -1</clus>
<clus scale="   22.982">  5  9 -1 -1</clus>
<clus scale="   82.701">  7  8 -1 -1</clus>
<clus scale="   89.376">  1  7  2 -1</clus>
<clus scale="  112.399">  2  5  1 -1</clus>
</clustering>
</event>
<event>
 9    2  0.6085395E-005  0.2355808E+03  0.7546771E-02  0.1151788E+00
         21   -1    0    0  501  502  0.00000000000E+00  0.00000000000E+00  0.34258645033E+02  0.34258645033E+02  0.00000000000E+00 0. -1.
          2   -1    0    0  502    0 -0.00000000000E+00 -0.00000000000E+00 -0.92713624453E+03  0.92713624453E+03  0.00000000000E+00 0. -1.
         23    2    1    2    0    0  0.31681602137E+02 -0.61610024753E+02 -0.36914585167E+03  0.38711860558E+03  0.93769056272E+02 0.  0.
         24    2    1    2    0    0  0.37859103478E+02 -0.46255429382E+02 -0.29821310853E+03  0.31479695417E+03  0.81198446972E+02 0.  0.
        -13    1    4    4    0    0  0.24191914430E+02  0.19016402995E+02 -0.13546385732E+03  0.13891482623E+03  0.00000000000E+00 0.  1.
         14    1    4    4    0    0  0.13667189049E+02 -0.65271832377E+02 -0.16274925121E+03  0.17588212794E+03  0.00000000000E+00 0. -1.
        -11    1    3    3    0    0  0.42843032378E+02 -0.80737142548E+02 -0.32667887674E+03  0.33922426228E+03  0.00000000000E+00 0. -1.
         11    1    3    3    0    0 -0.11161430242E+02  0.19127117795E+02 -0.42466974927E+02  0.47894343295E+02  0.00000000000E+00 0.  1.
          1    1    1    2  501    0 -0.69540705615E+02  0.10786545414E+03 -0.22551863930E+03  0.25947932982E+03  0.00000000000E+00 0. -1.
<scales pt_clust_5="13000.00000" pt_clust_6="13000.00000" pt_clust_7="13000.00000" pt_clust_8="13000.00000" pt_clust_9="13000.00000"></scales>
<clustering>
<clus scale="   81.198">  5  6 -1 -1</clus>
<clus scale="   93.769">  7  8 -1 -1</clus>
<clus scale="  116.585">  2  7  1 -1</clus>
<clus scale="   97.929">  5  9 -1 -1</clus>
<clus scale="  235.581">  1  5  2 -1</clus>
</clustering>
</event>
<event>
 9    2  0.6085395E-005  0.1343971E+03  0.7546771E-02  0.1235196E+00
         21   -1    0    0  501  502  0.00000000000E+00  0.00000000000E+00  0.14866206374E+03  0.14866206374E+03  0.00000000000E+00 0.  1.
         -1   -1    0    0    0  501 -0.00000000000E+00 -0.00000000000E+00 -0.92957938332E+02  0.92957938332E+02  0.00000000000E+00 0.  1.
         23    2    1    2    0    0 -0.33815256502E+02 -0.43883113166E+01  0.30831668009E+02  0.10494076169E+03  0.94335798415E+02 0.  0.
         24    2    1    2    0    0  0.16378672663E+01 -0.57301380841E+01  0.35263373650E+02  0.10138421897E+03  0.94866944947E+02 0.  0.
        -11    1    4    4    0    0 -0.38994378728E+02 -0.28169280950E+02  0.12585001595E+02  0.49723759178E+02  0.00000000000E+00 0.  1.
         12    1    4    4    0    0  0.40632245994E+02  0.22439142866E+02  0.22678372055E+02  0.51660459794E+02  0.00000000000E+00 0. -1.
        -11    1    3    3    0    0  0.24230083739E+02 -0.27406958871E+02  0.34051599358E+01  0.36740079842E+02  0.00000000000E+00 0. -1.
         11    1    3    3    0    0 -0.58045340241E+02  0.23018647555E+02  0.27426508073E+02  0.68200681845E+02  0.00000000000E+00 0.  1.
         -2    1    1    2    0  502  0.32177389236E+02  0.10118449401E+02 -0.10390916248E+02  0.35295021416E+02  0.00000000000E+00 0.  1.
<scales pt_clust_5="13000.00000" pt_clust_6="13000.00000" pt_clust_7="13000.00000" pt_clust_8="13000.00000" pt_clust_9="13000.00000"></scales>
<clustering>
<clus scale="   94.336">  7  8 -1 -1</clus>
<clus scale="   94.867">  5  6 -1 -1</clus>
<clus scale="   33.731">  5  9 -1 -1</clus>
<clus scale="  100.309">  2  7  1 -1</clus>
<clus scale="  134.397">  1  5  2 -1</clus>
</clustering>
</event>
<event>
 9    2  0.6085395E-005  0.2501615E+03  0.7546771E-02  0.1146072E+00
         21   -1    0    0  501  502  0.00000000000E+00  0.00000000000E+00  0.70194952165E+02  0.70194952165E+02  0.00000000000E+00 0.  1.
         -1   -1    0    0    0  501 -0.00000000000E+00 -0.00000000000E+00 -0.48886771678E+03  0.48886771678E+03  0.00000000000E+00 0.  1.
         23    2    1    2    0    0  0.30862411916E+02  0.36793021380E+02 -0.18906967671E+03  0.21950654874E+03  0.10064575200E+03 0.  0.
         24    2    1    2    0    0  0.37542534435E+02  0.32753152451E+01  0.71292726243E+01  0.89902522582E+02  0.81310930733E+02 0.  0.
        -13    1    4    4    0    0  0.29618935528E+02  0.24302288905E+02  0.36503876725E+02  0.52918953162E+02  0.00000000000E+00 0.  1.
         14    1    4    4    0    0  0.79235989066E+01 -0.21026973660E+02 -0.29374604101E+02  0.36983569420E+02  0.00000000000E+00 0. -1.
        -11    1    3    3    0    0 -0.24876123361E+02  0.29964048427E+02 -0.25460369272E+02  0.46528444150E+02  0.00000000000E+00 0.  1.
         11    1    3    3    0    0  0.55738535277E+02  0.68289729530E+01 -0.16360930744E+03  0.17297810459E+03  0.00000000000E+00 0. -1.
         -2    1    1    2    0  502 -0.68404946351E+02 -0.40068336625E+02 -0.23673236053E+03  0.24965359762E+03  0.00000000000E+00 0.  1.
<scales pt_clust_5="13000.00000" pt_clust_6="13000.00000" pt_clust_7="13000.00000" pt_clust_8="13000.00000" pt_clust_9="13000.00000"></scales>
<clustering>
<clus scale="   81.311">  5  6 -1 -1</clus>
<clus scale="   79.276">  5  9 -1 -1</clus>
<clus scale="  100.646">  7  8 -1 -1</clus>
<clus scale="  111.516">  2  7  1 -1</clus>
<clus scale="  250.162">  1  5  2 -1</clus>
</clustering>
</event>
<event>
 9    2  0.6085395E-005  0.1036279E+04  0.7546771E-02  0.9591615E-01
          2   -1    0    0  502    0 -0.00000000000E+00  0.00000000000E+00  0.79830306518E+03  0.79830306518E+03  0.00000000000E+00 0. -1.
         21   -1    0    0  501  502  0.00000000000E+00 -0.00000000000E+00 -0.12962663563E+04  0.12962663563E+04  0.00000000000E+00 0. -1.
         23    2    1    2    0    0 -0.23111718734E+03  0.21933933660E+03 -0.91864001277E+03  0.97615884015E+03  0.86381185890E+02 0.  0.
         24    2    1    2    0    0  0.28258276267E+03 -0.35692936469E+03  0.67947381031E+03  0.82082756036E+03  0.69437999876E+02 0.  0.
        -11    1    4    4    0    0  0.11300447750E+03 -0.16720301981E+03  0.24605269743E+03  0.31822757844E+03  0.00000000000E+00 0.  1.
         12    1    4    4    0    0  0.16957828517E+03 -0.18972634488E+03  0.43342111288E+03  0.50259998192E+03  0.00000000000E+00 0. -1.
        -11    1    3    3    0    0 -0.96002051726E+02  0.51645667424E+02 -0.22797251848E+03  0.25269574211E+03  0.00000000000E+00 0.  1.
         11    1    3    3    0    0 -0.13511513562E+03  0.16769366917E+03 -0.69066749429E+03  0.72346309804E+03  0.00000000000E+00 0. -1.
          1    1    1    2  501    0 -0.51465575328E+02  0.13759002809E+03 -0.25879708865E+03  0.29758302096E+03  0.00000000000E+00 0. -1.
<scales pt_clust_5="13000.00000" pt_clust_6="13000.00000" pt_clust_7="13000.00000" pt_clust_8="13000.00000" pt_clust_9="13000.00000"></scales>
<clustering>
<clus scale="   69.438">  5  6 -1 -1</clus>
<clus scale="   86.381">  7  8 -1 -1</clus>
<clus scale="  146.900">  5  9 -1 -1</clus>
<clus scale="  330.131">  1  7  2 -1</clus>
<clus scale=" 1036.279">  2  5  1 -1</clus>
</clustering>
</event>
<event>
 9    2  0.6085395E-005  0.3054030E+03  0.7546771E-02  0.1125372E+00
         21   -1    0    0  501  502  0.00000000000E+00  0.00000000000E+00  0.52428807887E+02  0.52428807887E+02  0.00000000000E+00 0.  1.
         -3   -1    0    0    0  501 -0.00000000000E+00 -0.00000000000E+00 -0.79279093058E+03  0.79279093058E+03  0.00000000000E+00 0.  1.
         23    2    1    2    0    0  0.18759081316E+01  0.32987072060E+02 -0.21069912682E+03  0.23381652708E+03  0.95835172767E+02 0.  0.
         24    2    1    2    0    0  0.13551788998E+03 -0.37870263436E+02 -0.22624813511E+03  0.27829440176E+03  0.80375991778E+02 0.  0.
        -13    1    4    4    0    0  0.80235810420E+02 -0.25025570314E+02 -0.61785845968E+02  0.10431469314E+03  0.00000000000E+00 0.  1.
         14    1    4    4    0    0  0.55282079559E+02 -0.12844693122E+02 -0.16446228914E+03  0.17397970862E+03  0.00000000000E+00 0. -1.
        -11    1    3    3    0    0 -0.46860363297E+02  0.19339905093E+02 -0.10123614727E+03  0.11321962326E+03  0.00000000000E+00 0.  1.
         11    1    3    3    0    0  0.48736271429E+02  0.13647166967E+02 -0.10946297955E+03  0.12059690382E+03  0.00000000000E+00 0. -1.
         -4    1    1    2    0  502 -0.13739379811E+03  0.48831913764E+01 -0.30341486077E+03  0.33310880963E+03  0.00000000000E+00 0.  1.
<scales pt_clust_5="13000.00000" pt_clust_6="13000.00000" pt_clust_7="13000.00000" pt_clust_8="13000.00000" pt_clust_9="13000.00000"></scales>
<clustering>
<clus scale="   80.376">  5  6 -1 -1</clus>
<clus scale="   95.835">  7  8 -1 -1</clus>
<clus scale="  101.371">  2  7  1 -1</clus>
<clus scale="  138.321">  5  9 -1 -1</clus>
<clus scale="  305.403">  1  5  2 -1</clus>
</clustering>
</event>
<event>
 9    2  0.6085395E-005  0.1729919E+03  0.7546771E-02  0.1176302E+00
         -3   -1    0    0    0  501 -0.00000000000E+00  0.00000000000E+00  0.66958474941E+03  0.66958474941E+03  0.00000000000E+00 0.  1.
         21   -1    0    0  501  502  0.00000000000E+00 -0.00000000000E+00 -0.14933803867E+03  0.14933803867E+03  0.00000000000E+00 0.  1.
         23    2    1    2    0    0 -0.94078836515E+02 -0.61913862570E+02  0.60403146806E+03  0.62670918786E+03  0.12339464284E+03 0.  0.
         24    2    1    2    0    0  0.44636805117E+02  0.39241118265E+02 -0.88753939599E+01  0.99639410934E+02  0.79479115871E+02 0.  0.
        -13    1    4    4    0    0  0.11119927617E+02 -0.24659728504E+02 -0.35982810640E+01  0.27289240127E+02  0.00000000000E+00 0.  1.
         14    1    4    4    0    0  0.33516877500E+02  0.63900846770E+02 -0.52771128959E+01  0.72350170807E+02  0.00000000000E+00 0. -1.
        -11    1    3    3    0    0 -0.89441027543E+02 -0.72845096633E+01  0.51022215478E+03  0.51805348056E+03  0.00000000000E+00 0.  1.
         11    1    3    3    0    0 -0.46378089712E+01 -0.54629352907E+02  0.93809313283E+02  0.10865570730E+03  0.00000000000E+00 0. -1.
         -4    1    1    2    0  502  0.49442031398E+02  0.22672744305E+02 -0.74909363362E+02  0.92574189288E+02  0.00000000000E+00 0.  1.
<scales pt_clust_5="13000.00000" pt_clust_6="13000.00000" pt_clust_7="13000.00000" pt_clust_8="13000.00000" pt_clust_9="13000.00000"></scales>
<clustering>
<clus scale="   79.479">  5  6 -1 -1</clus>
<clus scale="   54.393">  5  9 -1 -1</clus>
<clus scale="  123.395">  7  8 -1 -1</clus>
<clus scale="  167.064">  1  7  2 -1</clus>
<clus scale="  172.992">  2  5  1 -1</clus>
</clustering>
</event>
<event>
 9    2  0.6085395E-005  0.2548585E+03  0.7546771E-02  0.1145636E+00
         -1   -1    0    0    0  501 -0.00000000000E+00  0.00000000000E+00  0.10624834600E+03  0.10624834600E+03  0.00000000000E+00 0.  1.
         21   -1    0    0  501  502  0.00000000000E+00 -0.00000000000E+00 -0.31583003658E+03  0.31583003658E+03  0.00000000000E+00 0.  1.
         23    2    1    2    0    0  0.50635432459E+02  0.22430094380E+02 -0.94541127683E+02  0.14245865784E+03  0.91046077429E+02 0.  0.
         24    2    1    2    0    0 -0.12119356897E+02 -0.35213144799E+02 -0.18168146434E+03  0.20159470184E+03  0.79028001036E+02 0.  0.
        -11    1    4    4    0    0  0.80840141656E+01 -0.52477042926E+02 -0.15539460996E+03  0.16421533462E+03  0.00000000000E+00 0.  1.
         12    1    4    4    0    0 -0.20203371062E+02  0.17263898127E+02 -0.26286854380E+02  0.37379367223E+02  0.00000000000E+00 0. -1.
        -11    1    3    3    0    0  0.21816650650E-01  0.37746576793E+02 -0.78655312552E+02  0.87243697355E+02  0.00000000000E+00 0.  1.
         11    1    3    3    0    0  0.50613615809E+02 -0.15316482413E+02 -0.15885815132E+02  0.55214960483E+02  0.00000000000E+00 0. -1.
         -2    1    1    2    0  502 -0.38516075563E+02  0.12783050419E+02  0.66640901433E+02  0.78025022900E+02  0.00000000000E+00 0.  1.
<scales pt_clust_5="13000.00000" pt_clust_6="13000.00000" pt_clust_7="13000.00000" pt_clust_8="13000.00000" pt_clust_9="13000.00000"></scales>
<clustering>
<clus scale="   79.028">  5  6 -1 -1</clus>
<clus scale="   40.582">  5  9 -1 -1</clus>
<clus scale="   91.046">  7  8 -1 -1</clus>
<clus scale="  106.567">  1  7  2 -1</clus>
<clus scale="  254.859">  2  5  1 -1</clus>
</clustering>
</event>
<event>
 9    2  0.6085395E-005  0.3908556E+03  0.7546771E-02  0.1072814E+00
         21   -1    0    0  501  502  0.00000000000E+00  0.00000000000E+00  0.77159415358E+03  0.77159415358E+03  0.00000000000E+00 0. -1.
         -1   -1    0    0    0  501 -0.00000000000E+00 -0.00000000000E+00 -0.10962543724E+03  0.10962543724E+03  0.00000000000E+00 0.  1.
         23    2    1    2    0    0  0.14787347678E+03 -0.76834749361E+02  0.19122519181E+03  0.26936375056E+03  0.90662077470E+02 0.  0.
         24    2    1    2    0    0  0.37668362962E+02 -0.10234677284E+03  0.15540984875E+03  0.20446521778E+03  0.75894905713E+02 0.  0.
        -11    1    4    4    0    0  0.96888811395E+01 -0.31051844157E+02  0.11157400494E+03  0.11621897445E+03  0.00000000000E+00 0.  1.
         12    1    4    4    0    0  0.27979481822E+02 -0.71294928687E+02  0.43835843809E+02  0.88246243331E+02  0.00000000000E+00 0. -1.
        -11    1    3    3    0    0  0.67621514769E+01 -0.42741624938E+02  0.31501603579E+02  0.53524986903E+02  0.00000000000E+00 0.  1.
         11    1    3    3    0    0  0.14111132530E+03 -0.34093124423E+02  0.15972358823E+03  0.21583876366E+03  0.00000000000E+00 0. -1.
         -2    1    1    2    0  502 -0.18554183974E+03  0.17918152221E+03  0.31533367579E+03  0.40739062247E+03  0.00000000000E+00 0.  1.
<scales pt_clust_5="13000.00000" pt_clust_6="13000.00000" pt_clust_7="13000.00000" pt_clust_8="13000.00000" pt_clust_9="13000.00000"></scales>
<clustering>
<clus scale="   75.895">  5  6 -1 -1</clus>
<clus scale="   90.662">  7  8 -1 -1</clus>
<clus scale="  189.710">  2  7  1 -1</clus>
<clus scale="  156.812">  5  9 -1 -1</clus>
<clus scale="  390.856">  1  5  2 -1</clus>
</clustering>
</event>
<event>
 9    2  0.6085395E-005  0.2267479E+03  0.7546771E-02  0.1153751E+00
         21   -1    0    0  501  502  0.00000000000E+00  0.00000000000E+00  0.26976381104E+03  0.26976381104E+03  0.00000000000E+00 0.  1.
          2   -1    0    0  502    0 -0.00000000000E+00 -0.00000000000E+00 -0.12422947764E+03  0.12422947764E+03  0.00000000000E+00 0. -1.
         23    2    1    2    0    0  0.57422578633E+02  0.60668750906E+02  0.10612297999E+03  0.16384583914E+03  0.92764876155E+02 0.  0.
         24    2    1    2    0    0 -0.34876141575E+02  0.54382204487E+02  0.44172327589E+02  0.11281147451E+03  0.81249399017E+02 0.  0.
        -11    1    4    4    0    0 -0.44758103039E+02  0.66727693949E+02  0.51443980199E+02  0.95406268275E+02  0.00000000000E+00 0.  1.
         12    1    4    4    0    0  0.98819614637E+01 -0.12345489462E+02 -0.72716526103E+01  0.17405206236E+02  0.00000000000E+00 0. -1.
        -11    1    3    3    0    0  0.78530923584E+02  0.53752589335E+02  0.10484849239E+03  0.14159679790E+03  0.00000000000E+00 0.  1.
         11    1    3    3    0    0 -0.21108344951E+02  0.69161615709E+01  0.12744875996E+01  0.22249041239E+02  0.00000000000E+00 0. -1.
          1    1    1    2  501    0 -0.22546437058E+02 -0.11505095539E+03 -0.47609741713E+01  0.11733597503E+03  0.00000000000E+00 0. -1.
<scales pt_clust_5="13000.00000" pt_clust_6="13000.00000" pt_clust_7="13000.00000" pt_clust_8="13000.00000" pt_clust_9="13000.00000"></scales>
<clustering>
<clus scale="   81.249">  5  6 -1 -1</clus>
<clus scale="   92.765">  7  8 -1 -1</clus>
<clus scale="  117.239">  5  9 -1 -1</clus>
<clus scale="  124.833">  2  7  1 -1</clus>
<clus scale="  226.748">  1  5  2 -1</clus>
</clustering>
</event>
<event>
 9    2  0.6085395E-005  0.4240981E+03  0.7546771E-02  0.1061873E+00
         -3   -1    0    0    0  501 -0.00000000000E+00  0.00000000000E+00  0.25989946940E+03  0.25989946940E+03  0.00000000000E+00 0.  1.
         21   -1    0    0  501  502  0.00000000000E+00 -0.00000000000E+00 -0.49460479111E+03  0.49460479111E+03  0.00000000000E+00 0.  1.
         23    2    1    2    0    0 -0.55622293193E+02  0.17017400742E+03  0.90287495841E+02  0.22020145485E+03  0.91015474011E+02 0.  0.
         24    2    1    2    0    0 -0.17521326738E+02  0.10630339347E+03 -0.13145601148E+03  0.18898232024E+03  0.82620978297E+02 0.  0.
        -13    1    4    4    0    0 -0.33047724358E+02  0.57263709321E+02 -0.11887995235E+03  0.13602840719E+03  0.00000000000E+00 0.  1.
         14    1    4    4    0    0  0.15526397619E+02  0.49039684150E+02 -0.12576059131E+02  0.52953913055E+02  0.00000000000E+00 0. -1.
        -13    1    3    3    0    0  0.37055598110E+01  0.56743735762E+02 -0.98080591525E+01  0.57704252409E+02  0.00000000000E+00 0. -1.
         13    1    3    3    0    0 -0.59327853004E+02  0.11343027166E+03  0.10009555499E+03  0.16249720244E+03  0.00000000000E+00 0.  1.
         -4    1    1    2    0  502  0.73143619931E+02 -0.27647740090E+03 -0.19353680608E+03  0.34532048542E+03  0.00000000000E+00 0.  1.
<scales pt_clust_5="13000.00000" pt_clust_6="13000.00000" pt_clust_7="13000.00000" pt_clust_8="13000.00000" pt_clust_9="13000.00000"></scales>
<clustering>
<clus scale="   82.621">  5  6 -1 -1</clus>
<clus scale="   91.015">  7  8 -1 -1</clus>
<clus scale="  200.840">  1  7  2 -1</clus>
<clus scale="  156.550">  5  9 -1 -1</clus>
<clus scale="  424.098">  2  5  1 -1</clus>
</clustering>
</event>
<event>
 9    2  0.6085395E-005  0.1156166E+03  0.7546771E-02  0.1260000E+00
         21   -1    0    0  501  502  0.00000000000E+00  0.00000000000E+00  0.20393662065E+03  0.20393662065E+03  0.00000000000E+00 0. -1.
         -1   -1    0    0    0  501 -0.00000000000E+00 -0.00000000000E+00 -0.58643072745E+02  0.58643072745E+02  0.00000000000E+00 0.  1.
         23    2    1    2    0    0  0.17984052806E+02  0.11770611403E+01  0.99785256438E+02  0.13832914374E+03  0.94090610459E+02 0.  0.
         24    2    1    2    0    0  0.13211984788E+02 -0.11844786928E+02  0.27837372635E+02  0.86843939180E+02  0.80324933475E+02 0.  0.
        -13    1    4    4    0    0  0.36431092936E+02  0.20000278295E+02  0.21934688914E+02  0.46993257412E+02  0.00000000000E+00 0.  1.
         14    1    4    4    0    0 -0.23219108148E+02 -0.31845065223E+02  0.59026837205E+01  0.39850681768E+02  0.00000000000E+00 0. -1.
        -11    1    3    3    0    0 -0.27279514840E+02 -0.30215336595E+02  0.41473293056E+02  0.58113445367E+02  0.00000000000E+00 0.  1.
         11    1    3    3    0    0  0.45263567646E+02  0.31392397736E+02  0.58311963381E+02  0.80215698370E+02  0.00000000000E+00 0. -1.
         -2    1    1    2    0  502 -0.31196037594E+02  0.10667725788E+02  0.17670918834E+02  0.37406610479E+02  0.00000000000E+00 0.  1.
<scales pt_clust_5="13000.00000" pt_clust_6="13000.00000" pt_clust_7="13000.00000" pt_clust_8="13000.00000" pt_clust_9="13000.00000"></scales>
<clustering>
<clus scale="   80.325">  5  6 -1 -1</clus>
<clus scale="   32.970">  5  9 -1 -1</clus>
<clus scale="   94.091">  7  8 -1 -1</clus>
<clus scale="   95.801">  2  7  1 -1</clus>
<clus scale="  115.617">  1  5  2 -1</clus>
</clustering>
</event>
<event>
 9    2  0.8303234E-005  0.5727983E+03  0.7546771E-02  0.1028671E+00
          2   -1    0    0  502    0 -0.00000000000E+00  0.00000000000E+00  0.85434614770E+03  0.85434614770E+03  0.00000000000E+00 0. -1.
         21   -1    0    0  501  502  0.00000000000E+00 -0.00000000000E+00 -0.28076094799E+03  0.28076094799E+03  0.00000000000E+00 0. -1.
         23    2    1    2    0    0  0.14516967497E+03 -0.12526745774E+03  0.51784438597E+03  0.55960306799E+03  0.90700689757E+02 0.  0.
         24    2    1    2    0    0  0.15243239193E+03  0.61095221461E+01  0.16282152740E+03  0.23752195262E+03  0.81442420281E+02 0.  0.
        -13    1    4    4    0    0  0.92948953674E+01 -0.20375197177E+02  0.44935425125E+02  0.50206933496E+02  0.00000000000E+00 0.  1.
         14    1    4    4    0    0  0.14313749656E+03  0.26484719323E+02  0.11788610227E+03  0.18731501912E+03  0.00000000000E+00 0. -1.
        -13    1    3    3    0    0  0.42060473081E+02 -0.21846294933E+02  0.47472752723E+02  0.67082085903E+02  0.00000000000E+00 0.  1.
         13    1    3    3    0    0  0.10310920189E+03 -0.10342116280E+03  0.47037163325E+03  0.49252098208E+03  0.00000000000E+00 0. -1.
          1    1    1    2  501    0 -0.29760206690E+03  0.11915793559E+03 -0.10708071365E+03  0.33798207508E+03  0.00000000000E+00 0. -1.
<scales pt_clust_5="13000.00000" pt_clust_6="13000.00000" pt_clust_7="13000.00000" pt_clust_8="13000.00000" pt_clust_9="13000.00000"></scales>
<clustering>
<clus scale="   81.442">  5  6 -1 -1</clus>
<clus scale="   90.701">  7  8 -1 -1</clus>
<clus scale="  212.115">  1  7  2 -1</clus>
<clus scale="  255.263">  5  9 -1 -1</clus>
<clus scale="  572.798">  2  5  1 -1</clus>
</clustering>
</event>
<event>
 9    2  0.6085395E-005  0.2434363E+03  0.7546771E-02  0.1155501E+00
         21   -1    0    0  501  502  0.00000000000E+00  0.00000000000E+00  0.45970638471E+02  0.45970638471E+02  0.00000000000E+00 0.  1.
         -1   -1    0    0    0  501 -0.00000000000E+00 -0.00000000000E+00 -0.63924167665E+03  0.63924167665E+03  0.00000000000E+00 0.  1.
         23    2    1    2    0    0 -0.18551401221E+02  0.33306141870E+02 -0.13269216479E+03  0.16425731499E+03  0.88993265802E+02 0.  0.
         24    2    1    2    0    0  0.11042725967E+03 -0.24222518186E+02 -0.35381644655E+03  0.37981003433E+03  0.79301161828E+02 0.  0.
        -13    1    4    4    0    0  0.11872793683E+03 -0.82094763049E+01 -0.28938271832E+03  0.31289946652E+03  0.00000000000E+00 0.  1.
         14    1    4    4    0    0 -0.83006771676E+01 -0.16013041881E+02 -0.64433728226E+02  0.66910567811E+02  0.00000000000E+00 0. -1.
        -11    1    3    3    0    0 -0.20902339880E+02  0.62542428603E+02 -0.77520563129E+02  0.10177377312E+03  0.00000000000E+00 0.  1.
         11    1    3    3    0    0  0.23509386590E+01 -0.29236286733E+02 -0.55171601661E+02  0.62483541868E+02  0.00000000000E+00 0. -1.
         -2    1    1    2    0  502 -0.91875858445E+02 -0.90836236846E+01 -0.10676242683E+03  0.14114496579E+03  0.00000000000E+00 0.  1.
<scales pt_clust_5="13000.00000" pt_clust_6="13000.00000" pt_clust_7="13000.00000" pt_clust_8="13000.00000" pt_clust_9="13000.00000"></scales>
<clustering>
<clus scale="   79.301">  5  6 -1 -1</clus>
<clus scale="   88.993">  7  8 -1 -1</clus>
<clus scale="   92.324">  5  9 -1 -1</clus>
<clus scale="   96.816">  2  7  1 -1</clus>
<clus scale="  243.436">  1  5  2 -1</clus>
</clustering>
</event>
<event>
 9    2  0.6085395E-005  0.1249579E+03  0.7546771E-02  0.1245262E+00
         -3   -1    0    0    0  501 -0.00000000000E+00  0.00000000000E+00  0.30247409907E+03  0.30247409907E+03  0.00000000000E+00 0.  1.
         21   -1    0    0  501  502  0.00000000000E+00 -0.00000000000E+00 -0.42625747162E+02  0.42625747162E+02  0.00000000000E+00 0. -1.
         23    2    1    2    0    0 -0.29682620718E+02  0.29984475785E+02  0.12689809311E+03  0.16264369462E+03  0.92572774641E+02 0.  0.
         24    2    1    2    0    0  0.61229943964E+01 -0.48282973787E+02  0.94354972627E+02  0.13367616456E+03  0.81226347297E+02 0.  0.
        -13    1    4    4    0    0  0.30638622684E+02 -0.54900324760E+02  0.42354345253E+02  0.75806737303E+02  0.00000000000E+00 0.  1.
         14    1    4    4    0    0 -0.24515628287E+02  0.66173509738E+01  0.52000627374E+02  0.57869427261E+02  0.00000000000E+00 0. -1.
        -13    1    3    3    0    0  0.28724101765E+02  0.35404903294E+01  0.74223240908E+02  0.79666169639E+02  0.00000000000E+00 0. -1.
         13    1    3    3    0    0 -0.58406722483E+02  0.26443985455E+02  0.52674852202E+02  0.82977524984E+02  0.00000000000E+00 0.  1.
         -4    1    1    2    0  502  0.23559626322E+02  0.18298498002E+02  0.38595286167E+02  0.48779987043E+02  0.00000000000E+00 0.  1.
<scales pt_clust_5="13000.00000" pt_clust_6="13000.00000" pt_clust_7="13000.00000" pt_clust_8="13000.00000" pt_clust_9="13000.00000"></scales>
<clustering>
<clus scale="   81.226">  5  6 -1 -1</clus>
<clus scale="   29.831">  5  9 -1 -1</clus>
<clus scale="   92.573">  7  8 -1 -1</clus>
<clus scale="  101.734">  1  7  2 -1</clus>
<clus scale="  124.958">  2  5  1 -1</clus>
</clustering>
</event>
<event>
 9    2  0.6085395E-005  0.2482431E+03  0.7546771E-02  0.1146456E+00
         21   -1    0    0  501  502  0.00000000000E+00  0.00000000000E+00  0.98738094691E+02  0.98738094691E+02  0.00000000000E+00 0. -1.
          2   -1    0    0  502    0 -0.00000000000E+00 -0.00000000000E+00 -0.44907744615E+03  0.44907744615E+03  0.00000000000E+00 0. -1.
         23    2    1    2    0    0  0.38608852428E+02  0.55654468858E+02  0.63342049780E+01  0.11325751813E+03  0.90548770676E+02 0.  0.
         24    2    1    2    0    0  0.58050409283E+02  0.28208014961E+02 -0.83108624371E+02  0.13254196167E+03  0.80590235350E+02 0.  0.
        -13    1    4    4    0    0  0.15535457759E+02  0.38450250665E+02 -0.78226492777E+02  0.88539010589E+02  0.00000000000E+00 0.  1.
         14    1    4    4    0    0  0.42514951524E+02 -0.10242235704E+02 -0.48821315941E+01  0.44002951085E+02  0.00000000000E+00 0. -1.
        -13    1    3    3    0    0  0.52416936325E+02 -0.32988373420E+01  0.37238820303E+01  0.52652491288E+02  0.00000000000E+00 0.  1.
         13    1    3    3    0    0 -0.13808083897E+02  0.58953306200E+02  0.26103229477E+01  0.60605026844E+02  0.00000000000E+00 0. -1.
          1    1    1    2  501    0 -0.96659261711E+02 -0.83862483819E+02 -0.27356493207E+03  0.30201606104E+03  0.00000000000E+00 0. -1.
<scales pt_clust_5="13000.00000" pt_clust_6="13000.00000" pt_clust_7="13000.00000" pt_clust_8="13000.00000" pt_clust_9="13000.00000"></scales>
<clustering>
<clus scale="   80.590">  5  6 -1 -1</clus>
<clus scale="   90.549">  7  8 -1 -1</clus>
<clus scale="  113.080">  2  7  1 -1</clus>
<clus scale="   81.141">  5  9 -1 -1</clus>
<clus scale="  248.243">  1  5  2 -1</clus>
</clustering>
</event>
<event>
 9    2  0.6085395E-005  0.3484538E+03  0.7546771E-02  0.1109061E+00
          2   -1    0    0  502    0 -0.00000000000E+00  0.00000000000E+00  0.12394895314E+04  0.12394895314E+04  0.00000000000E+00 0. -1.
         21   -1    0    0  501  502  0.00000000000E+00 -0.00000000000E+00 -0.41102244259E+02  0.41102244259E+02  0.00000000000E+00 0.  1.
         23    2    1    2    0    0 -0.42099127803E+02  0.21162712340E+02  0.28607444805E+03  0.30399832893E+03  0.91412237738E+02 0.  0.
         24    2    1    2    0    0  0.13208796405E+02  0.15198955645E+03  0.43515867555E+03  0.46817191373E+03  0.80910878918E+02 0.  0.
        -11    1    4    4    0    0  0.34275269888E+02  0.10545341002E+03  0.36442745564E+03  0.38092333380E+03  0.00000000000E+00 0.  1.
         12    1    4    4    0    0 -0.21066473483E+02  0.46536146431E+02  0.70731219915E+02  0.87248579934E+02  0.00000000000E+00 0. -1.
        -13    1    3    3    0    0 -0.43906800841E+02  0.46968325229E+02  0.25770898474E+03  0.26560826710E+03  0.00000000000E+00 0. -1.
         13    1    3    3    0    0  0.18076730387E+01 -0.25805612889E+02  0.28365463304E+02  0.38390061824E+02  0.00000000000E+00 0.  1.
          1    1    1    2  501    0  0.28890331398E+02 -0.17315226879E+03  0.47715416354E+03  0.50842153300E+03  0.00000000000E+00 0. -1.
<scales pt_clust_5="13000.00000" pt_clust_6="13000.00000" pt_clust_7="13000.00000" pt_clust_8="13000.00000" pt_clust_9="13000.00000"></scales>
<clustering>
<clus scale="   80.911">  5  6 -1 -1</clus>
<clus scale="   91.412">  7  8 -1 -1</clus>
<clus scale="  102.842">  1  7  2 -1</clus>
<clus scale="  162.258">  5  9 -1 -1</clus>
<clus scale="  348.454">  2  5  1 -1</clus>
</clustering>
</event>
<event>
 9    2  0.6085395E-005  0.3295445E+03  0.7546771E-02  0.1083477E+00
         21   -1    0    0  501  502  0.00000000000E+00  0.00000000000E+00  0.37943530199E+03  0.37943530199E+03  0.00000000000E+00 0. -1.
          2   -1    0    0  502    0 -0.00000000000E+00 -0.00000000000E+00 -0.61039140128E+03  0.61039140128E+03  0.00000000000E+00 0. -1.
         23    2    1    2    0    0  0.25718826018E+02  0.21791378672E+03  0.28920086213E+03  0.37406467787E+03  0.90218446670E+02 0.  0.
         24    2    1    2    0    0 -0.75054644507E+02 -0.21469524349E+03 -0.51168054582E+03  0.56559997173E+03  0.79743964118E+02 0.  0.
        -11    1    4    4    0    0 -0.41453395417E+02 -0.44942186710E+02 -0.19959047641E+03  0.20874516141E+03  0.00000000000E+00 0.  1.
         12    1    4    4    0    0 -0.33601249091E+02 -0.16975305678E+03 -0.31209006941E+03  0.35685481032E+03  0.00000000000E+00 0. -1.
        -13    1    3    3    0    0  0.34645240705E+02  0.22783978267E+02  0.42235496232E+02  0.59188170366E+02  0.00000000000E+00 0.  1.
         13    1    3    3    0    0 -0.89264146869E+01  0.19512980845E+03  0.24696536590E+03  0.31487650751E+03  0.00000000000E+00 0. -1.
          1    1    1    2  501    0  0.49335818489E+02 -0.32185432273E+01 -0.84764156104E+01  0.50162053667E+02  0.00000000000E+00 0. -1.
<scales pt_clust_5="13000.00000" pt_clust_6="13000.00000" pt_clust_7="13000.00000" pt_clust_8="13000.00000" pt_clust_9="13000.00000"></scales>
<clustering>
<clus scale="   79.744">  5  6 -1 -1</clus>
<clus scale="   49.441">  5  9 -1 -1</clus>
<clus scale="   90.218">  7  8 -1 -1</clus>
<clus scale="  237.249">  2  7  1 -1</clus>
<clus scale="  329.545">  1  5  2 -1</clus>
</clustering>
</event>
<event>
 9    2  0.6085395E-005  0.2621768E+03  0.7546771E-02  0.1120959E+00
         21   -1    0    0  501  502  0.00000000000E+00  0.00000000000E+00  0.51206488930E+02  0.51206488930E+02  0.00000000000E+00 0.  1.
          2   -1    0    0  502    0 -0.00000000000E+00 -0.00000000000E+00 -0.11591884158E+04  0.11591884158E+04  0.00000000000E+00 0. -1.
         23    2    1    2    0    0  0.89504501979E+02 -0.12562049662E+03 -0.72184844971E+03  0.74366615303E+03  0.90457712561E+02 0.  0.
         24    2    1    2    0    0 -0.72544903210E+02  0.15099342791E+02 -0.67715012557E+02  0.12924857150E+03  0.81419390651E+02 0.  0.
        -13    1    4    4    0    0 -0.62778004193E+02  0.45815091251E+02 -0.44851106240E+02  0.89731388754E+02  0.00000000000E+00 0.  1.
         14    1    4    4    0    0 -0.97668990167E+01 -0.30715748460E+02 -0.22863906317E+02  0.39517182743E+02  0.00000000000E+00 0. -1.
        -11    1    3    3    0    0  0.95635764851E+02 -0.10370940385E+03 -0.69145593106E+03  0.70570046377E+03  0.00000000000E+00 0. -1.
         11    1    3    3    0    0 -0.61312628719E+01 -0.21911092774E+02 -0.30392518654E+02  0.37965689261E+02  0.00000000000E+00 0.  1.
          1    1    1    2  501    0 -0.16959598770E+02  0.11052115383E+03 -0.31841846463E+03  0.33748018024E+03  0.00000000000E+00 0. -1.
<scales pt_clust_5="13000.00000" pt_clust_6="13000.00000" pt_clust_7="13000.00000" pt_clust_8="13000.00000" pt_clust_9="13000.00000"></scales>
<clustering>
<clus scale="   81.419">  5  6 -1 -1</clus>
<clus scale="   90.458">  7  8 -1 -1</clus>
<clus scale="  111.815">  5  9 -1 -1</clus>
<clus scale="  178.813">  2  7  1 -1</clus>
<clus scale="  262.177">  1  5  2 -1</clus>
</clustering>
</event>
<event>
 9    2  0.6085395E-005  0.3448659E+03  0.7546771E-02  0.1108542E+00
          4   -1    0    0  502    0 -0.00000000000E+00  0.00000000000E+00  0.74969497971E+03  0.74969497971E+03  0.00000000000E+00 0. -1.
         21   -1    0    0  501  502  0.00000000000E+00 -0.00000000000E+00 -0.81713333533E+02  0.81713333533E+02  0.00000000000E+00 0.  1.
         23    2    1    2    0    0  0.40465984178E+02  0.44871803744E+02  0.33576829871E+03  0.35255736439E+03  0.88912148323E+02 0.  0.
         24    2    1    2    0    0  0.11737621012E+03  0.10154178037E+01  0.49145137965E+02  0.15151716412E+03  0.82243544804E+02 0.  0.
        -13    1    4    4    0    0  0.10067140831E+03 -0.28072995881E+02  0.18609376843E+02  0.10615617955E+03  0.00000000000E+00 0.  1.
         14    1    4    4    0    0  0.16704801804E+02  0.29088413684E+02  0.30535761122E+02  0.45360984572E+02  0.00000000000E+00 0. -1.
        -11    1    3    3    0    0 -0.17725143411E+02  0.39106083216E+02  0.87119615491E+02  0.97125145337E+02  0.00000000000E+00 0.  1.
         11    1    3    3    0    0  0.58191127589E+02  0.57657205282E+01  0.24864868322E+03  0.25543221905E+03  0.00000000000E+00 0. -1.
          3    1    1    2  501    0 -0.15784219429E+03 -0.45887221548E+02  0.28306820951E+03  0.32733378474E+03  0.00000000000E+00 0. -1.
<scales pt_clust_5="13000.00000" pt_clust_6="13000.00000" pt_clust_7="13000.00000" pt_clust_8="13000.00000" pt_clust_9="13000.00000"></scales>
<clustering>
<clus scale="   82.244">  5  6 -1 -1</clus>
<clus scale="   88.912">  7  8 -1 -1</clus>
<clus scale="  107.500">  1  7  2 -1</clus>
<clus scale="  127.963">  5  9 -1 -1</clus>
<clus scale="  344.866">  2  5  1 -1</clus>
</clustering>
</event>
<event>
 9    2  0.8242752E-005  0.3860021E+03  0.7546771E-02  0.1081059E+00
         -3   -1    0    0    0  501 -0.00000000000E+00  0.00000000000E+00  0.13539232570E+04  0.13539232570E+04  0.00000000000E+00 0.  1.
         21   -1    0    0  501  502  0.00000000000E+00 -0.00000000000E+00 -0.55154050422E+02  0.55154050422E+02  0.00000000000E+00 0.  1.
         23    2    1    2    0    0 -0.11924355323E+03  0.44798357694E+02  0.44643914687E+03  0.47341487678E+03  0.92670469184E+02 0.  0.
         24    2    1    2    0    0 -0.89410424630E+02 -0.95600620140E+02  0.22522616860E+03  0.27280751243E+03  0.81014870334E+02 0.  0.
        -11    1    4    4    0    0 -0.65738719827E+02 -0.99607116542E+02  0.13853199958E+03  0.18285040842E+03  0.00000000000E+00 0.  1.
         12    1    4    4    0    0 -0.23671704803E+02  0.40064964017E+01  0.86694169012E+02  0.89957104013E+02  0.00000000000E+00 0. -1.
        -11    1    3    3    0    0 -0.45022706086E+02 -0.27774344051E+02  0.12865975349E+03  0.13911071281E+03  0.00000000000E+00 0. -1.
         11    1    3    3    0    0 -0.74220847147E+02  0.72572701745E+02  0.31777939339E+03  0.33430416397E+03  0.00000000000E+00 0.  1.
         -4    1    1    2    0  502  0.20865397786E+03  0.50802262446E+02  0.62710389113E+03  0.66285491823E+03  0.00000000000E+00 0.  1.
<scales pt_clust_5="13000.00000" pt_clust_6="13000.00000" pt_clust_7="13000.00000" pt_clust_8="13000.00000" pt_clust_9="13000.00000"></scales>
<clustering>
<clus scale="   81.015">  5  6 -1 -1</clus>
<clus scale="   92.670">  7  8 -1 -1</clus>
<clus scale="  157.524">  1  7  2 -1</clus>
<clus scale="  148.143">  5  9 -1 -1</clus>
<clus scale="  386.002">  2  5  1 -1</clus>
</clustering>
</event>
<event>
 9    2  0.6085395E-005  0.6130192E+03  0.7546771E-02  0.1044103E+00
         21   -1    0    0  501  502  0.00000000000E+00  0.00000000000E+00  0.26555686881E+03  0.26555686881E+03  0.00000000000E+00 0.  1.
         -1   -1    0    0    0  501 -0.00000000000E+00 -0.00000000000E+00 -0.66120460671E+03  0.66120460671E+03  0.00000000000E+00 0.  1.
         23    2    1    2    0    0 -0.38395286244E+02 -0.47044129347E+02 -0.28275735343E+03  0.30343424636E+03  0.91832852674E+02 0.  0.
         24    2    1    2    0    0 -0.59639641688E+02 -0.78411754944E+02 -0.33041048169E+03  0.35376273096E+03  0.79194022720E+02 0.  0.
        -11    1    4    4    0    0 -0.78578805428E+00 -0.66168116925E+02 -0.16563499013E+03  0.17836419797E+03  0.00000000000E+00 0.  1.
         12    1    4    4    0    0 -0.58853853634E+02 -0.12243638019E+02 -0.16477549155E+03  0.17539853299E+03  0.00000000000E+00 0. -1.
        -13    1    3    3    0    0 -0.29233800746E+02 -0.71998097907E+02 -0.24662223866E+03  0.25857468903E+03  0.00000000000E+00 0.  1.
         13    1    3    3    0    0 -0.91614854974E+01  0.24953968560E+02 -0.36135114774E+02  0.44859557323E+02  0.00000000000E+00 0. -1.
         -2    1    1    2    0  502  0.98034927932E+02  0.12545588429E+03  0.21752009722E+03  0.26956449821E+03  0.00000000000E+00 0.  1.
<scales pt_clust_5="13000.00000" pt_clust_6="13000.00000" pt_clust_7="13000.00000" pt_clust_8="13000.00000" pt_clust_9="13000.00000"></scales>
<clustering>
<clus scale="   79.194">  5  6 -1 -1</clus>
<clus scale="   91.833">  7  8 -1 -1</clus>
<clus scale="  110.094">  2  7  1 -1</clus>
<clus scale="  154.925">  5  9 -1 -1</clus>
<clus scale="  613.019">  1  5  2 -1</clus>
</clustering>
</event>
<event>
 9    2  0.6085395E-005  0.2018157E+03  0.7546771E-02  0.1162075E+00
         21   -1    0    0  501  502  0.00000000000E+00  0.00000000000E+00  0.39786722760E+02  0.39786722760E+02  0.00000000000E+00 0.  1.
         -1   -1    0    0    0  501 -0.00000000000E+00 -0.00000000000E+00 -0.75920451801E+03  0.75920451801E+03  0.00000000000E+00 0.  1.
         23    2    1    2    0    0 -0.29923340292E+02  0.10211779694E+03 -0.29693439279E+03  0.33077997362E+03  0.99608767579E+02 0.  0.
         24    2    1    2    0    0 -0.28210717298E+02 -0.76307127180E+02 -0.15331062345E+03  0.19162539571E+03  0.81225136428E+02 0.  0.
        -13    1    4    4    0    0 -0.29864876132E+02 -0.87142382064E+02 -0.95130278810E+02  0.13242158255E+03  0.00000000000E+00 0.  1.
         14    1    4    4    0    0  0.16541588343E+01  0.10835254884E+02 -0.58180344643E+02  0.59203813159E+02  0.00000000000E+00 0. -1.
        -13    1    3    3    0    0 -0.10139908854E+02  0.39581847162E+02 -0.24140989721E+03  0.24484337615E+03  0.00000000000E+00 0. -1.
         13    1    3    3    0    0 -0.19783431438E+02  0.62535949776E+02 -0.55524495581E+02  0.85936597462E+02  0.00000000000E+00 0.  1.
         -2    1    1    2    0  502  0.58134057590E+02 -0.25810669757E+02 -0.26917277901E+03  0.27658587145E+03  0.00000000000E+00 0.  1.
<scales pt_clust_5="13000.00000" pt_clust_6="13000.00000" pt_clust_7="13000.00000" pt_clust_8="13000.00000" pt_clust_9="13000.00000"></scales>
<clustering>
<clus scale="   81.225">  5  6 -1 -1</clus>
<clus scale="   63.606">  5  9 -1 -1</clus>
<clus scale="   99.609">  7  8 -1 -1</clus>
<clus scale="  145.758">  2  7  1 -1</clus>
<clus scale="  201.816">  1  5  2 -1</clus>
</clustering>
</event>
<event>
 9    2  0.6085395E-005  0.2638229E+03  0.7546771E-02  0.1116996E+00
          2   -1    0    0  502    0 -0.00000000000E+00  0.00000000000E+00  0.42884939159E+03  0.42884939159E+03  0.00000000000E+00 0. -1.
         21   -1    0    0  501  502  0.00000000000E+00 -0.00000000000E+00 -0.12404310362E+03  0.12404310362E+03  0.00000000000E+00 0. -1.
         23    2    1    2    0    0 -0.10961846622E+03  0.12941965874E+03  0.16378062521E+03  0.25374247470E+03  0.93784295423E+02 0.  0.
         24    2    1    2    0    0  0.44128431139E+02  0.12755723471E+02  0.34026233339E+02  0.10954078577E+03  0.93441812245E+02 0.  0.
        -11    1    4    4    0    0  0.49469132648E+01  0.47706807746E+02  0.30666559347E+02  0.56928457896E+02  0.00000000000E+00 0.  1.
         12    1    4    4    0    0  0.39181517875E+02 -0.34951084275E+02  0.33596739919E+01  0.52612327874E+02  0.00000000000E+00 0. -1.
        -13    1    3    3    0    0 -0.98489130656E+02  0.86650324601E+02  0.16340643035E+03  0.20954724787E+03  0.00000000000E+00 0. -1.
         13    1    3    3    0    0 -0.11129335561E+02  0.42769334140E+02  0.37419486408E+00  0.44195226830E+02  0.00000000000E+00 0.  1.
          1    1    1    2  501    0  0.65490035077E+02 -0.14217538221E+03  0.10699942942E+03  0.18960923474E+03  0.00000000000E+00 0. -1.
<scales pt_clust_5="13000.00000" pt_clust_6="13000.00000" pt_clust_7="13000.00000" pt_clust_8="13000.00000" pt_clust_9="13000.00000"></scales>
<clustering>
<clus scale="   93.442">  5  6 -1 -1</clus>
<clus scale="   93.784">  7  8 -1 -1</clus>
<clus scale="  156.534">  5  9 -1 -1</clus>
<clus scale="  193.807">  1  7  2 -1</clus>
<clus scale="  263.823">  2  5  1 -1</clus>
</clustering>
</event>
<event>
 9    2  0.6085395E-005  0.8068780E+03  0.7546771E-02  0.9771283E-01
         21   -1    0    0  501  502  0.00000000000E+00  0.00000000000E+00  0.48952092933E+03  0.48952092933E+03  0.00000000000E+00 0. -1.
          4   -1    0    0  502    0 -0.00000000000E+00 -0.00000000000E+00 -0.89586641762E+03  0.89586641762E+03  0.00000000000E+00 0. -1.
         23    2    1    2    0    0  0.36939521229E+03  0.30362118268E+02 -0.43389587662E+03  0.57803912677E+03  0.92135331101E+02 0.  0.
         24    2    1    2    0    0  0.18733098437E+03 -0.61208915632E+02 -0.99836486956E+02  0.23540154526E+03  0.81284280927E+02 0.  0.
        -13    1    4    4    0    0  0.11137762748E+03 -0.37685729650E+02 -0.14023564523E+02  0.11841389481E+03  0.00000000000E+00 0.  1.
         14    1    4    4    0    0  0.75953356892E+02 -0.23523185982E+02 -0.85812922433E+02  0.11698765045E+03  0.00000000000E+00 0. -1.
        -11    1    3    3    0    0  0.34774435398E+03  0.54759259813E+01 -0.38255634404E+03  0.51701593578E+03  0.00000000000E+00 0. -1.
         11    1    3    3    0    0  0.21650858312E+02  0.24886192287E+02 -0.51339532587E+02  0.61023190988E+02  0.00000000000E+00 0.  1.
          3    1    1    2  501    0 -0.55672619666E+03  0.30846797364E+02  0.12738687529E+03  0.57194667492E+03  0.00000000000E+00 0. -1.
<scales pt_clust_5="13000.00000" pt_clust_6="13000.00000" pt_clust_7="13000.00000" pt_clust_8="13000.00000" pt_clust_9="13000.00000"></scales>
<clustering>
<clus scale="   81.284">  5  6 -1 -1</clus>
<clus scale="   92.135">  7  8 -1 -1</clus>
<clus scale="  381.921">  2  7  1 -1</clus>
<clus scale="  349.469">  5  9 -1 -1</clus>
<clus scale="  806.878">  1  5  2 -1</clus>
</clustering>
</event>
<event>
 9    2  0.6085395E-005  0.2321793E+03  0.7546771E-02  0.1137464E+00
         21   -1    0    0  501  502  0.00000000000E+00  0.00000000000E+00  0.74972465775E+02  0.74972465775E+02  0.00000000000E+00 0. -1.
          2   -1    0    0  502    0 -0.00000000000E+00 -0.00000000000E+00 -0.61588558819E+03  0.61588558819E+03  0.00000000000E+00 0. -1.
         23    2    1    2    0    0  0.61985765095E+02  0.13424765524E+03 -0.35181783564E+03  0.39141813724E+03  0.86992532293E+02 0.  0.
         24    2    1    2    0    0 -0.82026259085E+01 -0.15170387113E+02 -0.19949554459E+02  0.85705734603E+02  0.81547927648E+02 0.  0.
        -13    1    4    4    0    0  0.42180740277E+01  0.31741382001E+02 -0.18866974324E+02  0.37165443626E+02  0.00000000000E+00 0.  1.
         14    1    4    4    0    0 -0.12420699936E+02 -0.46911769114E+02 -0.10825801350E+01  0.48540290976E+02  0.00000000000E+00 0. -1.
        -11    1    3    3    0    0  0.67578220744E+02  0.95319035273E+02 -0.17599510915E+03  0.21125059254E+03  0.00000000000E+00 0.  1.
         11    1    3    3    0    0 -0.55924556492E+01  0.38928619971E+02 -0.17582272649E+03  0.18016754470E+03  0.00000000000E+00 0. -1.
          1    1    1    2  501    0 -0.53783139187E+02 -0.11907726813E+03 -0.16914573232E+03  0.21373418212E+03  0.00000000000E+00 0. -1.
<scales pt_clust_5="13000.00000" pt_clust_6="13000.00000" pt_clust_7="13000.00000" pt_clust_8="13000.00000" pt_clust_9="13000.00000"></scales>
<clustering>
<clus scale="   81.548">  5  6 -1 -1</clus>
<clus scale="   86.993">  7  8 -1 -1</clus>
<clus scale="  130.660">  5  9 -1 -1</clus>
<clus scale="  171.559">  2  7  1 -1</clus>
<clus scale="  232.179">  1  5  2 -1</clus>
</clustering>
</event>
<event>
 9    2  0.6085395E-005  0.2906573E+03  0.7546771E-02  0.1123355E+00
         21   -1    0    0  501  502  0.00000000000E+00  0.00000000000E+00  0.55333203256E+02  0.55333203256E+02  0.00000000000E+00 0.  1.
         -1   -1    0    0    0  501 -0.00000000000E+00 -0.00000000000E+00 -0.10107260894E+04  0.10107260894E+04  0.00000000000E+00 0.  1.
         23    2    1    2    0    0 -0.29405906063E+02 -0.77287114906E+02 -0.89332191200E+02  0.15252615701E+03  0.91902027976E+02 0.  0.
         24    2    1    2    0    0 -0.51142592367E+02 -0.30551891880E+02 -0.65835412391E+03  0.66602691020E+03  0.81318569737E+02 0.  0.
        -13    1    4    4    0    0 -0.26267382822E+02  0.17102091954E+02 -0.93358218653E+02  0.98479510253E+02  0.00000000000E+00 0.  1.
         14    1    4    4    0    0 -0.24875209545E+02 -0.47653983833E+02 -0.56499590526E+03  0.56754739994E+03  0.00000000000E+00 0. -1.
        -11    1    3    3    0    0 -0.60943775113E+02 -0.55944973104E+02 -0.45327552189E+02  0.94332235891E+02  0.00000000000E+00 0.  1.
         11    1    3    3    0    0  0.31537869050E+02 -0.21342141802E+02 -0.44004639011E+02  0.58193921120E+02  0.00000000000E+00 0. -1.
         -2    1    1    2    0  502  0.80548498430E+02  0.10783900679E+03 -0.20770657101E+03  0.24750622543E+03  0.00000000000E+00 0.  1.
<scales pt_clust_5="13000.00000" pt_clust_6="13000.00000" pt_clust_7="13000.00000" pt_clust_8="13000.00000" pt_clust_9="13000.00000"></scales>
<clustering>
<clus scale="   81.319">  5  6 -1 -1</clus>
<clus scale="   91.902">  7  8 -1 -1</clus>
<clus scale="  123.628">  2  7  1 -1</clus>
<clus scale="  114.408">  5  9 -1 -1</clus>
<clus scale="  290.657">  1  5  2 -1</clus>
</clustering>
</event>
<event>
 9    2  0.6085395E-005  0.1786379E+03  0.7546771E-02  0.1194689E+00
         21   -1    0    0  501  502  0.00000000000E+00  0.00000000000E+00  0.21337777327E+03  0.21337777327E+03  0.00000000000E+00 0.  1.
         -1   -1    0    0    0  501 -0.00000000000E+00 -0.00000000000E+00 -0.11144424870E+03  0.11144424870E+03  0.00000000000E+00 0.  1.
         23    2    1    2    0    0 -0.27932967575E+02  0.36952400530E+02 -0.27252662322E+02  0.10436668042E+03  0.89464885825E+02 0.  0.
         24    2    1    2    0    0 -0.40483836101E+01 -0.30421974850E+02  0.15637221178E+03  0.17797554361E+03  0.79253640560E+02 0.  0.
        -13    1    4    4    0    0 -0.38656445920E+02 -0.22835667757E+02  0.57534308420E+02  0.72979347616E+02  0.00000000000E+00 0.  1.
         14    1    4    4    0    0  0.34608062310E+02 -0.75863070925E+01  0.98837903365E+02  0.10499619600E+03  0.00000000000E+00 0. -1.
        -11    1    3    3    0    0 -0.27128495592E+02 -0.25325805459E+02 -0.18510421726E+02  0.41472730892E+02  0.00000000000E+00 0.  1.
         11    1    3    3    0    0 -0.80447198321E+00  0.62278205989E+02 -0.87422405966E+01  0.62893949527E+02  0.00000000000E+00 0. -1.
         -2    1    1    2    0  502  0.31981351185E+02 -0.65304256804E+01 -0.27186024889E+02  0.42479797933E+02  0.00000000000E+00 0.  1.
<scales pt_clust_5="13000.00000" pt_clust_6="13000.00000" pt_clust_7="13000.00000" pt_clust_8="13000.00000" pt_clust_9="13000.00000"></scales>
<clustering>
<clus scale="   79.254">  5  6 -1 -1</clus>
<clus scale="   32.641">  5  9 -1 -1</clus>
<clus scale="   89.465">  7  8 -1 -1</clus>
<clus scale="  100.746">  2  7  1 -1</clus>
<clus scale="  178.638">  1  5  2 -1</clus>
</clustering>
</event>
<event>
 9    2  0.6085395E-005  0.2917570E+03  0.7546771E-02  0.1126174E+00
         -3   -1    0    0    0  501 -0.00000000000E+00  0.00000000000E+00  0.12374076058E+04  0.12374076058E+04  0.00000000000E+00 0.  1.
         21   -1    0    0  501  502  0.00000000000E+00 -0.00000000000E+00 -0.38673387941E+02  0.38673387941E+02  0.00000000000E+00 0. -1.
         23    2    1    2    0    0  0.23336006760E+02 -0.60781261655E+02  0.15540418032E+03  0.19272522550E+03  0.93560794704E+02 0.  0.
         24    2    1    2    0    0  0.13714963954E+02 -0.69161367847E+02  0.23079863599E+03  0.25966581449E+03  0.95848473131E+02 0.  0.
        -13    1    4    4    0    0 -0.38786493085E+02 -0.39704024805E+02  0.14123473831E+03  0.15174996849E+03  0.00000000000E+00 0.  1.
         14    1    4    4    0    0  0.52501457039E+02 -0.29457343042E+02  0.89563897683E+02  0.10791584600E+03  0.00000000000E+00 0. -1.
        -13    1    3    3    0    0  0.21801789125E+02  0.21920481737E+02  0.35754888759E+02  0.47267722590E+02  0.00000000000E+00 0.  1.
         13    1    3    3    0    0  0.15342176355E+01 -0.82701743392E+02  0.11964929156E+03  0.14545750291E+03  0.00000000000E+00 0. -1.
         -4    1    1    2    0  502 -0.37050970715E+02  0.12994262950E+03  0.81253140152E+03  0.82368995371E+03  0.00000000000E+00 0.  1.
<scales pt_clust_5="13000.00000" pt_clust_6="13000.00000" pt_clust_7="13000.00000" pt_clust_8="13000.00000" pt_clust_9="13000.00000"></scales>
<clustering>
<clus scale="   93.561">  7  8 -1 -1</clus>
<clus scale="   95.848">  5  6 -1 -1</clus>
<clus scale="  113.985">  1  7  2 -1</clus>
<clus scale="   85.343">  5  9 -1 -1</clus>
<clus scale="  291.757">  2  5  1 -1</clus>
</clustering>
</event>
<event>
 9    2  0.6085395E-005  0.1559091E+03  0.7546771E-02  0.1208316E+00
          2   -1    0    0  502    0 -0.00000000000E+00  0.00000000000E+00  0.68349300267E+02  0.68349300267E+02  0.00000000000E+00 0. -1.
         21   -1    0    0  501  502  0.00000000000E+00 -0.00000000000E+00 -0.36714977047E+03  0.36714977047E+03  0.00000000000E+00 0. -1.
         23    2    1    2    0    0 -0.26133169975E+02  0.61424294230E+02 -0.17876837410E+02  0.11421146965E+03  0.90932898274E+02 0.  0.
         24    2    1    2    0    0 -0.27520331632E+02 -0.57960881346E+02 -0.18707853963E+03  0.21313218063E+03  0.79436226066E+02 0.  0.
        -11    1    4    4    0    0 -0.23645294601E+01 -0.38628466171E+02 -0.20962030104E+02  0.44013135589E+02  0.00000000000E+00 0.  1.
         12    1    4    4    0    0 -0.25155802172E+02 -0.19332415175E+02 -0.16611650952E+03  0.16911904504E+03  0.00000000000E+00 0. -1.
        -13    1    3    3    0    0 -0.49131931282E+02  0.52625136444E+01  0.42960288464E+01  0.49599360734E+02  0.00000000000E+00 0. -1.
         13    1    3    3    0    0  0.22998761307E+02  0.56161780586E+02 -0.22172866256E+02  0.64612108913E+02  0.00000000000E+00 0.  1.
          1    1    1    2  501    0  0.53653501607E+02 -0.34634128837E+01 -0.93845093167E+02  0.10815542046E+03  0.00000000000E+00 0. -1.
<scales pt_clust_5="13000.00000" pt_clust_6="13000.00000" pt_clust_7="13000.00000" pt_clust_8="13000.00000" pt_clust_9="13000.00000"></scales>
<clustering>
<clus scale="   79.436">  5  6 -1 -1</clus>
<clus scale="   53.765">  5  9 -1 -1</clus>
<clus scale="   90.933">  7  8 -1 -1</clus>
<clus scale="  112.804">  1  7  2 -1</clus>
<clus scale="  155.909">  2  5  1 -1</clus>
</clustering>
</event>
<event>
 9    2  0.6085395E-005  0.3690018E+03  0.7546771E-02  0.1090064E+00
         -3   -1    0    0    0  501 -0.00000000000E+00  0.00000000000E+00  0.65841131610E+03  0.65841131610E+03  0.00000000000E+00 0.  1.
         21   -1    0    0  501  502  0.00000000000E+00 -0.00000000000E+00 -0.10257394601E+03  0.10257394601E+03  0.00000000000E+00 0.  1.
         23    2    1    2    0    0  0.13168580171E+02 -0.10720935350E+03  0.95416526054E+02  0.17094315450E+03  0.91923836101E+02 0.  0.
         24    2    1    2    0    0  0.61385601298E+02 -0.39929639266E+02  0.16488407516E+02  0.11645556077E+03  0.89036295479E+02 0.  0.
        -11    1    4    4    0    0  0.13918437586E+02  0.18282733852E+02 -0.22213012489E+02  0.31959336441E+02  0.00000000000E+00 0.  1.
         12    1    4    4    0    0  0.47467163712E+02 -0.58212373118E+02  0.38701420006E+02  0.84496224326E+02  0.00000000000E+00 0. -1.
        -13    1    3    3    0    0  0.50788827171E+02 -0.44094090766E+02  0.56244615322E+02  0.87676967094E+02  0.00000000000E+00 0.  1.
         13    1    3    3    0    0 -0.37620247000E+02 -0.63115262735E+02  0.39171910731E+02  0.83266187404E+02  0.00000000000E+00 0. -1.
         -4    1    1    2    0  502 -0.74554181469E+02  0.14713899277E+03  0.44393243652E+03  0.47358654685E+03  0.00000000000E+00 0.  1.
<scales pt_clust_5="13000.00000" pt_clust_6="13000.00000" pt_clust_7="13000.00000" pt_clust_8="13000.00000" pt_clust_9="13000.00000"></scales>
<clustering>
<clus scale="   89.036">  5  6 -1 -1</clus>
<clus scale="   91.924">  7  8 -1 -1</clus>
<clus scale="  141.835">  1  7  2 -1</clus>
<clus scale="   82.690">  5  9 -1 -1</clus>
<clus scale="  369.002">  2  5  1 -1</clus>
</clustering>
</event>
<event>
 9    2  0.6085395E-005  0.1995462E+03  0.7546771E-02  0.1171105E+00
         21   -1    0    0  501  502  0.00000000000E+00  0.00000000000E+00  0.94074331412E+02  0.94074331412E+02  0.00000000000E+00 0. -1.
          2   -1    0    0  502    0 -0.00000000000E+00 -0.00000000000E+00 -0.43684303241E+03  0.43684303241E+03  0.00000000000E+00 0. -1.
         23    2    1    2    0    0  0.64389544622E+02  0.51097525619E+02 -0.30384769993E+03  0.32761088378E+03  0.90821230090E+02 0.  0.
         24    2    1    2    0    0  0.21202628508E+02  0.25893560264E+02 -0.13958349903E+02  0.85506728940E+02  0.77437311699E+02 0.  0.
        -13    1    4    4    0    0  0.94102017488E+00 -0.21520453083E+02 -0.24767138267E+02  0.32824176422E+02  0.00000000000E+00 0.  1.
         14    1    4    4    0    0  0.20261608333E+02  0.47414013346E+02  0.10808788364E+02  0.52682552517E+02  0.00000000000E+00 0. -1.
        -13    1    3    3    0    0  0.22055540533E+02  0.68153862869E+02 -0.22902739574E+03  0.23996863106E+03  0.00000000000E+00 0. -1.
         13    1    3    3    0    0  0.42334004088E+02 -0.17056337249E+02 -0.74820304186E+02  0.87642252716E+02  0.00000000000E+00 0.  1.
          1    1    1    2  501    0 -0.85592173130E+02 -0.76991085883E+02 -0.24962651161E+02  0.11779975110E+03  0.00000000000E+00 0. -1.
<scales pt_clust_5="13000.00000" pt_clust_6="13000.00000" pt_clust_7="13000.00000" pt_clust_8="13000.00000" pt_clust_9="13000.00000"></scales>
<clustering>
<clus scale="   77.437">  5  6 -1 -1</clus>
<clus scale="   90.821">  7  8 -1 -1</clus>
<clus scale="  115.125">  5  9 -1 -1</clus>
<clus scale="  122.497">  2  7  1 -1</clus>
<clus scale="  199.546">  1  5  2 -1</clus>
</clustering>
</event>
<event>
 9    2  0.6085395E-005  0.3038985E+03  0.7546771E-02  0.1116056E+00
         21   -1    0    0  501  502  0.00000000000E+00  0.00000000000E+00  0.39624229032E+02  0.39624229032E+02  0.00000000000E+00 0. -1.
          2   -1    0    0  502    0 -0.00000000000E+00 -0.00000000000E+00 -0.12579658220E+04  0.12579658220E+04  0.00000000000E+00 0. -1.
         23    2    1    2    0    0  0.26204827182E+02  0.86232664942E+02 -0.52046527536E+03  0.53641619781E+03  0.93463730652E+02 0.  0.
         24    2    1    2    0    0 -0.27466950332E+02  0.91987382623E+02 -0.29040337297E+03  0.31642878139E+03  0.81098352236E+02 0.  0.
        -11    1    4    4    0    0 -0.40339443742E+02  0.12537991902E+02 -0.69630728922E+02  0.81442681516E+02  0.00000000000E+00 0.  1.
         12    1    4    4    0    0  0.12872493410E+02  0.79449390721E+02 -0.22077264405E+03  0.23498609987E+03  0.00000000000E+00 0. -1.
        -13    1    3    3    0    0  0.24841093567E+02 -0.13641835690E+02 -0.83432205452E+02  0.88114201563E+02  0.00000000000E+00 0.  1.
         13    1    3    3    0    0  0.13637336156E+01  0.99874500632E+02 -0.43703306991E+03  0.44830199625E+03  0.00000000000E+00 0. -1.
          1    1    1    2  501    0  0.12621231494E+01 -0.17822004756E+03 -0.40747294464E+03  0.44474507184E+03  0.00000000000E+00 0. -1.
<scales pt_clust_5="13000.00000" pt_clust_6="13000.00000" pt_clust_7="13000.00000" pt_clust_8="13000.00000" pt_clust_9="13000.00000"></scales>
<clustering>
<clus scale="   81.098">  5  6 -1 -1</clus>
<clus scale="   93.464">  7  8 -1 -1</clus>
<clus scale="  129.839">  2  7  1 -1</clus>
<clus scale="  128.921">  5  9 -1 -1</clus>
<clus scale="  303.898">  1  5  2 -1</clus>
</clustering>
</event>
<event>
 9    2  0.6085395E-005  0.2685478E+03  0.7546771E-02  0.1141646E+00
         -1   -1    0    0    0  501 -0.00000000000E+00  0.00000000000E+00  0.22844454162E+03  0.22844454162E+03  0.00000000000E+00 0.  1.
         21   -1    0    0  501  502  0.00000000000E+00 -0.00000000000E+00 -0.15067710227E+03  0.15067710227E+03  0.00000000000E+00 0.  1.
         23    2    1    2    0    0 -0.12641202461E+02 -0.25838470236E+02  0.26311441018E+01  0.10026079576E+03  0.96009779208E+02 0.  0.
         24    2    1    2    0    0  0.48654839346E+01 -0.89454770948E+02  0.10519844464E+03  0.15945931511E+03  0.79591026135E+02 0.  0.
        -13    1    4    4    0    0  0.23617695817E+02 -0.55482860505E+02  0.16305551111E+02  0.62466105710E+02  0.00000000000E+00 0.  1.
         14    1    4    4    0    0 -0.18752211883E+02 -0.33971910443E+02  0.88892893530E+02  0.96993209401E+02  0.00000000000E+00 0. -1.
        -11    1    3    3    0    0 -0.53825637736E+02 -0.14771835837E+02  0.10770844867E+02  0.56845558409E+02  0.00000000000E+00 0.  1.
         11    1    3    3    0    0  0.41184435274E+02 -0.11066634399E+02 -0.81397007657E+01  0.43415237352E+02  0.00000000000E+00 0. -1.
         -2    1    1    2    0  502  0.77757185266E+01  0.11529324118E+03 -0.30062149386E+02  0.11940153302E+03  0.00000000000E+00 0.  1.
<scales pt_clust_5="13000.00000" pt_clust_6="13000.00000" pt_clust_7="13000.00000" pt_clust_8="13000.00000" pt_clust_9="13000.00000"></scales>
<clustering>
<clus scale="   79.591">  5  6 -1 -1</clus>
<clus scale="   96.010">  7  8 -1 -1</clus>
<clus scale="  100.226">  1  7  2 -1</clus>
<clus scale="  108.869">  5  9 -1 -1</clus>
<clus scale="  268.548">  2  5  1 -1</clus>
</clustering>
</event>
<event>
 9    2  0.6085395E-005  0.6755400E+03  0.7546771E-02  0.1009138E+00
         21   -1    0    0  501  502  0.00000000000E+00  0.00000000000E+00  0.15518938740E+03  0.15518938740E+03  0.00000000000E+00 0. -1.
          2   -1    0    0  502    0 -0.00000000000E+00 -0.00000000000E+00 -0.15296233416E+04  0.15296233416E+04  0.00000000000E+00 0. -1.
         23    2    1    2    0    0 -0.38572403485E+02  0.21259704442E+03 -0.66621210079E+03  0.70607249320E+03  0.89523565640E+02 0.  0.
         24    2    1    2    0    0  0.13739014973E+03 -0.67300970479E+02  0.65497362257E+02  0.18531896008E+03  0.81533665646E+02 0.  0.
        -11    1    4    4    0    0  0.34995537022E+02 -0.10905012165E+02 -0.18801478347E+02  0.41195903799E+02  0.00000000000E+00 0.  1.
         12    1    4    4    0    0  0.10239461270E+03 -0.56395958314E+02  0.84298840604E+02  0.14412305628E+03  0.00000000000E+00 0. -1.
        -11    1    3    3    0    0 -0.35840703659E+02  0.16480321563E+03 -0.60664492625E+03  0.62965285869E+03  0.00000000000E+00 0. -1.
         11    1    3    3    0    0 -0.27316998255E+01  0.47793828795E+02 -0.59567174544E+02  0.76419634506E+02  0.00000000000E+00 0.  1.
          1    1    1    2  501    0 -0.98817746242E+02 -0.14529607394E+03 -0.77371921568E+03  0.79342127574E+03  0.00000000000E+00 0. -1.
<scales pt_clust_5="13000.00000" pt_clust_6="13000.00000" pt_clust_7="13000.00000" pt_clust_8="13000.00000" pt_clust_9="13000.00000"></scales>
<clustering>
<clus scale="   81.534">  5  6 -1 -1</clus>
<clus scale="   89.524">  7  8 -1 -1</clus>
<clus scale="  175.715">  5  9 -1 -1</clus>
<clus scale="  233.880">  2  7  1 -1</clus>
<clus scale="  675.540">  1  5  2 -1</clus>
</clustering>
</event>
<event>
 9    2  0.6085395E-005  0.2001765E+03  0.7546771E-02  0.1181182E+00
         -1   -1    0    0    0  501 -0.00000000000E+00  0.00000000000E+00  0.17115947090E+03  0.17115947090E+03  0.00000000000E+00 0.  1.
         21   -1    0    0  501  502  0.00000000000E+00 -0.00000000000E+00 -0.20744546184E+03  0.20744546184E+03  0.00000000000E+00 0.  1.
         23    2    1    2    0    0 -0.17188250866E+02  0.61423090079E+01  0.97961341174E+02  0.13758007835E+03  0.94861423484E+02 0.  0.
         24    2    1    2    0    0  0.50245786435E+02  0.32693877710E+02 -0.28557071945E+01  0.10008228043E+03  0.80092316104E+02 0.  0.
        -11    1    4    4    0    0  0.65950535780E+02  0.23512632835E+02 -0.22273800449E+02  0.73474072018E+02  0.00000000000E+00 0.  1.
         12    1    4    4    0    0 -0.15704749344E+02  0.91812448750E+01  0.19418093255E+02  0.26608208415E+02  0.00000000000E+00 0. -1.
        -11    1    3    3    0    0 -0.50693142128E+02 -0.18156720443E+02  0.66640124298E+02  0.85675943663E+02  0.00000000000E+00 0.  1.
         11    1    3    3    0    0  0.33504891262E+02  0.24299029450E+02  0.31321216876E+02  0.51904134684E+02  0.00000000000E+00 0. -1.
         -2    1    1    2    0  502 -0.33057535569E+02 -0.38836186718E+02 -0.13139162492E+03  0.14094257397E+03  0.00000000000E+00 0.  1.
<scales pt_clust_5="13000.00000" pt_clust_6="13000.00000" pt_clust_7="13000.00000" pt_clust_8="13000.00000" pt_clust_9="13000.00000"></scales>
<clustering>
<clus scale="   80.092">  5  6 -1 -1</clus>
<clus scale="   51.001">  5  9 -1 -1</clus>
<clus scale="   94.861">  7  8 -1 -1</clus>
<clus scale="   96.602">  1  7  2 -1</clus>
<clus scale="  200.177">  2  5  1 -1</clus>
</clustering>
</event>
<event>
 9    2  0.6085395E-005  0.4669576E+03  0.7546771E-02  0.1061067E+00
         -1   -1    0    0    0  501 -0.00000000000E+00  0.00000000000E+00  0.33434821829E+03  0.33434821829E+03  0.00000000000E+00 0.  1.
         21   -1    0    0  501  502  0.00000000000E+00 -0.00000000000E+00 -0.30772603696E+03  0.30772603696E+03  0.00000000000E+00 0. -1.
         23    2    1    2    0    0 -0.12479345563E+03 -0.10171665994E+02 -0.63555739312E+02  0.16648882453E+03  0.89455728353E+02 0.  0.
         24    2    1    2    0    0 -0.15545078846E+03 -0.34343014813E+02  0.70108252018E+02  0.19111893928E+03  0.79163701607E+02 0.  0.
        -13    1    4    4    0    0 -0.14294252231E+03 -0.41437346457E+01  0.68046284802E+02  0.15836676449E+03  0.00000000000E+00 0.  1.
         14    1    4    4    0    0 -0.12508266156E+02 -0.30199280168E+02  0.20619672164E+01  0.32752174793E+02  0.00000000000E+00 0. -1.
        -11    1    3    3    0    0 -0.44570162917E+02 -0.37468509420E+02  0.36390083548E+01  0.58340646229E+02  0.00000000000E+00 0.  1.
         11    1    3    3    0    0 -0.80223292715E+02  0.27296843427E+02 -0.67194747667E+02  0.10814817830E+03  0.00000000000E+00 0. -1.
         -2    1    1    2    0  502  0.28024424409E+03  0.44514680807E+02  0.20069668625E+02  0.28446649144E+03  0.00000000000E+00 0.  1.
<scales pt_clust_5="13000.00000" pt_clust_6="13000.00000" pt_clust_7="13000.00000" pt_clust_8="13000.00000" pt_clust_9="13000.00000"></scales>
<clustering>
<clus scale="   79.164">  5  6 -1 -1</clus>
<clus scale="   89.456">  7  8 -1 -1</clus>
<clus scale="  153.881">  1  7  2 -1</clus>
<clus scale="  216.618">  5  9 -1 -1</clus>
<clus scale="  466.958">  2  5  1 -1</clus>
</clustering>
</event>
<event>
 9    2  0.6085395E-005  0.1387041E+03  0.7546771E-02  0.1233809E+00
          2   -1    0    0  502    0 -0.00000000000E+00  0.00000000000E+00  0.32302636533E+03  0.32302636533E+03  0.00000000000E+00 0. -1.
         21   -1    0    0  501  502  0.00000000000E+00 -0.00000000000E+00 -0.75760762027E+02  0.75760762027E+02  0.00000000000E+00 0. -1.
         23    2    1    2    0    0 -0.21882351432E+02 -0.88586757426E+00  0.24245758228E+03  0.25999967999E+03  0.91293659832E+02 0.  0.
         24    2    1    2    0    0  0.36567658798E+02  0.35516031634E+02  0.82377080360E+01  0.10101617166E+03  0.86820648062E+02 0.  0.
        -11    1    4    4    0    0  0.59414807459E+02  0.56524913801E+01  0.17682232965E+02  0.62247340239E+02  0.00000000000E+00 0.  1.
         12    1    4    4    0    0 -0.22847148661E+02  0.29863540254E+02 -0.94445249290E+01  0.38768831419E+02  0.00000000000E+00 0. -1.
        -11    1    3    3    0    0  0.28741189643E+02 -0.13048912424E+02  0.39996621766E+02  0.50951544140E+02  0.00000000000E+00 0.  1.
         11    1    3    3    0    0 -0.50623541075E+02  0.12163044850E+02  0.20246096052E+03  0.20904813585E+03  0.00000000000E+00 0. -1.
          1    1    1    2  501    0 -0.14685307366E+02 -0.34630164060E+02 -0.34296870159E+01  0.37771275704E+02  0.00000000000E+00 0. -1.
<scales pt_clust_5="13000.00000" pt_clust_6="13000.00000" pt_clust_7="13000.00000" pt_clust_8="13000.00000" pt_clust_9="13000.00000"></scales>
<clustering>
<clus scale="   86.821">  5  6 -1 -1</clus>
<clus scale="   37.615">  5  9 -1 -1</clus>
<clus scale="   91.294">  7  8 -1 -1</clus>
<clus scale="   93.884">  1  7  2 -1</clus>
<clus scale="  138.704">  2  5  1 -1</clus>
</clustering>
</event>
<event>
 9    2  0.6085395E-005  0.1153739E+03  0.7546771E-02  0.1253842E+00
         21   -1    0    0  501  502  0.00000000000E+00  0.00000000000E+00  0.10771279257E+03  0.10771279257E+03  0.00000000000E+00 0. -1.
         -3   -1    0    0    0  501 -0.00000000000E+00 -0.00000000000E+00 -0.12424205832E+03  0.12424205832E+03  0.00000000000E+00 0.  1.
         23    2    1    2    0    0 -0.54976871560E+02 -0.18939162110E+02  0.20487570681E+02  0.11078808430E+03  0.92049501911E+02 0.  0.
         24    2    1    2    0    0  0.37924062239E+02  0.41592580379E+01 -0.16827450829E+02  0.90887150325E+02  0.80757520199E+02 0.  0.
        -11    1    4    4    0    0  0.51156928159E+02 -0.90592067528E+01 -0.36691459205E+02  0.63603173697E+02  0.00000000000E+00 0.  1.
         12    1    4    4    0    0 -0.13232865920E+02  0.13218464791E+02  0.19864008376E+02  0.27283976628E+02  0.00000000000E+00 0. -1.
        -13    1    3    3    0    0 -0.34338954624E+02 -0.43128568706E+01 -0.35360481781E+02  0.49478563144E+02  0.00000000000E+00 0.  1.
         13    1    3    3    0    0 -0.20637916936E+02 -0.14626305240E+02  0.55848052461E+02  0.61309521154E+02  0.00000000000E+00 0. -1.
         -4    1    1    2    0  502  0.17052809321E+02  0.14779904072E+02 -0.20189385601E+02  0.30279616264E+02  0.00000000000E+00 0.  1.
<scales pt_clust_5="13000.00000" pt_clust_6="13000.00000" pt_clust_7="13000.00000" pt_clust_8="13000.00000" pt_clust_9="13000.00000"></scales>
<clustering>
<clus scale="   80.758">  5  6 -1 -1</clus>
<clus scale="   22.566">  5  9 -1 -1</clus>
<clus scale="   92.050">  7  8 -1 -1</clus>
<clus scale="  108.877">  2  7  1 -1</clus>
<clus scale="  115.374">  1  5  2 -1</clus>
</clustering>
</event>
<event>
 9    2  0.6930193E-005  0.3361793E+03  0.7546771E-02  0.1087662E+00
         21   -1    0    0  501  502  0.00000000000E+00  0.00000000000E+00  0.11899953379E+03  0.11899953379E+03  0.00000000000E+00 0.  1.
         -1   -1    0    0    0  501 -0.00000000000E+00 -0.00000000000E+00 -0.60389134660E+03  0.60389134660E+03  0.00000000000E+00 0.  1.
         23    2    1    2    0    0  0.35324753966E+02 -0.17035097095E+03 -0.17480666445E+03  0.26554056800E+03  0.98423227811E+02 0.  0.
         24    2    1    2    0    0 -0.44163162931E+02  0.28351974037E+02  0.18753198908E+02  0.99053659833E+02  0.81888495316E+02 0.  0.
        -13    1    4    4    0    0 -0.50080410178E+02  0.30668858334E+02  0.43770031147E+02  0.73242351011E+02  0.00000000000E+00 0.  1.
         14    1    4    4    0    0  0.59172472472E+01 -0.23168842974E+01 -0.25016832238E+02  0.25811308822E+02  0.00000000000E+00 0. -1.
        -11    1    3    3    0    0  0.65696245848E+02 -0.10733501548E+03 -0.13699347208E+03  0.18602154085E+03  0.00000000000E+00 0. -1.
         11    1    3    3    0    0 -0.30371491881E+02 -0.63015955467E+02 -0.37813192375E+02  0.79519027158E+02  0.00000000000E+00 0.  1.
         -2    1    1    2    0  502  0.88384089641E+01  0.14199899691E+03 -0.32883834727E+03  0.35829665255E+03  0.00000000000E+00 0.  1.
<scales pt_clust_5="13000.00000" pt_clust_6="13000.00000" pt_clust_7="13000.00000" pt_clust_8="13000.00000" pt_clust_9="13000.00000"></scales>
<clustering>
<clus scale="   81.888">  5  6 -1 -1</clus>
<clus scale="   98.423">  7  8 -1 -1</clus>
<clus scale="  142.274">  5  9 -1 -1</clus>
<clus scale="  199.886">  2  7  1 -1</clus>
<clus scale="  336.179">  1  5  2 -1</clus>
</clustering>
</event>
<event>
 9    2  0.6085395E-005  0.2852425E+03  0.7546771E-02  0.1115548E+00
          2   -1    0    0  502    0 -0.00000000000E+00  0.00000000000E+00  0.19510246483E+03  0.19510246483E+03  0.00000000000E+00 0. -1.
         21   -1    0    0  501  502  0.00000000000E+00 -0.00000000000E+00 -0.26414281557E+03  0.26414281557E+03  0.00000000000E+00 0. -1.
         23    2    1    2    0    0  0.11287542306E+03  0.65674936347E+02 -0.70585256760E+02  0.17399856227E+03  0.90769834225E+02 0.  0.
         24    2    1    2    0    0 -0.54990149637E+02  0.55617391640E+02 -0.73935599841E+02  0.13110444465E+03  0.74864488740E+02 0.  0.
        -13    1    4    4    0    0 -0.43868333966E+02  0.49268784447E+01 -0.64804067268E+02  0.78410917547E+02  0.00000000000E+00 0.  1.
         14    1    4    4    0    0 -0.11121815671E+02  0.50690513196E+02 -0.91315325731E+01  0.52693527107E+02  0.00000000000E+00 0. -1.
        -13    1    3    3    0    0  0.23866965245E+02  0.65214721275E+02 -0.38358472615E+02  0.79334509026E+02  0.00000000000E+00 0.  1.
         13    1    3    3    0    0  0.89008457814E+02  0.46021507169E+00 -0.32226784144E+02  0.94664053244E+02  0.00000000000E+00 0. -1.
          1    1    1    2  501    0 -0.57885273422E+02 -0.12129232799E+03  0.75480505862E+02  0.15414227348E+03  0.00000000000E+00 0. -1.
<scales pt_clust_5="13000.00000" pt_clust_6="13000.00000" pt_clust_7="13000.00000" pt_clust_8="13000.00000" pt_clust_9="13000.00000"></scales>
<clustering>
<clus scale="   74.864">  5  6 -1 -1</clus>
<clus scale="   90.770">  7  8 -1 -1</clus>
<clus scale="  134.397">  5  9 -1 -1</clus>
<clus scale="  159.039">  1  7  2 -1</clus>
<clus scale="  285.243">  2  5  1 -1</clus>
</clustering>
</event>
<event>
 9    2  0.6085395E-005  0.3991483E+03  0.7546771E-02  0.1090869E+00
         21   -1    0    0  501  502  0.00000000000E+00  0.00000000000E+00  0.20483432936E+03  0.20483432936E+03  0.00000000000E+00 0. -1.
          2   -1    0    0  502    0 -0.00000000000E+00 -0.00000000000E+00 -0.32243484107E+03  0.32243484107E+03  0.00000000000E+00 0. -1.
         23    2    1    2    0    0 -0.56177436806E+02 -0.25012860994E+02 -0.56730470738E+02  0.12350622557E+03  0.90850942884E+02 0.  0.
         24    2    1    2    0    0 -0.68969624298E+02 -0.98770551181E+02 -0.15320089506E+03  0.20499396679E+03  0.63557700673E+02 0.  0.
        -13    1    4    4    0    0 -0.39013620331E+02 -0.82480464039E+01 -0.56832836622E+02  0.69426681898E+02  0.00000000000E+00 0.  1.
         14    1    4    4    0    0 -0.29956003967E+02 -0.90522504777E+02 -0.96368058437E+02  0.13556728489E+03  0.00000000000E+00 0. -1.
        -13    1    3    3    0    0 -0.48811335158E+02  0.40920165154E+00  0.11648334689E+02  0.50183638638E+02  0.00000000000E+00 0.  1.
         13    1    3    3    0    0 -0.73661016479E+01 -0.25422062645E+02 -0.68378805427E+02  0.73322586931E+02  0.00000000000E+00 0. -1.
          1    1    1    2  501    0  0.12514706110E+03  0.12378341217E+03  0.92330854088E+02  0.19876897809E+03  0.00000000000E+00 0. -1.
<scales pt_clust_5="13000.00000" pt_clust_6="13000.00000" pt_clust_7="13000.00000" pt_clust_8="13000.00000" pt_clust_9="13000.00000"></scales>
<clustering>
<clus scale="   63.558">  5  6 -1 -1</clus>
<clus scale="   90.851">  7  8 -1 -1</clus>
<clus scale="  109.706">  2  7  1 -1</clus>
<clus scale="  162.920">  5  9 -1 -1</clus>
<clus scale="  399.148">  1  5  2 -1</clus>
</clustering>
</event>
<event>
 9    2  0.6085395E-005  0.3854214E+03  0.7546771E-02  0.1091230E+00
          2   -1    0    0  502    0 -0.00000000000E+00  0.00000000000E+00  0.39477366188E+03  0.39477366188E+03  0.00000000000E+00 0. -1.
         21   -1    0    0  501  502  0.00000000000E+00 -0.00000000000E+00 -0.22999402465E+03  0.22999402465E+03  0.00000000000E+00 0. -1.
         23    2    1    2    0    0 -0.30984472199E+02 -0.73934734534E+02  0.20433955213E+03  0.23732140973E+03  0.90224256501E+02 0.  0.
         24    2    1    2    0    0 -0.76685547636E+02 -0.11918181874E+03 -0.32619514737E+02  0.16623369697E+03  0.80527201183E+02 0.  0.
        -13    1    4    4    0    0 -0.14213702764E+01 -0.27405105328E+02  0.22387346904E+02  0.35415440035E+02  0.00000000000E+00 0.  1.
         14    1    4    4    0    0 -0.75264177359E+02 -0.91776713416E+02 -0.55006861641E+02  0.13081825693E+03  0.00000000000E+00 0. -1.
        -13    1    3    3    0    0 -0.14056271616E+01 -0.51961323809E+02  0.19129745128E+03  0.19823387658E+03  0.00000000000E+00 0. -1.
         13    1    3    3    0    0 -0.29578845037E+02 -0.21973410725E+02  0.13042100855E+02  0.39087533145E+02  0.00000000000E+00 0.  1.
          1    1    1    2  501    0  0.10767001983E+03  0.19311655328E+03 -0.69404001625E+01  0.22121257983E+03  0.00000000000E+00 0. -1.
<scales pt_clust_5="13000.00000" pt_clust_6="13000.00000" pt_clust_7="13000.00000" pt_clust_8="13000.00000" pt_clust_9="13000.00000"></scales>
<clustering>
<clus scale="   80.527">  5  6 -1 -1</clus>
<clus scale="   90.224">  7  8 -1 -1</clus>
<clus scale="  120.693">  1  7  2 -1</clus>
<clus scale="  172.124">  5  9 -1 -1</clus>
<clus scale="  385.421">  2  5  1 -1</clus>
</clustering>
</event>
<event>
 9    2  0.6085395E-005  0.3428303E+03  0.7546771E-02  0.1079996E+00
         21   -1    0    0  501  502  0.00000000000E+00  0.00000000000E+00  0.48692517685E+02  0.48692517685E+02  0.00000000000E+00 0. -1.
          2   -1    0    0  502    0 -0.00000000000E+00 -0.00000000000E+00 -0.16948389410E+04  0.16948389410E+04  0.00000000000E+00 0. -1.
         23    2    1    2    0    0 -0.15747503136E+03 -0.14497389535E+03 -0.69335358405E+03  0.73093736069E+03  0.87831753419E+02 0.  0.
         24    2    1    2    0    0 -0.29897775575E+02 -0.14079026288E+02 -0.36776902270E+03  0.37803971371E+03  0.81042427876E+02 0.  0.
        -11    1    4    4    0    0 -0.46723881363E+02  0.16447913090E+02 -0.16423190302E+03  0.17153942085E+03  0.00000000000E+00 0.  1.
         12    1    4    4    0    0  0.16826105789E+02 -0.30526939379E+02 -0.20353711968E+03  0.20650029286E+03  0.00000000000E+00 0. -1.
        -11    1    3    3    0    0 -0.22350612944E+02 -0.76823774644E+02 -0.23529714670E+03  0.24852804569E+03  0.00000000000E+00 0.  1.
         11    1    3    3    0    0 -0.13512441842E+03 -0.68150120708E+02 -0.45805643735E+03  0.48240931500E+03  0.00000000000E+00 0. -1.
          1    1    1    2  501    0  0.18737280694E+03  0.15905292164E+03 -0.58502381656E+03  0.63455438427E+03  0.00000000000E+00 0. -1.
<scales pt_clust_5="13000.00000" pt_clust_6="13000.00000" pt_clust_7="13000.00000" pt_clust_8="13000.00000" pt_clust_9="13000.00000"></scales>
<clustering>
<clus scale="   81.042">  5  6 -1 -1</clus>
<clus scale="   87.832">  7  8 -1 -1</clus>
<clus scale="  231.366">  2  7  1 -1</clus>
<clus scale="  113.189">  5  9 -1 -1</clus>
<clus scale="  342.830">  1  5  2 -1</clus>
</clustering>
</event>
<event>
 9    2  0.6085395E-005  0.2985423E+03  0.7546771E-02  0.1111951E+00
         21   -1    0    0  501  502  0.00000000000E+00  0.00000000000E+00  0.77441078873E+02  0.77441078873E+02  0.00000000000E+00 0. -1.
          2   -1    0    0  502    0 -0.00000000000E+00 -0.00000000000E+00 -0.70093070149E+03  0.70093070149E+03  0.00000000000E+00 0. -1.
         23    2    1    2    0    0  0.95634817227E+02 -0.73467110727E+02 -0.31138367849E+03  0.34647175346E+03  0.92409123434E+02 0.  0.
         24    2    1    2    0    0  0.10341939552E+02  0.11329603921E+03 -0.53100574674E+02  0.14923202742E+03  0.80669565295E+02 0.  0.
        -11    1    4    4    0    0  0.18704330527E+02  0.57635482268E+02 -0.67927536342E+02  0.91026649890E+02  0.00000000000E+00 0.  1.
         12    1    4    4    0    0 -0.83623909750E+01  0.55660556939E+02  0.14826961668E+02  0.58205377534E+02  0.00000000000E+00 0. -1.
        -13    1    3    3    0    0  0.21870135647E+02  0.90786601828E+01 -0.10563934872E+02  0.25929165507E+02  0.00000000000E+00 0.  1.
         13    1    3    3    0    0  0.73764681580E+02 -0.82545770909E+02 -0.30081974361E+03  0.32054258795E+03  0.00000000000E+00 0. -1.
          1    1    1    2  501    0 -0.10597675678E+03 -0.39828928480E+02 -0.25900536945E+03  0.28266799947E+03  0.00000000000E+00 0. -1.
<scales pt_clust_5="13000.00000" pt_clust_6="13000.00000" pt_clust_7="13000.00000" pt_clust_8="13000.00000" pt_clust_9="13000.00000"></scales>
<clustering>
<clus scale="   80.670">  5  6 -1 -1</clus>
<clus scale="   92.409">  7  8 -1 -1</clus>
<clus scale="  113.214">  5  9 -1 -1</clus>
<clus scale="  151.931">  2  7  1 -1</clus>
<clus scale="  298.542">  1  5  2 -1</clus>
</clustering>
</event>
<event>
 9    2  0.6085395E-005  0.2610762E+03  0.7546771E-02  0.1112807E+00
         21   -1    0    0  501  502  0.00000000000E+00  0.00000000000E+00  0.52018124239E+03  0.52018124239E+03  0.00000000000E+00 0. -1.
          2   -1    0    0  502    0 -0.00000000000E+00 -0.00000000000E+00 -0.18381756433E+03  0.18381756433E+03  0.00000000000E+00 0. -1.
         23    2    1    2    0    0 -0.32429680962E+01  0.20220063387E+03  0.37907848129E+03  0.43945142267E+03  0.92311671669E+02 0.  0.
         24    2    1    2    0    0  0.47342028165E+01 -0.30947133746E+02  0.61823164266E+01  0.86443724914E+02  0.80337779264E+02 0.  0.
        -11    1    4    4    0    0 -0.23748166219E+02 -0.46366799055E+02 -0.46254741660E+01  0.52299622032E+02  0.00000000000E+00 0.  1.
         12    1    4    4    0    0  0.28482369035E+02  0.15419665310E+02  0.10807790593E+02  0.34144102882E+02  0.00000000000E+00 0. -1.
        -11    1    3    3    0    0  0.21429742360E+02  0.26490342200E+02  0.21551131915E+02  0.40316539711E+02  0.00000000000E+00 0.  1.
         11    1    3    3    0    0 -0.24672710456E+02  0.17571029167E+03  0.35752734938E+03  0.39913488296E+03  0.00000000000E+00 0. -1.
          1    1    1    2  501    0 -0.14912347203E+01 -0.17125350012E+03 -0.48897119658E+02  0.17810365913E+03  0.00000000000E+00 0. -1.
<scales pt_clust_5="13000.00000" pt_clust_6="13000.00000" pt_clust_7="13000.00000" pt_clust_8="13000.00000" pt_clust_9="13000.00000"></scales>
<clustering>
<clus scale="   80.338">  5  6 -1 -1</clus>
<clus scale="   92.312">  7  8 -1 -1</clus>
<clus scale="  171.260">  5  9 -1 -1</clus>
<clus scale="  222.300">  2  7  1 -1</clus>
<clus scale="  261.076">  1  5  2 -1</clus>
</clustering>
</event>
<event>
 9    2  0.6085395E-005  0.2491689E+03  0.7546771E-02  0.1148971E+00
         -1   -1    0    0    0  501 -0.00000000000E+00  0.00000000000E+00  0.68555560990E+03  0.68555560990E+03  0.00000000000E+00 0.  1.
         21   -1    0    0  501  502  0.00000000000E+00 -0.00000000000E+00 -0.46191880561E+02  0.46191880561E+02  0.00000000000E+00 0. -1.
         23    2    1    2    0    0 -0.97028124794E+01 -0.52934619550E+02  0.22071330905E+03  0.24455826945E+03  0.90543712347E+02 0.  0.
         24    2    1    2    0    0  0.57965619784E+02 -0.62808778307E+02  0.15158291479E+03  0.19214535104E+03  0.81470854673E+02 0.  0.
        -13    1    4    4    0    0  0.63384106406E+02 -0.40000047753E+02  0.15113341254E+03  0.16869753155E+03  0.00000000000E+00 0.  1.
         14    1    4    4    0    0 -0.54184866222E+01 -0.22808730554E+02  0.44950225410E+00  0.23447819494E+02  0.00000000000E+00 0. -1.
        -13    1    3    3    0    0  0.18164362394E+02  0.16161681354E+02  0.98236051253E+02  0.10120012733E+03  0.00000000000E+00 0. -1.
         13    1    3    3    0    0 -0.27867174874E+02 -0.69096300904E+02  0.12247725780E+03  0.14335814212E+03  0.00000000000E+00 0.  1.
         -2    1    1    2    0  502 -0.48262807304E+02  0.11574339786E+03  0.26706750550E+03  0.29504386997E+03  0.00000000000E+00 0.  1.
<scales pt_clust_5="13000.00000" pt_clust_6="13000.00000" pt_clust_7="13000.00000" pt_clust_8="13000.00000" pt_clust_9="13000.00000"></scales>
<clustering>
<clus scale="   81.471">  5  6 -1 -1</clus>
<clus scale="   90.544">  7  8 -1 -1</clus>
<clus scale="  105.330">  1  7  2 -1</clus>
<clus scale="   99.088">  5  9 -1 -1</clus>
<clus scale="  249.169">  2  5  1 -1</clus>
</clustering>
</event>
<event>
 9    2  0.6085395E-005  0.1693072E+03  0.7546771E-02  0.1190189E+00
          4   -1    0    0  502    0 -0.00000000000E+00  0.00000000000E+00  0.20868465840E+03  0.20868465840E+03  0.00000000000E+00 0. -1.
         21   -1    0    0  501  502  0.00000000000E+00 -0.00000000000E+00 -0.11321876312E+03  0.11321876312E+03  0.00000000000E+00 0.  1.
         23    2    1    2    0    0 -0.56924765691E+02  0.72869540289E+02  0.69132287002E+01  0.13083664697E+03  0.92304044373E+02 0.  0.
         24    2    1    2    0    0  0.22543910066E+02 -0.32680212182E+02  0.19423562452E+01  0.89584898425E+02  0.80283604358E+02 0.  0.
        -13    1    4    4    0    0  0.46980604807E+02 -0.40837038036E+02  0.89459859211E+01  0.62887769619E+02  0.00000000000E+00 0.  1.
         14    1    4    4    0    0 -0.24436694741E+02  0.81568258532E+01 -0.70036296759E+01  0.26697128806E+02  0.00000000000E+00 0. -1.
        -13    1    3    3    0    0 -0.73677191217E+02  0.22515639054E+02  0.99590223218E+01  0.77681816619E+02  0.00000000000E+00 0.  1.
         13    1    3    3    0    0  0.16752425525E+02  0.50353901235E+02 -0.30457936216E+01  0.53154830348E+02  0.00000000000E+00 0. -1.
          3    1    1    2  501    0  0.34380855625E+02 -0.40189328106E+02  0.86610310328E+02  0.10148187613E+03  0.00000000000E+00 0. -1.
<scales pt_clust_5="13000.00000" pt_clust_6="13000.00000" pt_clust_7="13000.00000" pt_clust_8="13000.00000" pt_clust_9="13000.00000"></scales>
<clustering>
<clus scale="   80.284">  5  6 -1 -1</clus>
<clus scale="   52.889">  5  9 -1 -1</clus>
<clus scale="   92.304">  7  8 -1 -1</clus>
<clus scale="  130.654">  1  7  2 -1</clus>
<clus scale="  169.307">  2  5  1 -1</clus>
</clustering>
</event>
<event>
 9    2  0.6085395E-005  0.2362791E+03  0.7546771E-02  0.1156186E+00
         21   -1    0    0  501  502  0.00000000000E+00  0.00000000000E+00  0.56785549863E+03  0.56785549863E+03  0.00000000000E+00 0. -1.
          2   -1    0    0  502    0 -0.00000000000E+00 -0.00000000000E+00 -0.56085001516E+02  0.56085001516E+02  0.00000000000E+00 0. -1.
         23    2    1    2    0    0 -0.54628480211E+02 -0.19632126455E+02  0.25251770936E+03  0.27317015004E+03  0.86527718656E+02 0.  0.
         24    2    1    2    0    0 -0.33861488760E+02 -0.44724386925E+02  0.39118199155E+02  0.10494221396E+03  0.79597509748E+02 0.  0.
        -11    1    4    4    0    0 -0.20246651608E+02 -0.67085963672E+02  0.35369614396E+02  0.78494987392E+02  0.00000000000E+00 0.  1.
         12    1    4    4    0    0 -0.13614837152E+02  0.22361576747E+02  0.37485847584E+01  0.26447226565E+02  0.00000000000E+00 0. -1.
        -13    1    3    3    0    0 -0.18291562552E+02 -0.50993592394E+02  0.10686966149E+03  0.11981674454E+03  0.00000000000E+00 0.  1.
         13    1    3    3    0    0 -0.36336917659E+02  0.31361465939E+02  0.14564804787E+03  0.15335340550E+03  0.00000000000E+00 0. -1.
          1    1    1    2  501    0  0.88489968971E+02  0.64356513380E+02  0.22013458860E+03  0.24582813615E+03  0.00000000000E+00 0. -1.
<scales pt_clust_5="13000.00000" pt_clust_6="13000.00000" pt_clust_7="13000.00000" pt_clust_8="13000.00000" pt_clust_9="13000.00000"></scales>
<clustering>
<clus scale="   79.598">  5  6 -1 -1</clus>
<clus scale="   86.528">  7  8 -1 -1</clus>
<clus scale="  104.196">  2  7  1 -1</clus>
<clus scale="   93.883">  5  9 -1 -1</clus>
<clus scale="  236.279">  1  5  2 -1</clus>
</clustering>
</event>
<event>
 9    2  0.6085395E-005  0.1456492E+03  0.7546771E-02  0.1226227E+00
          2   -1    0    0  502    0 -0.00000000000E+00  0.00000000000E+00  0.46675996241E+03  0.46675996241E+03  0.00000000000E+00 0. -1.
         21   -1    0    0  501  502  0.00000000000E+00 -0.00000000000E+00 -0.47265171712E+02  0.47265171712E+02  0.00000000000E+00 0. -1.
         23    2    1    2    0    0 -0.21392324982E+02 -0.16490080357E+02  0.32936641598E+03  0.34274516760E+03  0.90898072686E+02 0.  0.
         24    2    1    2    0    0 -0.18826457500E+02  0.13458133262E+02  0.98802205529E+02  0.13002492430E+03  0.81296053226E+02 0.  0.
        -11    1    4    4    0    0  0.24114530705E+02 -0.28241747838E+01  0.73894338110E+02  0.77780844422E+02  0.00000000000E+00 0.  1.
         12    1    4    4    0    0 -0.42940988205E+02  0.16282308046E+02  0.24907867419E+02  0.52244079882E+02  0.00000000000E+00 0. -1.
        -11    1    3    3    0    0  0.18726475880E+02 -0.42460944049E+02  0.14260787672E+03  0.14996872731E+03  0.00000000000E+00 0.  1.
         11    1    3    3    0    0 -0.40118800862E+02  0.25970863693E+02  0.18675853927E+03  0.19277644029E+03  0.00000000000E+00 0. -1.
          1    1    1    2  501    0  0.40218782482E+02  0.30319470944E+01 -0.86738308123E+01  0.41255042219E+02  0.00000000000E+00 0. -1.
<scales pt_clust_5="13000.00000" pt_clust_6="13000.00000" pt_clust_7="13000.00000" pt_clust_8="13000.00000" pt_clust_9="13000.00000"></scales>
<clustering>
<clus scale="   81.296">  5  6 -1 -1</clus>
<clus scale="   40.333">  5  9 -1 -1</clus>
<clus scale="   90.898">  7  8 -1 -1</clus>
<clus scale="   94.826">  1  7  2 -1</clus>
<clus scale="  145.649">  2  5  1 -1</clus>
</clustering>
</event>
<event>
 9    2  0.6085395E-005  0.3809960E+03  0.7546771E-02  0.1074531E+00
         -1   -1    0    0    0  501 -0.00000000000E+00  0.00000000000E+00  0.20848245507E+03  0.20848245507E+03  0.00000000000E+00 0.  1.
         21   -1    0    0  501  502  0.00000000000E+00 -0.00000000000E+00 -0.40323816637E+03  0.40323816637E+03  0.00000000000E+00 0.  1.
         23    2    1    2    0    0  0.87841737903E+02  0.14876791606E+03 -0.97924383168E+02  0.21861217695E+03  0.91400412059E+02 0.  0.
         24    2    1    2    0    0  0.15311956619E+02 -0.25840402550E+02  0.10479164487E+03  0.13541932654E+03  0.80342533856E+02 0.  0.
        -13    1    4    4    0    0  0.94577477604E+01  0.26542445372E+02  0.59852711636E+02  0.66153590146E+02  0.00000000000E+00 0.  1.
         14    1    4    4    0    0  0.58542088588E+01 -0.52382847923E+02  0.44938933230E+02  0.69265736391E+02  0.00000000000E+00 0. -1.
        -11    1    3    3    0    0  0.49447989135E+02  0.13104120863E+03 -0.37739365360E+02  0.14505571925E+03  0.00000000000E+00 0.  1.
         11    1    3    3    0    0  0.38393748768E+02  0.17726707429E+02 -0.60185017808E+02  0.73556457699E+02  0.00000000000E+00 0. -1.
         -2    1    1    2    0  502 -0.10315369452E+03 -0.12292751351E+03 -0.20162297300E+03  0.25768911796E+03  0.00000000000E+00 0.  1.
<scales pt_clust_5="13000.00000" pt_clust_6="13000.00000" pt_clust_7="13000.00000" pt_clust_8="13000.00000" pt_clust_9="13000.00000"></scales>
<clustering>
<clus scale="   80.343">  5  6 -1 -1</clus>
<clus scale="   91.400">  7  8 -1 -1</clus>
<clus scale="  160.474">  5  9 -1 -1</clus>
<clus scale="  195.454">  1  7  2 -1</clus>
<clus scale="  380.996">  2  5  1 -1</clus>
</clustering>
</event>
<event>
 9    2  0.6085395E-005  0.2672800E+03  0.7546771E-02  0.1143947E+00
          2   -1    0    0  502    0 -0.00000000000E+00  0.00000000000E+00  0.11739428167E+03  0.11739428167E+03  0.00000000000E+00 0. -1.
         21   -1    0    0  501  502  0.00000000000E+00 -0.00000000000E+00 -0.33391732066E+03  0.33391732066E+03  0.00000000000E+00 0. -1.
         23    2    1    2    0    0  0.27617722073E+02  0.18461263464E+02  0.15420403945E+02  0.97424084594E+02  0.90277940716E+02 0.  0.
         24    2    1    2    0    0  0.52832275738E+02  0.32579366838E+02  0.87013455136E+00  0.10233332883E+03  0.81355322827E+02 0.  0.
        -13    1    4    4    0    0  0.16553290149E+02 -0.27382642753E+02  0.35883335316E+01  0.32197774402E+02  0.00000000000E+00 0.  1.
         14    1    4    4    0    0  0.36278985588E+02  0.59962009591E+02 -0.27181989802E+01  0.70135554430E+02  0.00000000000E+00 0. -1.
        -11    1    3    3    0    0 -0.32670275940E+02  0.14547368304E+02  0.66536770488E+01  0.36376424685E+02  0.00000000000E+00 0. -1.
         11    1    3    3    0    0  0.60287998014E+02  0.39138951596E+01  0.87667268966E+01  0.61047659908E+02  0.00000000000E+00 0.  1.
          1    1    1    2  501    0 -0.80449997811E+02 -0.51040630302E+02 -0.23281357750E+03  0.25155418890E+03  0.00000000000E+00 0. -1.
<scales pt_clust_5="13000.00000" pt_clust_6="13000.00000" pt_clust_7="13000.00000" pt_clust_8="13000.00000" pt_clust_9="13000.00000"></scales>
<clustering>
<clus scale="   81.355">  5  6 -1 -1</clus>
<clus scale="   90.278">  7  8 -1 -1</clus>
<clus scale="   95.275">  5  9 -1 -1</clus>
<clus scale="   96.196">  1  7  2 -1</clus>
<clus scale="  267.280">  2  5  1 -1</clus>
</clustering>
</event>
<event>
 9    2  0.6085395E-005  0.5786817E+03  0.7546771E-02  0.1055537E+00
          2   -1    0    0  502    0 -0.00000000000E+00  0.00000000000E+00  0.41397872882E+03  0.41397872882E+03  0.00000000000E+00 0. -1.
         21   -1    0    0  501  502  0.00000000000E+00 -0.00000000000E+00 -0.27997272246E+03  0.27997272246E+03  0.00000000000E+00 0. -1.
         23    2    1    2    0    0  0.33322951365E+02 -0.59878900850E+01 -0.16860753183E+02  0.95926942717E+02  0.88155654531E+02 0.  0.
         24    2    1    2    0    0 -0.30837327110E+02 -0.20111159834E+03 -0.12585128253E+03  0.25238126583E+03  0.80379986933E+02 0.  0.
        -11    1    4    4    0    0  0.10692503363E+02 -0.21637164870E+02  0.71474825995E+01  0.25171075450E+02  0.00000000000E+00 0.  1.
         12    1    4    4    0    0 -0.41529830473E+02 -0.17947443347E+03 -0.13299876513E+03  0.22721019038E+03  0.00000000000E+00 0. -1.
        -11    1    3    3    0    0  0.54361161485E+02 -0.25585622660E+02  0.42886709541E+01  0.60234148649E+02  0.00000000000E+00 0. -1.
         11    1    3    3    0    0 -0.21038210120E+02  0.19597732575E+02 -0.21149424137E+02  0.35692794069E+02  0.00000000000E+00 0.  1.
          1    1    1    2  501    0 -0.24856242546E+01  0.20709948842E+03  0.27671804208E+03  0.34564324273E+03  0.00000000000E+00 0. -1.
<scales pt_clust_5="13000.00000" pt_clust_6="13000.00000" pt_clust_7="13000.00000" pt_clust_8="13000.00000" pt_clust_9="13000.00000"></scales>
<clustering>
<clus scale="   80.380">  5  6 -1 -1</clus>
<clus scale="   88.156">  7  8 -1 -1</clus>
<clus scale="   94.434">  1  7  2 -1</clus>
<clus scale="  203.689">  5  9 -1 -1</clus>
<clus scale="  578.682">  2  5  1 -1</clus>
</clustering>
</event>
<event>
 9    2  0.6085395E-005  0.1304713E+03  0.7546771E-02  0.1248652E+00
         21   -1    0    0  501  502  0.00000000000E+00  0.00000000000E+00  0.86698947886E+02  0.86698947886E+02  0.00000000000E+00 0.  1.
         -3   -1    0    0    0  501 -0.00000000000E+00 -0.00000000000E+00 -0.32757078100E+03  0.32757078100E+03  0.00000000000E+00 0.  1.
         23    2    1    2    0    0 -0.20944043008E+02  0.17372918136E+02 -0.26826150626E+03  0.28095444772E+03  0.78934749830E+02 0.  0.
         24    2    1    2    0    0 -0.90772137871E+01 -0.13061261144E+02  0.49873901567E+02  0.95560721529E+02  0.79946563960E+02 0.  0.
        -13    1    4    4    0    0 -0.11975006693E+02 -0.41414326127E+02  0.51318469426E+02  0.67023372774E+02  0.00000000000E+00 0.  1.
         14    1    4    4    0    0  0.28977929057E+01  0.28353064983E+02 -0.14445678590E+01  0.28537348755E+02  0.00000000000E+00 0. -1.
        -11    1    3    3    0    0 -0.23331829655E+02  0.41836815256E+02 -0.23360634730E+03  0.23846722811E+03  0.00000000000E+00 0.  1.
         11    1    3    3    0    0  0.23877866468E+01 -0.24463897120E+02 -0.34655158969E+02  0.42487219614E+02  0.00000000000E+00 0. -1.
         -4    1    1    2    0  502  0.30021256795E+02 -0.43116569922E+01 -0.22484228418E+02  0.37754559634E+02  0.00000000000E+00 0.  1.
<scales pt_clust_5="13000.00000" pt_clust_6="13000.00000" pt_clust_7="13000.00000" pt_clust_8="13000.00000" pt_clust_9="13000.00000"></scales>
<clustering>
<clus scale="   78.935">  7  8 -1 -1</clus>
<clus scale="   79.947">  5  6 -1 -1</clus>
<clus scale="   30.329">  5  9 -1 -1</clus>
<clus scale="   83.494">  2  7  1 -1</clus>
<clus scale="  130.471">  1  5  2 -1</clus>
</clustering>
</event>
<event>
 9    2  0.6085395E-005  0.1589916E+03  0.7546771E-02  0.1207095E+00
         21   -1    0    0  501  502  0.00000000000E+00  0.00000000000E+00  0.18556389623E+03  0.18556389623E+03  0.00000000000E+00 0.  1.
         -1   -1    0    0    0  501 -0.00000000000E+00 -0.00000000000E+00 -0.12068319549E+03  0.12068319549E+03  0.00000000000E+00 0.  1.
         23    2    1    2    0    0 -0.50857545482E+02 -0.31814548305E+02 -0.39432055685E+02  0.11609062819E+03  0.91233171176E+02 0.  0.
         24    2    1    2    0    0  0.28262370777E+02  0.61524232995E+02  0.10962164248E+03  0.15245511666E+03  0.81496412486E+02 0.  0.
        -13    1    4    4    0    0 -0.32196891959E+01  0.61242819230E+02  0.10361491993E+03  0.12040390748E+03  0.00000000000E+00 0.  1.
         14    1    4    4    0    0  0.31482059973E+02  0.28141376498E+00  0.60067225532E+01  0.32051209177E+02  0.00000000000E+00 0. -1.
        -11    1    3    3    0    0 -0.43865375365E+02 -0.54222659083E+02 -0.54225692221E+02  0.88344177006E+02  0.00000000000E+00 0.  1.
         11    1    3    3    0    0 -0.69921701170E+01  0.22408110779E+02  0.14793636536E+02  0.27746451189E+02  0.00000000000E+00 0. -1.
         -2    1    1    2    0  502  0.22595174705E+02 -0.29709684691E+02 -0.53088860600E+01  0.37701346867E+02  0.00000000000E+00 0.  1.
<scales pt_clust_5="13000.00000" pt_clust_6="13000.00000" pt_clust_7="13000.00000" pt_clust_8="13000.00000" pt_clust_9="13000.00000"></scales>
<clustering>
<clus scale="   81.496">  5  6 -1 -1</clus>
<clus scale="   37.326">  5  9 -1 -1</clus>
<clus scale="   91.233">  7  8 -1 -1</clus>
<clus scale="  109.189">  2  7  1 -1</clus>
<clus scale="  158.992">  1  5  2 -1</clus>
</clustering>
</event>
<event>
 9    2  0.6085395E-005  0.3097773E+03  0.7546771E-02  0.1098038E+00
         21   -1    0    0  501  502  0.00000000000E+00  0.00000000000E+00  0.50398969379E+02  0.50398969379E+02  0.00000000000E+00 0. -1.
          2   -1    0    0  502    0 -0.00000000000E+00 -0.00000000000E+00 -0.13341690592E+04  0.13341690592E+04  0.00000000000E+00 0. -1.
         23    2    1    2    0    0 -0.15835466560E+03 -0.63258277984E+02 -0.66089813888E+03  0.68891622613E+03  0.93495490800E+02 0.  0.
         24    2    1    2    0    0 -0.48429436275E+02 -0.52748376735E+01 -0.17335442585E+03  0.19612957261E+03  0.77729132782E+02 0.  0.
        -11    1    4    4    0    0 -0.15438357597E+02 -0.20805111143E+02 -0.15132769258E+03  0.15352936552E+03  0.00000000000E+00 0.  1.
         12    1    4    4    0    0 -0.32991078677E+02  0.15530273469E+02 -0.22026733268E+02  0.42600207098E+02  0.00000000000E+00 0. -1.
        -13    1    3    3    0    0 -0.48303601667E+02 -0.30907488653E+02 -0.90799129888E+02  0.10739177239E+03  0.00000000000E+00 0. -1.
         13    1    3    3    0    0 -0.11005106393E+03 -0.32350789331E+02 -0.57009900899E+03  0.58152445374E+03  0.00000000000E+00 0.  1.
          1    1    1    2  501    0  0.20678410187E+03  0.68533115657E+02 -0.44951752505E+03  0.49952222979E+03  0.00000000000E+00 0. -1.
<scales pt_clust_5="13000.00000" pt_clust_6="13000.00000" pt_clust_7="13000.00000" pt_clust_8="13000.00000" pt_clust_9="13000.00000"></scales>
<clustering>
<clus scale="   77.729">  5  6 -1 -1</clus>
<clus scale="   93.495">  7  8 -1 -1</clus>
<clus scale="  194.472">  2  7  1 -1</clus>
<clus scale="   95.612">  5  9 -1 -1</clus>
<clus scale="  309.777">  1  5  2 -1</clus>
</clustering>
</event>
<event>
 9    2  0.6085395E-005  0.4040534E+03  0.7546771E-02  0.1092831E+00
         21   -1    0    0  501  502  0.00000000000E+00  0.00000000000E+00  0.17582261300E+03  0.17582261300E+03  0.00000000000E+00 0. -1.
          2   -1    0    0  502    0 -0.00000000000E+00 -0.00000000000E+00 -0.54418836192E+03  0.54418836192E+03  0.00000000000E+00 0. -1.
         23    2    1    2    0    0  0.45851767069E+02 -0.17814286188E+02 -0.29202096676E+03  0.30880827263E+03  0.87558956605E+02 0.  0.
         24    2    1    2    0    0  0.16261815473E+03  0.35864915255E+02 -0.80581560674E+02  0.20190988398E+03  0.80890400753E+02 0.  0.
        -13    1    4    4    0    0  0.12744969602E+03 -0.45904898519E+01 -0.75158962866E+02  0.14803164294E+03  0.00000000000E+00 0.  1.
         14    1    4    4    0    0  0.35168458707E+02  0.40455405107E+02 -0.54225978078E+01  0.53878241037E+02  0.00000000000E+00 0. -1.
        -11    1    3    3    0    0  0.98238424546E+01  0.23754925103E+02 -0.23891921712E+02  0.35094561834E+02  0.00000000000E+00 0.  1.
         11    1    3    3    0    0  0.36027924614E+02 -0.41569211292E+02 -0.26812904504E+03  0.27371371079E+03  0.00000000000E+00 0. -1.
          1    1    1    2  501    0 -0.20846992180E+03 -0.18050629067E+02  0.42367785133E+01  0.20929281831E+03  0.00000000000E+00 0. -1.
<scales pt_clust_5="13000.00000" pt_clust_6="13000.00000" pt_clust_7="13000.00000" pt_clust_8="13000.00000" pt_clust_9="13000.00000"></scales>
<clustering>
<clus scale="   80.890">  5  6 -1 -1</clus>
<clus scale="   87.559">  7  8 -1 -1</clus>
<clus scale="  100.431">  2  7  1 -1</clus>
<clus scale="  190.902">  5  9 -1 -1</clus>
<clus scale="  404.053">  1  5  2 -1</clus>
</clustering>
</event>
<event>
 9    2  0.6085395E-005  0.6656697E+03  0.7546771E-02  0.1037115E+00
         -3   -1    0    0    0  501 -0.00000000000E+00  0.00000000000E+00  0.50887651563E+03  0.50887651563E+03  0.00000000000E+00 0.  1.
         21   -1    0    0  501  502  0.00000000000E+00 -0.00000000000E+00 -0.34294502420E+03  0.34294502420E+03  0.00000000000E+00 0. -1.
         23    2    1    2    0    0  0.48924371718E+02 -0.17585693907E+02 -0.90093994167E+02  0.13861384467E+03  0.91618881085E+02 0.  0.
         24    2    1    2    0    0 -0.35060176248E+02 -0.28920428877E+03 -0.16793241862E+02  0.30242506718E+03  0.79439106781E+02 0.  0.
        -13    1    4    4    0    0 -0.40291971616E+02 -0.90829693739E+02  0.17919703389E+02  0.10096827230E+03  0.00000000000E+00 0.  1.
         14    1    4    4    0    0  0.52317953676E+01 -0.19837459503E+03 -0.34712945252E+02  0.20145679489E+03  0.00000000000E+00 0. -1.
        -13    1    3    3    0    0 -0.99137937254E+01 -0.28698452407E+02 -0.68557634552E+02  0.74980222272E+02  0.00000000000E+00 0. -1.
         13    1    3    3    0    0  0.58838165443E+02  0.11112758500E+02 -0.21536359615E+02  0.63633622399E+02  0.00000000000E+00 0.  1.
         -4    1    1    2    0  502 -0.13864195469E+02  0.30678998268E+03  0.27281872747E+03  0.41078262797E+03  0.00000000000E+00 0.  1.
<scales pt_clust_5="13000.00000" pt_clust_6="13000.00000" pt_clust_7="13000.00000" pt_clust_8="13000.00000" pt_clust_9="13000.00000"></scales>
<clustering>
<clus scale="   79.439">  5  6 -1 -1</clus>
<clus scale="   91.619">  7  8 -1 -1</clus>
<clus scale="  105.342">  1  7  2 -1</clus>
<clus scale="  295.110">  5  9 -1 -1</clus>
<clus scale="  665.670">  2  5  1 -1</clus>
</clustering>
</event>
<event>
 9    2  0.6085395E-005  0.2314555E+03  0.7546771E-02  0.1155659E+00
         -1   -1    0    0    0  501 -0.00000000000E+00  0.00000000000E+00  0.42765886566E+03  0.42765886566E+03  0.00000000000E+00 0.  1.
         21   -1    0    0  501  502  0.00000000000E+00 -0.00000000000E+00 -0.73493361346E+02  0.73493361346E+02  0.00000000000E+00 0.  1.
         23    2    1    2    0    0 -0.63292329300E+02 -0.11328294648E+02  0.17740024559E+03  0.20991760917E+03  0.91979923329E+02 0.  0.
         24    2    1    2    0    0 -0.44241152511E+02 -0.48411793271E+02  0.52746702796E+02  0.11655511123E+03  0.80634347483E+02 0.  0.
        -13    1    4    4    0    0 -0.47878703816E+02 -0.15542008879E+02 -0.43992900806E+01  0.50529972020E+02  0.00000000000E+00 0.  1.
         14    1    4    4    0    0  0.36375513049E+01 -0.32869784392E+02  0.57145992877E+02  0.66025139208E+02  0.00000000000E+00 0. -1.
        -13    1    3    3    0    0 -0.27074869295E+02  0.39733509522E+02  0.94576051144E+02  0.10609632310E+03  0.00000000000E+00 0. -1.
         13    1    3    3    0    0 -0.36217460005E+02 -0.51061804170E+02  0.82824194449E+02  0.10382128607E+03  0.00000000000E+00 0.  1.
         -2    1    1    2    0  502  0.10753348181E+03  0.59740087919E+02  0.12401855592E+03  0.17467950661E+03  0.00000000000E+00 0.  1.
<scales pt_clust_5="13000.00000" pt_clust_6="13000.00000" pt_clust_7="13000.00000" pt_clust_8="13000.00000" pt_clust_9="13000.00000"></scales>
<clustering>
<clus scale="   80.634">  5  6 -1 -1</clus>
<clus scale="   91.980">  7  8 -1 -1</clus>
<clus scale="  112.225">  1  7  2 -1</clus>
<clus scale="   85.233">  5  9 -1 -1</clus>
<clus scale="  231.455">  2  5  1 -1</clus>
</clustering>
</event>
<event>
 9    2  0.6085395E-005  0.2333242E+03  0.7546771E-02  0.1137037E+00
         21   -1    0    0  501  502  0.00000000000E+00  0.00000000000E+00  0.68630369263E+02  0.68630369263E+02  0.00000000000E+00 0.  1.
          2   -1    0    0  502    0 -0.00000000000E+00 -0.00000000000E+00 -0.69938184887E+03  0.69938184887E+03  0.00000000000E+00 0. -1.
         23    2    1    2    0    0 -0.99148203295E+02  0.10241390612E+03 -0.42075754753E+03  0.45410515488E+03  0.94104216170E+02 0.  0.
         24    2    1    2    0    0  0.59790642654E+02  0.16522996645E+02 -0.58478193980E+02  0.11730588495E+03  0.80579408701E+02 0.  0.
        -13    1    4    4    0    0  0.21652579945E+02  0.10869486086E+02 -0.72375421342E+02  0.76322877046E+02  0.00000000000E+00 0.  1.
         14    1    4    4    0    0  0.38138062710E+02  0.56535105581E+01  0.13897227362E+02  0.40983007908E+02  0.00000000000E+00 0. -1.
        -11    1    3    3    0    0 -0.12169813424E+02  0.79842703544E+02 -0.20963830054E+03  0.22465791488E+03  0.00000000000E+00 0. -1.
         11    1    3    3    0    0 -0.86978389872E+02  0.22571202573E+02 -0.21111924699E+03  0.22944724000E+03  0.00000000000E+00 0.  1.
          1    1    1    2  501    0  0.39357560641E+02 -0.11893690276E+03 -0.15151573809E+03  0.19660117830E+03  0.00000000000E+00 0. -1.
<scales pt_clust_5="13000.00000" pt_clust_6="13000.00000" pt_clust_7="13000.00000" pt_clust_8="13000.00000" pt_clust_9="13000.00000"></scales>
<clustering>
<clus scale="   80.579">  5  6 -1 -1</clus>
<clus scale="   94.104">  7  8 -1 -1</clus>
<clus scale="  125.280">  5  9 -1 -1</clus>
<clus scale="  170.806">  2  7  1 -1</clus>
<clus scale="  233.324">  1  5  2 -1</clus>
</clustering>
</event>
<event>
 9    2  0.6085395E-005  0.4279885E+03  0.7546771E-02  0.1049206E+00
         21   -1    0    0  501  502  0.00000000000E+00  0.00000000000E+00  0.37804156264E+03  0.37804156264E+03  0.00000000000E+00 0. -1.
          2   -1    0    0  502    0 -0.00000000000E+00 -0.00000000000E+00 -0.33444449055E+03  0.33444449055E+03  0.00000000000E+00 0. -1.
         23    2    1    2    0    0 -0.73172884454E+02 -0.25404552845E+03 -0.18449895892E+02  0.28002337548E+03  0.90439430622E+02 0.  0.
         24    2    1    2    0    0 -0.38320998026E+02 -0.30971543632E+02  0.81674481671E+02  0.12578555677E+03  0.81997255636E+02 0.  0.
        -11    1    4    4    0    0 -0.26970253085E+02 -0.23121327525E+02 -0.68609171086E+01  0.36180969052E+02  0.00000000000E+00 0.  1.
         12    1    4    4    0    0 -0.11350744941E+02 -0.78502161070E+01  0.88535398779E+02  0.89604587721E+02  0.00000000000E+00 0. -1.
        -13    1    3    3    0    0 -0.41922470495E+02 -0.24027494677E+03 -0.25232235573E+02  0.24520646258E+03  0.00000000000E+00 0. -1.
         13    1    3    3    0    0 -0.31250413959E+02 -0.13770581681E+02  0.67823396812E+01  0.34816912902E+02  0.00000000000E+00 0.  1.
          1    1    1    2  501    0  0.11149388248E+03  0.28501707209E+03 -0.19627513685E+02  0.30667712093E+03  0.00000000000E+00 0. -1.
<scales pt_clust_5="13000.00000" pt_clust_6="13000.00000" pt_clust_7="13000.00000" pt_clust_8="13000.00000" pt_clust_9="13000.00000"></scales>
<clustering>
<clus scale="   81.997">  5  6 -1 -1</clus>
<clus scale="   90.439">  7  8 -1 -1</clus>
<clus scale="  279.415">  2  7  1 -1</clus>
<clus scale="   77.206">  5  9 -1 -1</clus>
<clus scale="  427.988">  1  5  2 -1</clus>
</clustering>
</event>
<event>
 9    2  0.6085395E-005  0.4787648E+03  0.7546771E-02  0.1064213E+00
         21   -1    0    0  501  502  0.00000000000E+00  0.00000000000E+00  0.88884411242E+02  0.88884411242E+02  0.00000000000E+00 0. -1.
          2   -1    0    0  502    0 -0.00000000000E+00 -0.00000000000E+00 -0.10947873491E+04  0.10947873491E+04  0.00000000000E+00 0. -1.
         23    2    1    2    0    0 -0.76708525371E+02 -0.62058411535E+02 -0.33354047045E+03  0.35827065852E+03  0.85867194094E+02 0.  0.
         24    2    1    2    0    0  0.59946012252E+02 -0.14252989043E+03 -0.57127590973E+03  0.59658710032E+03  0.75177850376E+02 0.  0.
        -13    1    4    4    0    0  0.57764977319E+01 -0.38021502589E+02 -0.55324423921E+02  0.67377996908E+02  0.00000000000E+00 0.  1.
         14    1    4    4    0    0  0.54169514520E+02 -0.10450838784E+03 -0.51595148581E+03  0.52920910342E+03  0.00000000000E+00 0. -1.
        -13    1    3    3    0    0 -0.61716624471E+02  0.51523354678E+01 -0.15966360776E+03  0.17125406839E+03  0.00000000000E+00 0.  1.
         13    1    3    3    0    0 -0.14991900900E+02 -0.67210747003E+02 -0.17387686269E+03  0.18701659013E+03  0.00000000000E+00 0. -1.
          1    1    1    2  501    0  0.16762513119E+02  0.20458830197E+03 -0.10108655772E+03  0.22881400154E+03  0.00000000000E+00 0. -1.
<scales pt_clust_5="13000.00000" pt_clust_6="13000.00000" pt_clust_7="13000.00000" pt_clust_8="13000.00000" pt_clust_9="13000.00000"></scales>
<clustering>
<clus scale="   75.178">  5  6 -1 -1</clus>
<clus scale="   85.867">  7  8 -1 -1</clus>
<clus scale="  130.800">  2  7  1 -1</clus>
<clus scale="  190.919">  5  9 -1 -1</clus>
<clus scale="  478.765">  1  5  2 -1</clus>
</clustering>
</event>
<event>
 9    2  0.6085395E-005  0.2652849E+03  0.7546771E-02  0.1139130E+00
          2   -1    0    0  502    0 -0.00000000000E+00  0.00000000000E+00  0.46395943939E+03  0.46395943939E+03  0.00000000000E+00 0. -1.
         21   -1    0    0  501  502  0.00000000000E+00 -0.00000000000E+00 -0.81442576662E+02  0.81442576662E+02  0.00000000000E+00 0.  1.
         23    2    1    2    0    0  0.17981015271E+02  0.54003954420E+02  0.18183599698E+03  0.21276270931E+03  0.94677857337E+02 0.  0.
         24    2    1    2    0    0 -0.10145359738E+03  0.42816917260E+02  0.10940079863E+03  0.17555969696E+03  0.82015557263E+02 0.  0.
        -13    1    4    4    0    0 -0.74543496309E+02  0.40287915271E+02  0.27143221730E+02  0.88975296823E+02  0.00000000000E+00 0.  1.
         14    1    4    4    0    0 -0.26910101067E+02  0.25290019898E+01  0.82257576898E+02  0.86584400140E+02  0.00000000000E+00 0. -1.
        -13    1    3    3    0    0  0.48221397769E+02  0.56898144977E+02  0.15588570334E+03  0.17280930128E+03  0.00000000000E+00 0. -1.
         13    1    3    3    0    0 -0.30240382498E+02 -0.28941905564E+01  0.25950293647E+02  0.39953408027E+02  0.00000000000E+00 0.  1.
          1    1    1    2  501    0  0.83472582104E+02 -0.96820871681E+02  0.91280067117E+02  0.15707960978E+03  0.00000000000E+00 0. -1.
<scales pt_clust_5="13000.00000" pt_clust_6="13000.00000" pt_clust_7="13000.00000" pt_clust_8="13000.00000" pt_clust_9="13000.00000"></scales>
<clustering>
<clus scale="   82.016">  5  6 -1 -1</clus>
<clus scale="   94.678">  7  8 -1 -1</clus>
<clus scale="  110.470">  1  7  2 -1</clus>
<clus scale="  116.501">  5  9 -1 -1</clus>
<clus scale="  265.285">  2  5  1 -1</clus>
</clustering>
</event>
<event>
 9    2  0.6085395E-005  0.1735129E+03  0.7546771E-02  0.1199352E+00
         21   -1    0    0  501  502  0.00000000000E+00  0.00000000000E+00  0.14782663882E+03  0.14782663882E+03  0.00000000000E+00 0. -1.
         -1   -1    0    0    0  501 -0.00000000000E+00 -0.00000000000E+00 -0.12639337890E+03  0.12639337890E+03  0.00000000000E+00 0.  1.
         23    2    1    2    0    0 -0.30309606387E+02  0.22445502944E+02 -0.70161443709E+00  0.99300938570E+02  0.91857015499E+02 0.  0.
         24    2    1    2    0    0 -0.20921152366E+02 -0.43346783123E+02 -0.30002489436E+02  0.98894353842E+02  0.81014231009E+02 0.  0.
        -13    1    4    4    0    0 -0.51148752734E+02 -0.16381584912E+02 -0.16138027271E+02  0.56080185045E+02  0.00000000000E+00 0.  1.
         14    1    4    4    0    0  0.30227600368E+02 -0.26965198211E+02 -0.13864462165E+02  0.42814168796E+02  0.00000000000E+00 0. -1.
        -11    1    3    3    0    0 -0.52673019746E+02 -0.11652754599E+02  0.14369174525E+02  0.55827474199E+02  0.00000000000E+00 0. -1.
         11    1    3    3    0    0  0.22363413359E+02  0.34098257543E+02 -0.15070788962E+02  0.43473464371E+02  0.00000000000E+00 0.  1.
         -2    1    1    2    0  502  0.51230758753E+02  0.20901280180E+02  0.52137363792E+02  0.76024725311E+02  0.00000000000E+00 0.  1.
<scales pt_clust_5="13000.00000" pt_clust_6="13000.00000" pt_clust_7="13000.00000" pt_clust_8="13000.00000" pt_clust_9="13000.00000"></scales>
<clustering>
<clus scale="   81.014">  5  6 -1 -1</clus>
<clus scale="   55.330">  5  9 -1 -1</clus>
<clus scale="   91.857">  7  8 -1 -1</clus>
<clus scale="   99.298">  2  7  1 -1</clus>
<clus scale="  173.513">  1  5  2 -1</clus>
</clustering>
</event>
<event>
 9    2  0.6085395E-005  0.2346837E+03  0.7546771E-02  0.1127679E+00
          2   -1    0    0  502    0 -0.00000000000E+00  0.00000000000E+00  0.55449882866E+03  0.55449882866E+03  0.00000000000E+00 0. -1.
         21   -1    0    0  501  502  0.00000000000E+00 -0.00000000000E+00 -0.12651923783E+03  0.12651923783E+03  0.00000000000E+00 0. -1.
         23    2    1    2    0    0 -0.75496075327E+02  0.15974462162E+03  0.38979406100E+03  0.44324808364E+03  0.11537526656E+03 0.  0.
         24    2    1    2    0    0  0.24380021725E+01 -0.14134272342E+03  0.32831422732E+02  0.16223999957E+03  0.72527276420E+02 0.  0.
        -11    1    4    4    0    0  0.18056765840E+02 -0.60279480680E+02  0.46919057111E+02  0.78492423226E+02  0.00000000000E+00 0.  1.
         12    1    4    4    0    0 -0.15618763667E+02 -0.81063242739E+02 -0.14087634378E+02  0.83747576348E+02  0.00000000000E+00 0. -1.
        -11    1    3    3    0    0  0.23915941249E+02  0.78481309538E+02  0.13623720849E+03  0.15903416353E+03  0.00000000000E+00 0.  1.
         11    1    3    3    0    0 -0.99412016576E+02  0.81263312080E+02  0.25355685252E+03  0.28421392012E+03  0.00000000000E+00 0. -1.
          1    1    1    2  501    0  0.73058073154E+02 -0.18401898199E+02  0.53541070941E+01  0.75529983272E+02  0.00000000000E+00 0. -1.
<scales pt_clust_5="13000.00000" pt_clust_6="13000.00000" pt_clust_7="13000.00000" pt_clust_8="13000.00000" pt_clust_9="13000.00000"></scales>
<clustering>
<clus scale="   72.527">  5  6 -1 -1</clus>
<clus scale="   75.340">  5  9 -1 -1</clus>
<clus scale="  115.375">  7  8 -1 -1</clus>
<clus scale="  211.020">  1  7  2 -1</clus>
<clus scale="  234.684">  2  5  1 -1</clus>
</clustering>
</event>
<event>
 9    2  0.6085395E-005  0.2125937E+03  0.7546771E-02  0.1171036E+00
         21   -1    0    0  501  502  0.00000000000E+00  0.00000000000E+00  0.51869895508E+03  0.51869895508E+03  0.00000000000E+00 0.  1.
         -1   -1    0    0    0  501 -0.00000000000E+00 -0.00000000000E+00 -0.16607476036E+03  0.16607476036E+03  0.00000000000E+00 0.  1.
         23    2    1    2    0    0 -0.12913850901E+01 -0.50506548454E+02 -0.12557910434E+03  0.16144352669E+03  0.87984781373E+02 0.  0.
         24    2    1    2    0    0  0.46575633395E+02  0.20784570564E+02  0.88669365892E+02  0.13004817263E+03  0.80305558689E+02 0.  0.
        -11    1    4    4    0    0  0.69314957470E+02  0.14872326978E+02  0.73292308999E+02  0.10196819110E+03  0.00000000000E+00 0.  1.
         12    1    4    4    0    0 -0.22739324075E+02  0.59122435858E+01  0.15377056894E+02  0.28079981523E+02  0.00000000000E+00 0. -1.
        -13    1    3    3    0    0 -0.35392382545E+02 -0.17121753825E+02 -0.99664113638E+02  0.10713874530E+03  0.00000000000E+00 0.  1.
         13    1    3    3    0    0  0.34100997455E+02 -0.33384794629E+02 -0.25914990700E+02  0.54304781399E+02  0.00000000000E+00 0. -1.
         -2    1    1    2    0  502 -0.45284248305E+02  0.29721977890E+02  0.38953393316E+03  0.39328201611E+03  0.00000000000E+00 0.  1.
<scales pt_clust_5="13000.00000" pt_clust_6="13000.00000" pt_clust_7="13000.00000" pt_clust_8="13000.00000" pt_clust_9="13000.00000"></scales>
<clustering>
<clus scale="   80.306">  5  6 -1 -1</clus>
<clus scale="   54.167">  5  9 -1 -1</clus>
<clus scale="   87.985">  7  8 -1 -1</clus>
<clus scale="  101.459">  2  7  1 -1</clus>
<clus scale="  212.594">  1  5  2 -1</clus>
</clustering>
</event>
<event>
 9    2  0.6085395E-005  0.1780871E+03  0.7546771E-02  0.1191082E+00
          2   -1    0    0  502    0 -0.00000000000E+00  0.00000000000E+00  0.22924683542E+03  0.22924683542E+03  0.00000000000E+00 0. -1.
         21   -1    0    0  501  502  0.00000000000E+00 -0.00000000000E+00 -0.92235404448E+02  0.92235404448E+02  0.00000000000E+00 0. -1.
         23    2    1    2    0    0  0.48877290035E+02 -0.23447944924E+02  0.31535664204E+02  0.11450362798E+03  0.95800767745E+02 0.  0.
         24    2    1    2    0    0  0.34302361408E+01 -0.39411895382E+02  0.83337925048E+02  0.12225836134E+03  0.80229876907E+02 0.  0.
        -11    1    4    4    0    0  0.26946946980E+02  0.28030882254E+01  0.65267084488E+02  0.70666735970E+02  0.00000000000E+00 0.  1.
         12    1    4    4    0    0 -0.23516710839E+02 -0.42214983608E+02  0.18070840560E+02  0.51591625369E+02  0.00000000000E+00 0. -1.
        -11    1    3    3    0    0 -0.29212278984E+02 -0.90245796262E+01  0.66986845291E+01  0.31299722927E+02  0.00000000000E+00 0.  1.
         11    1    3    3    0    0  0.78089569019E+02 -0.14423365298E+02  0.24836979675E+02  0.83203905049E+02  0.00000000000E+00 0. -1.
          1    1    1    2  501    0 -0.52307526176E+02  0.62859840306E+02  0.22137841721E+02  0.84720250555E+02  0.00000000000E+00 0. -1.
<scales pt_clust_5="13000.00000" pt_clust_6="13000.00000" pt_clust_7="13000.00000" pt_clust_8="13000.00000" pt_clust_9="13000.00000"></scales>
<clustering>
<clus scale="   80.230">  5  6 -1 -1</clus>
<clus scale="   81.777">  5  9 -1 -1</clus>
<clus scale="   95.801">  7  8 -1 -1</clus>
<clus scale="  110.075">  1  7  2 -1</clus>
<clus scale="  178.087">  2  5  1 -1</clus>
</clustering>
</event>
<event>
 9    2  0.6085395E-005  0.2598953E+03  0.7546771E-02  0.1143825E+00
         21   -1    0    0  501  502  0.00000000000E+00  0.00000000000E+00  0.17995242209E+03  0.17995242209E+03  0.00000000000E+00 0. -1.
          4   -1    0    0  502    0 -0.00000000000E+00 -0.00000000000E+00 -0.20245305688E+03  0.20245305688E+03  0.00000000000E+00 0. -1.
         23    2    1    2    0    0  0.52034699823E+02 -0.13963982117E+02 -0.58318894844E+02  0.12005359349E+03  0.90050924652E+02 0.  0.
         24    2    1    2    0    0  0.31229658102E+02 -0.70104690174E+02 -0.42536791375E+02  0.12043638582E+03  0.82495971288E+02 0.  0.
        -13    1    4    4    0    0  0.76285371146E+01 -0.83641832148E+02 -0.23449834127E+02  0.87201177654E+02  0.00000000000E+00 0.  1.
         14    1    4    4    0    0  0.23601120987E+02  0.13537141974E+02 -0.19086957248E+02  0.33235208164E+02  0.00000000000E+00 0. -1.
        -13    1    3    3    0    0  0.25858282526E+02  0.17640740736E+01 -0.79018880574E+02  0.83160965722E+02  0.00000000000E+00 0. -1.
         13    1    3    3    0    0  0.26176417297E+02 -0.15728056191E+02  0.20699985731E+02  0.36892627764E+02  0.00000000000E+00 0.  1.
          3    1    1    2  501    0 -0.83264357925E+02  0.84068672291E+02  0.78355051427E+02  0.14191549967E+03  0.00000000000E+00 0. -1.
<scales pt_clust_5="13000.00000" pt_clust_6="13000.00000" pt_clust_7="13000.00000" pt_clust_8="13000.00000" pt_clust_9="13000.00000"></scales>
<clustering>
<clus scale="   82.496">  5  6 -1 -1</clus>
<clus scale="   90.051">  7  8 -1 -1</clus>
<clus scale="  104.937">  2  7  1 -1</clus>
<clus scale="  105.541">  5  9 -1 -1</clus>
<clus scale="  259.895">  1  5  2 -1</clus>
</clustering>
</event>
<event>
 9    2  0.6085395E-005  0.1652089E+03  0.7546771E-02  0.1198867E+00
         -1   -1    0    0    0  501 -0.00000000000E+00  0.00000000000E+00  0.10219384745E+03  0.10219384745E+03  0.00000000000E+00 0.  1.
         21   -1    0    0  501  502  0.00000000000E+00 -0.00000000000E+00 -0.20070064457E+03  0.20070064457E+03  0.00000000000E+00 0. -1.
         23    2    1    2    0    0 -0.73661831487E+02  0.18853355605E+02 -0.68634011279E+02  0.13500652156E+03  0.87946682275E+02 0.  0.
         24    2    1    2    0    0  0.76771646465E+02  0.28382632695E+02 -0.31837330229E+01  0.11354447885E+03  0.78630483794E+02 0.  0.
        -11    1    4    4    0    0  0.89379408237E+02  0.14897702135E+02 -0.14684137356E+02  0.91794575197E+02  0.00000000000E+00 0.  1.
         12    1    4    4    0    0 -0.12607761772E+02  0.13484930560E+02  0.11500404333E+02  0.21749903653E+02  0.00000000000E+00 0. -1.
        -13    1    3    3    0    0 -0.56750560873E+02 -0.10374462936E+02 -0.80654160560E+02  0.99163245491E+02  0.00000000000E+00 0. -1.
         13    1    3    3    0    0 -0.16911270613E+02  0.29227818540E+02  0.12020149281E+02  0.35843276066E+02  0.00000000000E+00 0.  1.
         -2    1    1    2    0  502 -0.31098149783E+01 -0.47235988300E+02 -0.26689052826E+02  0.54343491612E+02  0.00000000000E+00 0.  1.
<scales pt_clust_5="13000.00000" pt_clust_6="13000.00000" pt_clust_7="13000.00000" pt_clust_8="13000.00000" pt_clust_9="13000.00000"></scales>
<clustering>
<clus scale="   78.630">  5  6 -1 -1</clus>
<clus scale="   47.338">  5  9 -1 -1</clus>
<clus scale="   87.947">  7  8 -1 -1</clus>
<clus scale="  116.259">  1  7  2 -1</clus>
<clus scale="  165.209">  2  5  1 -1</clus>
</clustering>
</event>
<event>
 9    2  0.6085395E-005  0.5761810E+03  0.7546771E-02  0.1032816E+00
         21   -1    0    0  501  502  0.00000000000E+00  0.00000000000E+00  0.12936351069E+03  0.12936351069E+03  0.00000000000E+00 0.  1.
         -1   -1    0    0    0  501 -0.00000000000E+00 -0.00000000000E+00 -0.11815805789E+04  0.11815805789E+04  0.00000000000E+00 0.  1.
         23    2    1    2    0    0 -0.14369298830E+03  0.69500497883E+02 -0.40156385650E+03  0.44184445877E+03  0.92168328649E+02 0.  0.
         24    2    1    2    0    0 -0.22785935847E+02 -0.14572935177E+03  0.24614990087E+02  0.16944742100E+03  0.79688693732E+02 0.  0.
        -11    1    4    4    0    0 -0.15145596180E+02 -0.14529786694E+03  0.40688096546E+02  0.15164557501E+03  0.00000000000E+00 0.  1.
         12    1    4    4    0    0 -0.76403396670E+01 -0.43148482762E+00 -0.16073106459E+02  0.17801845989E+02  0.00000000000E+00 0. -1.
        -11    1    3    3    0    0 -0.10726526130E+03  0.46035439836E+02 -0.37070505646E+03  0.38864808875E+03  0.00000000000E+00 0.  1.
         11    1    3    3    0    0 -0.36427727000E+02  0.23465058046E+02 -0.30858800038E+02  0.53196370020E+02  0.00000000000E+00 0. -1.
         -2    1    1    2    0  502  0.16647892415E+03  0.76228853883E+02 -0.67526820182E+03  0.69965220984E+03  0.00000000000E+00 0.  1.
<scales pt_clust_5="13000.00000" pt_clust_6="13000.00000" pt_clust_7="13000.00000" pt_clust_8="13000.00000" pt_clust_9="13000.00000"></scales>
<clustering>
<clus scale="   79.689">  5  6 -1 -1</clus>
<clus scale="   92.168">  7  8 -1 -1</clus>
<clus scale="  183.101">  5  9 -1 -1</clus>
<clus scale="  184.318">  2  7  1 -1</clus>
<clus scale="  576.181">  1  5  2 -1</clus>
</clustering>
</event>
<event>
 9    2  0.6085395E-005  0.2443727E+03  0.7546771E-02  0.1149723E+00
          2   -1    0    0  502    0 -0.00000000000E+00  0.00000000000E+00  0.63327590124E+03  0.63327590124E+03  0.00000000000E+00 0. -1.
         21   -1    0    0  501  502  0.00000000000E+00 -0.00000000000E+00 -0.91437802085E+02  0.91437802085E+02  0.00000000000E+00 0. -1.
         23    2    1    2    0    0  0.51677569072E+02  0.27989231704E+02  0.45077305975E+03  0.46392482353E+03  0.92606275449E+02 0.  0.
         24    2    1    2    0    0  0.67342423854E+02  0.23329431706E+02  0.73935205098E+02  0.13004946281E+03  0.79794635098E+02 0.  0.
        -11    1    4    4    0    0  0.47635070228E+02 -0.38591546741E+01  0.82546627905E+02  0.95383115744E+02  0.00000000000E+00 0.  1.
         12    1    4    4    0    0  0.19707353626E+02  0.27188586380E+02 -0.86114228073E+01  0.34666347068E+02  0.00000000000E+00 0. -1.
        -11    1    3    3    0    0  0.65575834706E+02  0.43001191380E+02  0.41799040104E+03  0.42528257420E+03  0.00000000000E+00 0. -1.
         11    1    3    3    0    0 -0.13898265634E+02 -0.15011959676E+02  0.32782658707E+02  0.38642249325E+02  0.00000000000E+00 0.  1.
          1    1    1    2  501    0 -0.11901999293E+03 -0.51318663410E+02  0.17129834307E+02  0.13073941699E+03  0.00000000000E+00 0. -1.
<scales pt_clust_5="13000.00000" pt_clust_6="13000.00000" pt_clust_7="13000.00000" pt_clust_8="13000.00000" pt_clust_9="13000.00000"></scales>
<clustering>
<clus scale="   79.795">  5  6 -1 -1</clus>
<clus scale="   92.606">  7  8 -1 -1</clus>
<clus scale="  109.681">  1  7  2 -1</clus>
<clus scale="  105.035">  5  9 -1 -1</clus>
<clus scale="  244.373">  2  5  1 -1</clus>
</clustering>
</event>
<event>
 9    2  0.6085395E-005  0.5332769E+03  0.7546771E-02  0.1056166E+00
          2   -1    0    0  502    0 -0.00000000000E+00  0.00000000000E+00  0.23871151988E+04  0.23871151988E+04  0.00000000000E+00 0. -1.
         21   -1    0    0  501  502  0.00000000000E+00 -0.00000000000E+00 -0.44630035961E+02  0.44630035961E+02  0.00000000000E+00 0. -1.
         23    2    1    2    0    0  0.65100528045E+02 -0.45220873548E+02  0.47962205233E+03  0.49405505070E+03  0.88148022625E+02 0.  0.
         24    2    1    2    0    0  0.67916254350E+02 -0.17479514271E+03  0.13358065381E+04  0.13512695651E+04  0.79902258035E+02 0.  0.
        -13    1    4    4    0    0  0.65084457131E+02 -0.60745865298E+02  0.52954810716E+03  0.53697974311E+03  0.00000000000E+00 0.  1.
         14    1    4    4    0    0  0.28317972191E+01 -0.11404927741E+03  0.80625843092E+03  0.81428982198E+03  0.00000000000E+00 0. -1.
        -11    1    3    3    0    0 -0.41270570757E+01 -0.43495479233E+02  0.11725319550E+03  0.12512873838E+03  0.00000000000E+00 0.  1.
         11    1    3    3    0    0  0.69227585121E+02 -0.17253943144E+01  0.36236885682E+03  0.36892631232E+03  0.00000000000E+00 0. -1.
          1    1    1    2  501    0 -0.13301678240E+03  0.22001601626E+03  0.52705657247E+03  0.58642061901E+03  0.00000000000E+00 0. -1.
<scales pt_clust_5="13000.00000" pt_clust_6="13000.00000" pt_clust_7="13000.00000" pt_clust_8="13000.00000" pt_clust_9="13000.00000"></scales>
<clustering>
<clus scale="   79.902">  5  6 -1 -1</clus>
<clus scale="   88.148">  7  8 -1 -1</clus>
<clus scale="  118.546">  1  7  2 -1</clus>
<clus scale="  236.085">  5  9 -1 -1</clus>
<clus scale="  533.277">  2  5  1 -1</clus>
</clustering>
</event>
<event>
 9    2  0.6085395E-005  0.2617825E+03  0.7546771E-02  0.1140942E+00
         21   -1    0    0  501  502  0.00000000000E+00  0.00000000000E+00  0.27443872063E+03  0.27443872063E+03  0.00000000000E+00 0.  1.
         -1   -1    0    0    0  501 -0.00000000000E+00 -0.00000000000E+00 -0.19003962401E+03  0.19003962401E+03  0.00000000000E+00 0.  1.
         23    2    1    2    0    0 -0.92615178968E+02 -0.10940230873E+02 -0.96425498853E+02  0.14631543987E+03  0.58421495101E+02 0.  0.
         24    2    1    2    0    0  0.56960136301E+02 -0.34000859506E+02  0.22367101688E+03  0.24656123230E+03  0.79769680373E+02 0.  0.
        -11    1    4    4    0    0  0.37100987047E+02 -0.31864513511E+02  0.22107449760E+03  0.22641944251E+03  0.00000000000E+00 0.  1.
         12    1    4    4    0    0  0.19859149255E+02 -0.21363459955E+01  0.25965192817E+01  0.20141789784E+02  0.00000000000E+00 0. -1.
        -13    1    3    3    0    0 -0.40707289122E+02 -0.34165088639E+02 -0.48446027597E+02  0.71912128735E+02  0.00000000000E+00 0. -1.
         13    1    3    3    0    0 -0.51907889847E+02  0.23224857765E+02 -0.47979471255E+02  0.74403311139E+02  0.00000000000E+00 0.  1.
         -2    1    1    2    0  502  0.35655042667E+02  0.44941090380E+02 -0.42846421404E+02  0.71601672461E+02  0.00000000000E+00 0.  1.
<scales pt_clust_5="13000.00000" pt_clust_6="13000.00000" pt_clust_7="13000.00000" pt_clust_8="13000.00000" pt_clust_9="13000.00000"></scales>
<clustering>
<clus scale="   58.421">  7  8 -1 -1</clus>
<clus scale="   79.770">  5  6 -1 -1</clus>
<clus scale="   57.367">  5  9 -1 -1</clus>
<clus scale="  110.047">  2  7  1 -1</clus>
<clus scale="  261.783">  1  5  2 -1</clus>
</clustering>
</event>
<event>
 9    2  0.6085395E-005  0.1066515E+03  0.7546771E-02  0.1274625E+00
         -1   -1    0    0    0  501 -0.00000000000E+00  0.00000000000E+00  0.30676677736E+03  0.30676677736E+03  0.00000000000E+00 0.  1.
         21   -1    0    0  501  502  0.00000000000E+00 -0.00000000000E+00 -0.34001252358E+02  0.34001252358E+02  0.00000000000E+00 0.  1.
         23    2    1    2    0    0 -0.16136601149E+02  0.57383855634E+01  0.86780214070E+02  0.12637333692E+03  0.90255724275E+02 0.  0.
         24    2    1    2    0    0  0.28113325578E+02  0.13865704539E+02  0.13616023386E+03  0.15952848661E+03  0.76987738743E+02 0.  0.
        -13    1    4    4    0    0  0.49091772818E+02  0.28240991435E+02  0.81551493421E+02  0.99288477856E+02  0.00000000000E+00 0.  1.
         14    1    4    4    0    0 -0.20978447240E+02 -0.14375286896E+02  0.54608740442E+02  0.60240008754E+02  0.00000000000E+00 0. -1.
        -13    1    3    3    0    0 -0.26903109975E+02 -0.31485334402E+02  0.13639528408E+02  0.43602068115E+02  0.00000000000E+00 0.  1.
         13    1    3    3    0    0  0.10766508826E+02  0.37223719965E+02  0.73140685662E+02  0.82771268804E+02  0.00000000000E+00 0. -1.
         -2    1    1    2    0  502 -0.11976724428E+02 -0.19604090103E+02  0.49825077068E+02  0.54866206189E+02  0.00000000000E+00 0.  1.
<scales pt_clust_5="13000.00000" pt_clust_6="13000.00000" pt_clust_7="13000.00000" pt_clust_8="13000.00000" pt_clust_9="13000.00000"></scales>
<clustering>
<clus scale="   76.988">  5  6 -1 -1</clus>
<clus scale="   22.973">  5  9 -1 -1</clus>
<clus scale="   90.256">  7  8 -1 -1</clus>
<clus scale="   91.866">  1  7  2 -1</clus>
<clus scale="  106.652">  2  5  1 -1</clus>
</clustering>
</event>
<event>
 9    2  0.6085395E-005  0.2769319E+03  0.7546771E-02  0.1127519E+00
         -3   -1    0    0    0  501 -0.00000000000E+00  0.00000000000E+00  0.81550266858E+03  0.81550266858E+03  0.00000000000E+00 0.  1.
         21   -1    0    0  501  502  0.00000000000E+00 -0.00000000000E+00 -0.62325839032E+02  0.62325839032E+02  0.00000000000E+00 0.  1.
         23    2    1    2    0    0 -0.38470966841E+02  0.82724179861E+02  0.44593228833E+03  0.46419763946E+03  0.91107285559E+02 0.  0.
         24    2    1    2    0    0 -0.16818604479E+02  0.70111671628E+02  0.16647481648E+03  0.19861493944E+03  0.80842548767E+02 0.  0.
        -11    1    4    4    0    0  0.60286025900E+01  0.77013786469E+02  0.15252097992E+03  0.17096817444E+03  0.00000000000E+00 0.  1.
         12    1    4    4    0    0 -0.22847207069E+02 -0.69021148409E+01  0.13953836559E+02  0.27646764998E+02  0.00000000000E+00 0. -1.
        -11    1    3    3    0    0  0.22121052868E+02  0.22146893970E+02  0.49159372588E+02  0.58279239921E+02  0.00000000000E+00 0. -1.
         11    1    3    3    0    0 -0.60592019709E+02  0.60577285891E+02  0.39677291574E+03  0.40591839954E+03  0.00000000000E+00 0.  1.
         -4    1    1    2    0  502  0.55289571320E+02 -0.15283585149E+03  0.14076972474E+03  0.21501592871E+03  0.00000000000E+00 0.  1.
<scales pt_clust_5="13000.00000" pt_clust_6="13000.00000" pt_clust_7="13000.00000" pt_clust_8="13000.00000" pt_clust_9="13000.00000"></scales>
<clustering>
<clus scale="   80.843">  5  6 -1 -1</clus>
<clus scale="   91.107">  7  8 -1 -1</clus>
<clus scale="  128.933">  1  7  2 -1</clus>
<clus scale="  117.744">  5  9 -1 -1</clus>
<clus scale="  276.932">  2  5  1 -1</clus>
</clustering>
</event>
<event>
 9    2  0.6085395E-005  0.1811544E+03  0.7546771E-02  0.1188595E+00
         21   -1    0    0  501  502  0.00000000000E+00  0.00000000000E+00  0.39169398892E+02  0.39169398892E+02  0.00000000000E+00 0. -1.
          2   -1    0    0  502    0 -0.00000000000E+00 -0.00000000000E+00 -0.54702579714E+03  0.54702579714E+03  0.00000000000E+00 0. -1.
         23    2    1    2    0    0 -0.14479086839E+02 -0.62787090831E+02 -0.21767851655E+03  0.24411315962E+03  0.89752077410E+02 0.  0.
         24    2    1    2    0    0 -0.24991455061E+02 -0.78148298071E+01 -0.77554364242E+02  0.11459288272E+03  0.80194793879E+02 0.  0.
        -11    1    4    4    0    0 -0.19310330224E+02  0.32039531327E+02 -0.59928995036E+02  0.70646336544E+02  0.00000000000E+00 0.  1.
         12    1    4    4    0    0 -0.56811248364E+01 -0.39854361135E+02 -0.17625369207E+02  0.43946546173E+02  0.00000000000E+00 0. -1.
        -11    1    3    3    0    0 -0.32544691971E+02 -0.31507008573E+02 -0.19772300959E+03  0.20284535264E+03  0.00000000000E+00 0.  1.
         11    1    3    3    0    0  0.18065605132E+02 -0.31280082258E+02 -0.19955506960E+02  0.41267806980E+02  0.00000000000E+00 0. -1.
          1    1    1    2  501    0  0.39470541900E+02  0.70601920638E+02 -0.21262351745E+03  0.22748915370E+03  0.00000000000E+00 0. -1.
<scales pt_clust_5="13000.00000" pt_clust_6="13000.00000" pt_clust_7="13000.00000" pt_clust_8="13000.00000" pt_clust_9="13000.00000"></scales>
<clustering>
<clus scale="   80.195">  5  6 -1 -1</clus>
<clus scale="   80.886">  5  9 -1 -1</clus>
<clus scale="   89.752">  7  8 -1 -1</clus>
<clus scale="  110.487">  2  7  1 -1</clus>
<clus scale="  181.154">  1  5  2 -1</clus>
</clustering>
</event>
<event>
 9    2  0.6085395E-005  0.1729377E+03  0.7546771E-02  0.1200562E+00
          2   -1    0    0  502    0 -0.00000000000E+00  0.00000000000E+00  0.71429109448E+03  0.71429109448E+03  0.00000000000E+00 0. -1.
         21   -1    0    0  501  502  0.00000000000E+00 -0.00000000000E+00 -0.35737845374E+02  0.35737845374E+02  0.00000000000E+00 0. -1.
         23    2    1    2    0    0 -0.32553766275E+02  0.13418814999E+02  0.46540838417E+03  0.47555089229E+03  0.91125599083E+02 0.  0.
         24    2    1    2    0    0 -0.39541118443E+02  0.14392192912E+02  0.88435355150E+02  0.12776885769E+03  0.82057502334E+02 0.  0.
        -11    1    4    4    0    0 -0.14016034408E+02 -0.33069833522E+02  0.50055376507E+02  0.61608472039E+02  0.00000000000E+00 0.  1.
         12    1    4    4    0    0 -0.25525084035E+02  0.47462026435E+02  0.38379978642E+02  0.66160385646E+02  0.00000000000E+00 0. -1.
        -11    1    3    3    0    0  0.27438491761E+02  0.24064958843E+02  0.19163194676E+03  0.19507638528E+03  0.00000000000E+00 0.  1.
         11    1    3    3    0    0 -0.59992258036E+02 -0.10646143844E+02  0.27377643740E+03  0.28047450701E+03  0.00000000000E+00 0. -1.
          1    1    1    2  501    0  0.72094884718E+02 -0.27811007911E+02  0.12470950979E+03  0.14670918988E+03  0.00000000000E+00 0. -1.
<scales pt_clust_5="13000.00000" pt_clust_6="13000.00000" pt_clust_7="13000.00000" pt_clust_8="13000.00000" pt_clust_9="13000.00000"></scales>
<clustering>
<clus scale="   82.058">  5  6 -1 -1</clus>
<clus scale="   77.273">  5  9 -1 -1</clus>
<clus scale="   91.126">  7  8 -1 -1</clus>
<clus scale="   97.692">  1  7  2 -1</clus>
<clus scale="  172.938">  2  5  1 -1</clus>
</clustering>
</event>
<event>
 9    2  0.6085395E-005  0.2082582E+03  0.7546771E-02  0.1173064E+00
         21   -1    0    0  501  502  0.00000000000E+00  0.00000000000E+00  0.10349445461E+03  0.10349445461E+03  0.00000000000E+00 0.  1.
          2   -1    0    0  502    0 -0.00000000000E+00 -0.00000000000E+00 -0.23884164384E+03  0.23884164384E+03  0.00000000000E+00 0. -1.
         23    2    1    2    0    0 -0.28682486107E+02 -0.51709819105E+02 -0.67968882247E+02  0.12344958514E+03  0.84400478182E+02 0.  0.
         24    2    1    2    0    0  0.63635210877E+02 -0.13711917602E+02  0.16772936929E+02  0.10671196871E+03  0.82877355803E+02 0.  0.
        -13    1    4    4    0    0  0.39275272733E+02 -0.32123222537E+02  0.42962034552E+02  0.66484471023E+02  0.00000000000E+00 0.  1.
         14    1    4    4    0    0  0.24359938144E+02  0.18411304935E+02 -0.26189097623E+02  0.40227497686E+02  0.00000000000E+00 0. -1.
        -11    1    3    3    0    0  0.20437936196E+02 -0.41872243877E+02 -0.54243099100E+02  0.71507397122E+02  0.00000000000E+00 0. -1.
         11    1    3    3    0    0 -0.49120422303E+02 -0.98375752288E+01 -0.13725783147E+02  0.51942188023E+02  0.00000000000E+00 0.  1.
          1    1    1    2  501    0 -0.34952724770E+02  0.65421736708E+02 -0.84151243910E+02  0.11217454459E+03  0.00000000000E+00 0. -1.
<scales pt_clust_5="13000.00000" pt_clust_6="13000.00000" pt_clust_7="13000.00000" pt_clust_8="13000.00000" pt_clust_9="13000.00000"></scales>
<clustering>
<clus scale="   82.877">  5  6 -1 -1</clus>
<clus scale="   74.173">  5  9 -1 -1</clus>
<clus scale="   84.400">  7  8 -1 -1</clus>
<clus scale="  103.054">  2  7  1 -1</clus>
<clus scale="  208.258">  1  5  2 -1</clus>
</clustering>
</event>
<event>
 9    2  0.6085395E-005  0.1701165E+03  0.7546771E-02  0.1198529E+00
         21   -1    0    0  501  502  0.00000000000E+00  0.00000000000E+00  0.68555136862E+02  0.68555136862E+02  0.00000000000E+00 0.  1.
         -1   -1    0    0    0  501 -0.00000000000E+00 -0.00000000000E+00 -0.28387927981E+03  0.28387927981E+03  0.00000000000E+00 0.  1.
         23    2    1    2    0    0 -0.23514276895E+02 -0.54270986470E+02 -0.10203240071E+03  0.14804599609E+03  0.89491591625E+02 0.  0.
         24    2    1    2    0    0 -0.28648119298E+02 -0.99082587026E+01 -0.48561785387E+02  0.99365287889E+02  0.81217763497E+02 0.  0.
        -13    1    4    4    0    0 -0.32191550553E+02  0.28064393320E+02 -0.43384390457E+02  0.60877840261E+02  0.00000000000E+00 0.  1.
         14    1    4    4    0    0  0.35434312554E+01 -0.37972652023E+02 -0.51773949295E+01  0.38487447629E+02  0.00000000000E+00 0. -1.
        -13    1    3    3    0    0  0.89004169963E+01 -0.60582442171E+02 -0.96900546858E+02  0.11462619990E+03  0.00000000000E+00 0.  1.
         13    1    3    3    0    0 -0.32414693891E+02  0.63114557016E+01 -0.51318538549E+01  0.33419796186E+02  0.00000000000E+00 0. -1.
         -2    1    1    2    0  502  0.52162396193E+02  0.64179245172E+02 -0.64729956844E+02  0.10502313269E+03  0.00000000000E+00 0.  1.
<scales pt_clust_5="13000.00000" pt_clust_6="13000.00000" pt_clust_7="13000.00000" pt_clust_8="13000.00000" pt_clust_9="13000.00000"></scales>
<clustering>
<clus scale="   81.218">  5  6 -1 -1</clus>
<clus scale="   82.704">  5  9 -1 -1</clus>
<clus scale="   89.492">  7  8 -1 -1</clus>
<clus scale="  107.271">  2  7  1 -1</clus>
<clus scale="  170.116">  1  5  2 -1</clus>
</clustering>
</event>
<event>
 9    2  0.6085395E-005  0.1102600E+04  0.7546771E-02  0.9584569E-01
          2   -1    0    0  502    0 -0.00000000000E+00  0.00000000000E+00  0.17906742424E+04  0.17906742424E+04  0.00000000000E+00 0. -1.
         21   -1    0    0  501  502  0.00000000000E+00 -0.00000000000E+00 -0.27019682094E+03  0.27019682094E+03  0.00000000000E+00 0. -1.
         23    2    1    2    0    0  0.19181247559E+03  0.17874520864E+03  0.22582855220E+03  0.36032894336E+03  0.10048152581E+03 0.  0.
         24    2    1    2    0    0  0.77680675150E+02  0.42355461986E+03  0.44016425656E+03  0.62094238164E+03  0.79950392553E+02 0.  0.
        -13    1    4    4    0    0  0.47980562254E+02  0.96550248669E+02  0.85342836443E+02  0.13750448940E+03  0.00000000000E+00 0.  1.
         14    1    4    4    0    0  0.29700112896E+02  0.32700437119E+03  0.35482142012E+03  0.48343789224E+03  0.00000000000E+00 0. -1.
        -13    1    3    3    0    0  0.19257804862E+03  0.15399931488E+03  0.17071353349E+03  0.29990865994E+03  0.00000000000E+00 0. -1.
         13    1    3    3    0    0 -0.76557303011E+00  0.24745893767E+02  0.55115018714E+02  0.60420283417E+02  0.00000000000E+00 0.  1.
          1    1    1    2  501    0 -0.26949315074E+03 -0.60229982850E+03  0.85448461275E+03  0.10795997384E+04  0.00000000000E+00 0. -1.
<scales pt_clust_5="13000.00000" pt_clust_6="13000.00000" pt_clust_7="13000.00000" pt_clust_8="13000.00000" pt_clust_9="13000.00000"></scales>
<clustering>
<clus scale="   79.950">  5  6 -1 -1</clus>
<clus scale="  100.482">  7  8 -1 -1</clus>
<clus scale="  280.782">  1  7  2 -1</clus>
<clus scale="  508.193">  5  9 -1 -1</clus>
<clus scale=" 1102.600">  2  5  1 -1</clus>
</clustering>
</event>
<event>
 9    2  0.6085395E-005  0.2521891E+03  0.7546771E-02  0.1153011E+00
         21   -1    0    0  501  502  0.00000000000E+00  0.00000000000E+00  0.15717265808E+03  0.15717265808E+03  0.00000000000E+00 0. -1.
          4   -1    0    0  502    0 -0.00000000000E+00 -0.00000000000E+00 -0.22610664152E+03  0.22610664152E+03  0.00000000000E+00 0. -1.
         23    2    1    2    0    0  0.38625197165E+01 -0.22767936310E+02 -0.91615609090E+02  0.13007229782E+03  0.89398461106E+02 0.  0.
         24    2    1    2    0    0 -0.70845520725E+02 -0.29290578628E+02 -0.66626016804E+02  0.13002962397E+03  0.81188984426E+02 0.  0.
        -11    1    4    4    0    0 -0.31269293340E+02  0.25160669504E+02 -0.42670256414E+02  0.58579678885E+02  0.00000000000E+00 0.  1.
         12    1    4    4    0    0 -0.39576227385E+02 -0.54451248132E+02 -0.23955760390E+02  0.71449945087E+02  0.00000000000E+00 0. -1.
        -11    1    3    3    0    0 -0.29372149908E+02 -0.18917581106E+02 -0.26660215185E+01  0.35038632049E+02  0.00000000000E+00 0.  1.
         11    1    3    3    0    0  0.33234669624E+02 -0.38503552043E+01 -0.88949587572E+02  0.95033665769E+02  0.00000000000E+00 0. -1.
          3    1    1    2  501    0  0.66983001008E+02  0.52058514938E+02  0.89307642460E+02  0.12317737781E+03  0.00000000000E+00 0. -1.
<scales pt_clust_5="13000.00000" pt_clust_6="13000.00000" pt_clust_7="13000.00000" pt_clust_8="13000.00000" pt_clust_9="13000.00000"></scales>
<clustering>
<clus scale="   81.189">  5  6 -1 -1</clus>
<clus scale="   84.834">  5  9 -1 -1</clus>
<clus scale="   89.398">  7  8 -1 -1</clus>
<clus scale="   92.333">  2  7  1 -1</clus>
<clus scale="  252.189">  1  5  2 -1</clus>
</clustering>
</event>
<event>
 9    2  0.6085395E-005  0.3561871E+03  0.7546771E-02  0.1097100E+00
         21   -1    0    0  501  502  0.00000000000E+00  0.00000000000E+00  0.40079337543E+03  0.40079337543E+03  0.00000000000E+00 0. -1.
          2   -1    0    0  502    0 -0.00000000000E+00 -0.00000000000E+00 -0.24413742996E+03  0.24413742996E+03  0.00000000000E+00 0. -1.
         23    2    1    2    0    0  0.34209022754E+02  0.86056718897E+02 -0.13231816733E+03  0.18626393086E+03  0.92790831599E+02 0.  0.
         24    2    1    2    0    0 -0.15396139922E+03 -0.98627826744E+02  0.26855915041E+03  0.33653811006E+03  0.87762871376E+02 0.  0.
        -13    1    4    4    0    0 -0.25089019243E+02 -0.61675605624E+02  0.11320766011E+03  0.13133664197E+03  0.00000000000E+00 0.  1.
         14    1    4    4    0    0 -0.12887237998E+03 -0.36952221120E+02  0.15535149031E+03  0.20520146809E+03  0.00000000000E+00 0. -1.
        -11    1    3    3    0    0  0.16729336166E+02  0.29172143295E+02 -0.12113039123E+03  0.12571179862E+03  0.00000000000E+00 0.  1.
         11    1    3    3    0    0  0.17479686588E+02  0.56884575602E+02 -0.11187776100E+02  0.60552132239E+02  0.00000000000E+00 0. -1.
          1    1    1    2  501    0  0.11975237647E+03  0.12571107847E+02  0.20414962389E+02  0.12212876447E+03  0.00000000000E+00 0. -1.
<scales pt_clust_5="13000.00000" pt_clust_6="13000.00000" pt_clust_7="13000.00000" pt_clust_8="13000.00000" pt_clust_9="13000.00000"></scales>
<clustering>
<clus scale="   87.763">  5  6 -1 -1</clus>
<clus scale="   92.791">  7  8 -1 -1</clus>
<clus scale="  120.410">  5  9 -1 -1</clus>
<clus scale="  131.096">  2  7  1 -1</clus>
<clus scale="  356.187">  1  5  2 -1</clus>
</clustering>
</event>
<event>
 9    2  0.6085395E-005  0.5592791E+03  0.7546771E-02  0.1037537E+00
         21   -1    0    0  501  502  0.00000000000E+00  0.00000000000E+00  0.94483837205E+02  0.94483837205E+02  0.00000000000E+00 0. -1.
         -3   -1    0    0    0  501 -0.00000000000E+00 -0.00000000000E+00 -0.15539873979E+04  0.15539873979E+04  0.00000000000E+00 0.  1.
         23    2    1    2    0    0 -0.14275070724E+03  0.44755724521E+02 -0.17646257227E+03  0.24883298126E+03  0.91640459717E+02 0.  0.
         24    2    1    2    0    0 -0.26719063591E+02  0.20821769338E+03 -0.31550802803E+03  0.38532292672E+03  0.69713168813E+02 0.  0.
        -13    1    4    4    0    0 -0.45598591209E+02  0.15718513501E+03 -0.26260659140E+03  0.30943273911E+03  0.00000000000E+00 0.  1.
         14    1    4    4    0    0  0.18879527618E+02  0.51032558373E+02 -0.52901436634E+02  0.75890187608E+02  0.00000000000E+00 0. -1.
        -13    1    3    3    0    0 -0.42888778947E+02  0.49388364144E+01 -0.11972818112E+03  0.12727402257E+03  0.00000000000E+00 0.  1.
         13    1    3    3    0    0 -0.99861928292E+02  0.39816888106E+02 -0.56734391143E+02  0.12155895869E+03  0.00000000000E+00 0. -1.
         -4    1    1    2    0  502  0.16946977083E+03 -0.25297341790E+03 -0.96753296040E+03  0.10143153271E+04  0.00000000000E+00 0.  1.
<scales pt_clust_5="13000.00000" pt_clust_6="13000.00000" pt_clust_7="13000.00000" pt_clust_8="13000.00000" pt_clust_9="13000.00000"></scales>
<clustering>
<clus scale="   69.713">  5  6 -1 -1</clus>
<clus scale="   91.640">  7  8 -1 -1</clus>
<clus scale="  175.439">  2  7  1 -1</clus>
<clus scale="  229.037">  5  9 -1 -1</clus>
<clus scale="  559.279">  1  5  2 -1</clus>
</clustering>
</event>
<event>
 9    2  0.6085395E-005  0.1696141E+03  0.7546771E-02  0.1202113E+00
          2   -1    0    0  502    0 -0.00000000000E+00  0.00000000000E+00  0.45573975479E+03  0.45573975479E+03  0.00000000000E+00 0. -1.
         21   -1    0    0  501  502  0.00000000000E+00 -0.00000000000E+00 -0.54867139900E+02  0.54867139900E+02  0.00000000000E+00 0. -1.
         23    2    1    2    0    0 -0.18744824553E+02 -0.36526776099E+02  0.29290329854E+03  0.30954390067E+03  0.91320919434E+02 0.  0.
         24    2    1    2    0    0 -0.33762685620E+02 -0.17348073796E+02  0.33356671422E+02  0.95107414370E+02  0.80572192071E+02 0.  0.
        -11    1    4    4    0    0 -0.12223299981E+00 -0.30397873085E+02  0.47464795208E+02  0.56364460550E+02  0.00000000000E+00 0.  1.
         12    1    4    4    0    0 -0.33640452620E+02  0.13049799289E+02 -0.14108123785E+02  0.38742953820E+02  0.00000000000E+00 0. -1.
        -11    1    3    3    0    0  0.22009909969E+02 -0.50481138905E+02  0.19403251384E+03  0.20169630128E+03  0.00000000000E+00 0.  1.
         11    1    3    3    0    0 -0.40754734522E+02  0.13954362806E+02  0.98870784699E+02  0.10784759939E+03  0.00000000000E+00 0. -1.
          1    1    1    2  501    0  0.52507510173E+02  0.53874849895E+02  0.74612644921E+02  0.10595557964E+03  0.00000000000E+00 0. -1.
<scales pt_clust_5="13000.00000" pt_clust_6="13000.00000" pt_clust_7="13000.00000" pt_clust_8="13000.00000" pt_clust_9="13000.00000"></scales>
<clustering>
<clus scale="   80.572">  5  6 -1 -1</clus>
<clus scale="   75.230">  5  9 -1 -1</clus>
<clus scale="   91.321">  7  8 -1 -1</clus>
<clus scale="  100.125">  1  7  2 -1</clus>
<clus scale="  169.614">  2  5  1 -1</clus>
</clustering>
</event>
<event>
 9    2  0.6085395E-005  0.8227105E+03  0.7546771E-02  0.1003595E+00
         21   -1    0    0  501  502  0.00000000000E+00  0.00000000000E+00  0.58799179169E+03  0.58799179169E+03  0.00000000000E+00 0.  1.
          2   -1    0    0  502    0 -0.00000000000E+00 -0.00000000000E+00 -0.47962943790E+03  0.47962943790E+03  0.00000000000E+00 0. -1.
         23    2    1    2    0    0 -0.12438420855E+03  0.21219445225E+01 -0.14023579741E+03  0.20817167123E+03  0.90517577540E+02 0.  0.
         24    2    1    2    0    0 -0.20381872073E+03 -0.19943661273E+03  0.35462619025E+03  0.46209306080E+03  0.80331989971E+02 0.  0.
        -11    1    4    4    0    0 -0.65404014488E+02 -0.91640206019E+02  0.19360924693E+03  0.22396462436E+03  0.00000000000E+00 0.  1.
         12    1    4    4    0    0 -0.13841470625E+03 -0.10779640671E+03  0.16101694333E+03  0.23812843644E+03  0.00000000000E+00 0. -1.
        -11    1    3    3    0    0 -0.55273825611E+02  0.45978479850E+02 -0.69327053590E+02  0.99877208443E+02  0.00000000000E+00 0.  1.
         11    1    3    3    0    0 -0.69110382939E+02 -0.43856535327E+02 -0.70908743823E+02  0.10829446279E+03  0.00000000000E+00 0. -1.
          1    1    1    2  501    0  0.32820292928E+03  0.19731466820E+03 -0.10602803905E+03  0.39735649755E+03  0.00000000000E+00 0. -1.
<scales pt_clust_5="13000.00000" pt_clust_6="13000.00000" pt_clust_7="13000.00000" pt_clust_8="13000.00000" pt_clust_9="13000.00000"></scales>
<clustering>
<clus scale="   80.332">  5  6 -1 -1</clus>
<clus scale="   90.518">  7  8 -1 -1</clus>
<clus scale="  153.849">  2  7  1 -1</clus>
<clus scale="  300.944">  5  9 -1 -1</clus>
<clus scale="  822.710">  1  5  2 -1</clus>
</clustering>
</event>
<event>
 9    2  0.6085395E-005  0.3517117E+03  0.7546771E-02  0.1092520E+00
         21   -1    0    0  501  502  0.00000000000E+00  0.00000000000E+00  0.19907743697E+03  0.19907743697E+03  0.00000000000E+00 0.  1.
          2   -1    0    0  502    0 -0.00000000000E+00 -0.00000000000E+00 -0.34045761172E+03  0.34045761172E+03  0.00000000000E+00 0. -1.
         23    2    1    2    0    0 -0.17853433052E+02 -0.11482726945E+03 -0.10489022253E+03  0.18593547416E+03  0.10032943181E+03 0.  0.
         24    2    1    2    0    0  0.16281327488E+03  0.86564391913E+02 -0.41605891214E+02  0.20582163699E+03  0.81424441325E+02 0.  0.
        -11    1    4    4    0    0  0.12777200664E+03  0.73932611566E+02 -0.65572829931E+02  0.16152867473E+03  0.00000000000E+00 0.  1.
         12    1    4    4    0    0  0.35041268243E+02  0.12631780347E+02  0.23966938717E+02  0.44292962266E+02  0.00000000000E+00 0. -1.
        -13    1    3    3    0    0  0.31912608546E+02 -0.10510886072E+02 -0.43805716510E+02  0.55207192550E+02  0.00000000000E+00 0. -1.
         13    1    3    3    0    0 -0.49766041598E+02 -0.10431638338E+03 -0.61084506023E+02  0.13072828161E+03  0.00000000000E+00 0.  1.
          1    1    1    2  501    0 -0.14495984183E+03  0.28262877535E+02  0.51159390048E+01  0.14777793754E+03  0.00000000000E+00 0. -1.
<scales pt_clust_5="13000.00000" pt_clust_6="13000.00000" pt_clust_7="13000.00000" pt_clust_8="13000.00000" pt_clust_9="13000.00000"></scales>
<clustering>
<clus scale="   81.424">  5  6 -1 -1</clus>
<clus scale="  100.329">  7  8 -1 -1</clus>
<clus scale="  147.689">  5  9 -1 -1</clus>
<clus scale="  153.525">  2  7  1 -1</clus>
<clus scale="  351.712">  1  5  2 -1</clus>
</clustering>
</event>
<event>
 9    2  0.6085395E-005  0.2066767E+03  0.7546771E-02  0.1161848E+00
          4   -1    0    0  502    0 -0.00000000000E+00  0.00000000000E+00  0.29129288049E+03  0.29129288049E+03  0.00000000000E+00 0. -1.
         21   -1    0    0  501  502  0.00000000000E+00 -0.00000000000E+00 -0.35607411129E+03  0.35607411129E+03  0.00000000000E+00 0. -1.
         23    2    1    2    0    0 -0.72081477100E+02 -0.67748956299E+02  0.24179662964E+03  0.27763026917E+03  0.93953689841E+02 0.  0.
         24    2    1    2    0    0  0.91610948529E+02  0.17066856433E+02 -0.11094275556E+03  0.16670182470E+03  0.82446102804E+02 0.  0.
        -11    1    4    4    0    0  0.16725192340E+02 -0.28741503610E+02 -0.14465970478E+02  0.36263899272E+02  0.00000000000E+00 0.  1.
         12    1    4    4    0    0  0.74885756189E+02  0.45808360042E+02 -0.96476785079E+02  0.13043792542E+03  0.00000000000E+00 0. -1.
        -11    1    3    3    0    0 -0.68394113392E+02 -0.20177551057E+02  0.72312383374E+02  0.10155771316E+03  0.00000000000E+00 0.  1.
         11    1    3    3    0    0 -0.36873637085E+01 -0.47571405243E+02  0.16948424627E+03  0.17607255601E+03  0.00000000000E+00 0. -1.
          3    1    1    2  501    0 -0.19529471429E+02  0.50682099867E+02 -0.19563510489E+03  0.20303489790E+03  0.00000000000E+00 0. -1.
<scales pt_clust_5="13000.00000" pt_clust_6="13000.00000" pt_clust_7="13000.00000" pt_clust_8="13000.00000" pt_clust_9="13000.00000"></scales>
<clustering>
<clus scale="   82.446">  5  6 -1 -1</clus>
<clus scale="   54.315">  5  9 -1 -1</clus>
<clus scale="   93.954">  7  8 -1 -1</clus>
<clus scale="  136.429">  1  7  2 -1</clus>
<clus scale="  206.677">  2  5  1 -1</clus>
</clustering>
</event>
<event>
 9    2  0.6085395E-005  0.3367614E+03  0.7546771E-02  0.1092769E+00
         -1   -1    0    0    0  501 -0.00000000000E+00  0.00000000000E+00  0.58175179876E+03  0.58175179876E+03  0.00000000000E+00 0.  1.
         21   -1    0    0  501  502  0.00000000000E+00 -0.00000000000E+00 -0.11535240200E+03  0.11535240200E+03  0.00000000000E+00 0.  1.
         23    2    1    2    0    0 -0.11813198757E+03  0.89992687377E+02  0.10449287911E+03  0.20275150836E+03  0.90197350782E+02 0.  0.
         24    2    1    2    0    0  0.12304170384E+03  0.76672080916E+02  0.21644586058E+03  0.27308350552E+03  0.81901901987E+02 0.  0.
        -13    1    4    4    0    0  0.12362792947E+03  0.46069985026E+02  0.14898993033E+03  0.19900831089E+03  0.00000000000E+00 0.  1.
         14    1    4    4    0    0 -0.58622562400E+00  0.30602095890E+02  0.67455930255E+02  0.74075194633E+02  0.00000000000E+00 0. -1.
        -13    1    3    3    0    0 -0.19333959722E+00  0.44292603936E+02  0.11498693255E+02  0.45761250969E+02  0.00000000000E+00 0. -1.
         13    1    3    3    0    0 -0.11793864797E+03  0.45700083441E+02  0.92994185856E+02  0.15699025739E+03  0.00000000000E+00 0.  1.
         -2    1    1    2    0  502 -0.49097162696E+01 -0.16666476829E+03  0.14546065707E+03  0.22126918687E+03  0.00000000000E+00 0.  1.
<scales pt_clust_5="13000.00000" pt_clust_6="13000.00000" pt_clust_7="13000.00000" pt_clust_8="13000.00000" pt_clust_9="13000.00000"></scales>
<clustering>
<clus scale="   81.902">  5  6 -1 -1</clus>
<clus scale="   90.197">  7  8 -1 -1</clus>
<clus scale="  166.737">  5  9 -1 -1</clus>
<clus scale="  173.751">  1  7  2 -1</clus>
<clus scale="  336.761">  2  5  1 -1</clus>
</clustering>
</event>
<event>
 9    2  0.6085395E-005  0.1410359E+03  0.7546771E-02  0.1232791E+00
         -3   -1    0    0    0  501 -0.00000000000E+00  0.00000000000E+00  0.10738429883E+03  0.10738429883E+03  0.00000000000E+00 0.  1.
         21   -1    0    0  501  502  0.00000000000E+00 -0.00000000000E+00 -0.16234685062E+03  0.16234685062E+03  0.00000000000E+00 0. -1.
         23    2    1    2    0    0 -0.45755013400E+01 -0.37127782965E+01 -0.85971226614E+02  0.12532665282E+03  0.90999989927E+02 0.  0.
         24    2    1    2    0    0  0.31668784180E+02  0.89112264999E+01  0.57509420111E+02  0.10615061657E+03  0.82935505953E+02 0.  0.
        -13    1    4    4    0    0  0.55463441705E+02 -0.12673341309E+02  0.33277663712E+02  0.65910620144E+02  0.00000000000E+00 0.  1.
         14    1    4    4    0    0 -0.23794657525E+02  0.21584567809E+02  0.24231756399E+02  0.40239996427E+02  0.00000000000E+00 0. -1.
        -13    1    3    3    0    0 -0.43326752625E+02 -0.62141856087E+01 -0.71603636357E+02  0.83922013413E+02  0.00000000000E+00 0. -1.
         13    1    3    3    0    0  0.38751251285E+02  0.25014073123E+01 -0.14367590257E+02  0.41404639408E+02  0.00000000000E+00 0.  1.
         -4    1    1    2    0  502 -0.27093282840E+02 -0.51984482034E+01 -0.26500745285E+02  0.38253880057E+02  0.00000000000E+00 0.  1.
<scales pt_clust_5="13000.00000" pt_clust_6="13000.00000" pt_clust_7="13000.00000" pt_clust_8="13000.00000" pt_clust_9="13000.00000"></scales>
<clustering>
<clus scale="   82.936">  5  6 -1 -1</clus>
<clus scale="   27.588">  5  9 -1 -1</clus>
<clus scale="   91.000">  7  8 -1 -1</clus>
<clus scale="   91.191">  1  7  2 -1</clus>
<clus scale="  141.036">  2  5  1 -1</clus>
</clustering>
</event>
<event>
 9    2  0.6085395E-005  0.1916784E+03  0.7546771E-02  0.1183170E+00
         -1   -1    0    0    0  501 -0.00000000000E+00  0.00000000000E+00  0.23297250500E+03  0.23297250500E+03  0.00000000000E+00 0.  1.
         21   -1    0    0  501  502  0.00000000000E+00 -0.00000000000E+00 -0.99294161863E+02  0.99294161863E+02  0.00000000000E+00 0.  1.
         23    2    1    2    0    0 -0.43230096524E+02  0.20825439348E+02  0.82928855509E+02  0.13398376820E+03  0.93658501459E+02 0.  0.
         24    2    1    2    0    0 -0.43009534153E+02 -0.44802013574E+02  0.39490448464E+02  0.10806695786E+03  0.79132366408E+02 0.  0.
        -11    1    4    4    0    0 -0.30174473630E+02 -0.36471077090E+02 -0.16418421594E+02  0.50101925019E+02  0.00000000000E+00 0.  1.
         12    1    4    4    0    0 -0.12835060523E+02 -0.83309364842E+01  0.55908870058E+02  0.57965032843E+02  0.00000000000E+00 0. -1.
        -13    1    3    3    0    0 -0.31445496351E+02  0.49241975193E+02  0.16395860151E+02  0.60682910212E+02  0.00000000000E+00 0. -1.
         13    1    3    3    0    0 -0.11784600173E+02 -0.28416535845E+02  0.66532995358E+02  0.73300857989E+02  0.00000000000E+00 0.  1.
         -2    1    1    2    0  502  0.86239630677E+02  0.23976574226E+02  0.11259039159E+02  0.90215940796E+02  0.00000000000E+00 0.  1.
<scales pt_clust_5="13000.00000" pt_clust_6="13000.00000" pt_clust_7="13000.00000" pt_clust_8="13000.00000" pt_clust_9="13000.00000"></scales>
<clustering>
<clus scale="   79.132">  5  6 -1 -1</clus>
<clus scale="   89.511">  5  9 -1 -1</clus>
<clus scale="   93.659">  7  8 -1 -1</clus>
<clus scale="  105.235">  1  7  2 -1</clus>
<clus scale="  191.678">  2  5  1 -1</clus>
</clustering>
</event>
<event>
 9    2  0.6085395E-005  0.1218425E+03  0.7546771E-02  0.1247611E+00
          2   -1    0    0  502    0 -0.00000000000E+00  0.00000000000E+00  0.37408369159E+03  0.37408369159E+03  0.00000000000E+00 0. -1.
         21   -1    0    0  501  502  0.00000000000E+00 -0.00000000000E+00 -0.34523843156E+02  0.34523843156E+02  0.00000000000E+00 0. -1.
         23    2    1    2    0    0  0.31046757478E+01 -0.32208353362E+02  0.17369858678E+03  0.20280288011E+03  0.99552961240E+02 0.  0.
         24    2    1    2    0    0  0.19823825654E+02  0.72641000378E+01  0.87742837099E+02  0.12065525532E+03  0.80082045179E+02 0.  0.
        -11    1    4    4    0    0  0.45722224069E+02 -0.44900310708E+01  0.78124807079E+02  0.90632045293E+02  0.00000000000E+00 0.  1.
         12    1    4    4    0    0 -0.25898398415E+02  0.11754131109E+02  0.96180300202E+01  0.30023210023E+02  0.00000000000E+00 0. -1.
        -11    1    3    3    0    0 -0.31568982477E+02 -0.52469113388E+02  0.79093167295E+02  0.10002668458E+03  0.00000000000E+00 0.  1.
         11    1    3    3    0    0  0.34673658225E+02  0.20260760027E+02  0.94605419486E+02  0.10277619553E+03  0.00000000000E+00 0. -1.
          1    1    1    2  501    0 -0.22928501401E+02  0.24944253324E+02  0.78118424549E+02  0.85149399319E+02  0.00000000000E+00 0. -1.
<scales pt_clust_5="13000.00000" pt_clust_6="13000.00000" pt_clust_7="13000.00000" pt_clust_8="13000.00000" pt_clust_9="13000.00000"></scales>
<clustering>
<clus scale="   80.082">  5  6 -1 -1</clus>
<clus scale="   33.881">  5  9 -1 -1</clus>
<clus scale="   99.553">  7  8 -1 -1</clus>
<clus scale="  104.680">  1  7  2 -1</clus>
<clus scale="  121.843">  2  5  1 -1</clus>
</clustering>
</event>
<event>
 9    2  0.6085395E-005  0.1529187E+03  0.7546771E-02  0.1218339E+00
          2   -1    0    0  502    0 -0.00000000000E+00  0.00000000000E+00  0.25305031632E+03  0.25305031632E+03  0.00000000000E+00 0. -1.
         21   -1    0    0  501  502  0.00000000000E+00 -0.00000000000E+00 -0.61867270284E+02  0.61867270284E+02  0.00000000000E+00 0. -1.
         23    2    1    2    0    0 -0.72669743878E+01  0.32007236168E+02  0.62745586570E+02  0.11521701595E+03  0.90888283328E+02 0.  0.
         24    2    1    2    0    0  0.46143641534E+02  0.82410977229E+01  0.10054732009E+03  0.13717710703E+03  0.80688560339E+02 0.  0.
        -13    1    4    4    0    0  0.21105559303E+01  0.34418532977E+02  0.68670401902E+02  0.76842136592E+02  0.00000000000E+00 0.  1.
         14    1    4    4    0    0  0.44033085604E+02 -0.26177435254E+02  0.31876918184E+02  0.60334970433E+02  0.00000000000E+00 0. -1.
        -13    1    3    3    0    0  0.34975920702E+02  0.60017944314E+01  0.32871069673E+00  0.35488654752E+02  0.00000000000E+00 0. -1.
         13    1    3    3    0    0 -0.42242895090E+02  0.26005441737E+02  0.62416875873E+02  0.79728361197E+02  0.00000000000E+00 0.  1.
          1    1    1    2  501    0 -0.38876667146E+02 -0.40248333891E+02  0.27890139378E+02  0.62523463627E+02  0.00000000000E+00 0. -1.
<scales pt_clust_5="13000.00000" pt_clust_6="13000.00000" pt_clust_7="13000.00000" pt_clust_8="13000.00000" pt_clust_9="13000.00000"></scales>
<clustering>
<clus scale="   80.689">  5  6 -1 -1</clus>
<clus scale="   55.958">  5  9 -1 -1</clus>
<clus scale="   90.888">  7  8 -1 -1</clus>
<clus scale="   96.633">  1  7  2 -1</clus>
<clus scale="  152.919">  2  5  1 -1</clus>
</clustering>
</event>
<event>
 9    2  0.6085395E-005  0.4876181E+03  0.7546771E-02  0.1045646E+00
         21   -1    0    0  501  502  0.00000000000E+00  0.00000000000E+00  0.13892885176E+03  0.13892885176E+03  0.00000000000E+00 0. -1.
          2   -1    0    0  502    0 -0.00000000000E+00 -0.00000000000E+00 -0.89698499491E+03  0.89698499491E+03  0.00000000000E+00 0. -1.
         23    2    1    2    0    0 -0.10292048186E+02  0.18839904675E+03 -0.30798121733E+03  0.37233351855E+03  0.90441648253E+02 0.  0.
         24    2    1    2    0    0  0.52086791745E+02  0.91285539039E+02 -0.83221190468E+00  0.13274204378E+03  0.81078197424E+02 0.  0.
        -13    1    4    4    0    0  0.15611069541E+02  0.56177779225E+02 -0.38298588810E+02  0.69759804154E+02  0.00000000000E+00 0.  1.
         14    1    4    4    0    0  0.36475722205E+02  0.35107759814E+02  0.37466376905E+02  0.62982239622E+02  0.00000000000E+00 0. -1.
        -13    1    3    3    0    0  0.12965450959E+02  0.17687367513E+03 -0.23187004861E+03  0.29191800101E+03  0.00000000000E+00 0. -1.
         13    1    3    3    0    0 -0.23257499145E+02  0.11525371618E+02 -0.76111168719E+02  0.80415517539E+02  0.00000000000E+00 0.  1.
          1    1    1    2  501    0 -0.41794743559E+02 -0.27968458579E+03 -0.44924271392E+03  0.53083828435E+03  0.00000000000E+00 0. -1.
<scales pt_clust_5="13000.00000" pt_clust_6="13000.00000" pt_clust_7="13000.00000" pt_clust_8="13000.00000" pt_clust_9="13000.00000"></scales>
<clustering>
<clus scale="   81.078">  5  6 -1 -1</clus>
<clus scale="   90.442">  7  8 -1 -1</clus>
<clus scale="  209.236">  2  7  1 -1</clus>
<clus scale="  124.721">  5  9 -1 -1</clus>
<clus scale="  487.618">  1  5  2 -1</clus>
</clustering>
</event>
<event>
 9    2  0.6085395E-005  0.3027916E+03  0.7546771E-02  0.1128150E+00
         -3   -1    0    0    0  501 -0.00000000000E+00  0.00000000000E+00  0.42555433948E+03  0.42555433948E+03  0.00000000000E+00 0.  1.
         21   -1    0    0  501  502  0.00000000000E+00 -0.00000000000E+00 -0.10291966108E+03  0.10291966108E+03  0.00000000000E+00 0.  1.
         23    2    1    2    0    0 -0.54329605969E+01 -0.31434943109E+02  0.15351118836E+03  0.18165199057E+03  0.91728338144E+02 0.  0.
         24    2    1    2    0    0 -0.54560824098E+02 -0.10806892637E+03  0.11119756777E+03  0.18429202422E+03  0.83323914580E+02 0.  0.
        -11    1    4    4    0    0 -0.22905340727E+01 -0.88794152758E+02  0.84177662305E+02  0.12237453551E+03  0.00000000000E+00 0.  1.
         12    1    4    4    0    0 -0.52270290025E+02 -0.19274773615E+02  0.27019905467E+02  0.61917488714E+02  0.00000000000E+00 0. -1.
        -13    1    3    3    0    0  0.34498628372E+02  0.94968481501E+00  0.10662188163E+03  0.11206820648E+03  0.00000000000E+00 0. -1.
         13    1    3    3    0    0 -0.39931588969E+02 -0.32384627924E+02  0.46889306726E+02  0.69583784093E+02  0.00000000000E+00 0.  1.
         -4    1    1    2    0  502  0.59993784695E+02  0.13950386948E+03  0.57925922271E+02  0.16252998577E+03  0.00000000000E+00 0.  1.
<scales pt_clust_5="13000.00000" pt_clust_6="13000.00000" pt_clust_7="13000.00000" pt_clust_8="13000.00000" pt_clust_9="13000.00000"></scales>
<clustering>
<clus scale="   83.324">  5  6 -1 -1</clus>
<clus scale="   91.728">  7  8 -1 -1</clus>
<clus scale="   97.117">  1  7  2 -1</clus>
<clus scale="  138.637">  5  9 -1 -1</clus>
<clus scale="  302.792">  2  5  1 -1</clus>
</clustering>
</event>
<event>
 9    2  0.6085395E-005  0.2190683E+03  0.7546771E-02  0.1160565E+00
         21   -1    0    0  501  502  0.00000000000E+00  0.00000000000E+00  0.36171914598E+02  0.36171914598E+02  0.00000000000E+00 0.  1.
         -1   -1    0    0    0  501 -0.00000000000E+00 -0.00000000000E+00 -0.86981874940E+03  0.86981874940E+03  0.00000000000E+00 0.  1.
         23    2    1    2    0    0 -0.72442608187E+02 -0.20649577964E+02 -0.16871757669E+03  0.20590365694E+03  0.90864507405E+02 0.  0.
         24    2    1    2    0    0  0.81150466237E+02 -0.64543916936E+02 -0.34617404196E+03  0.37002845742E+03  0.79581886072E+02 0.  0.
        -13    1    4    4    0    0  0.82282399685E+02 -0.80260851985E+02 -0.30558810835E+03  0.32649087219E+03  0.00000000000E+00 0.  1.
         14    1    4    4    0    0 -0.11319334484E+01  0.15716935049E+02 -0.40585933605E+02  0.43537585225E+02  0.00000000000E+00 0. -1.
        -13    1    3    3    0    0 -0.39781439483E+02 -0.52446214095E+02 -0.64528530608E+02  0.92179713401E+02  0.00000000000E+00 0. -1.
         13    1    3    3    0    0 -0.32661168704E+02  0.31796636131E+02 -0.10418904609E+03  0.11372394354E+03  0.00000000000E+00 0.  1.
         -2    1    1    2    0  502 -0.87078580503E+01  0.85193494900E+02 -0.31875521615E+03  0.33005854963E+03  0.00000000000E+00 0.  1.
<scales pt_clust_5="13000.00000" pt_clust_6="13000.00000" pt_clust_7="13000.00000" pt_clust_8="13000.00000" pt_clust_9="13000.00000"></scales>
<clustering>
<clus scale="   79.582">  5  6 -1 -1</clus>
<clus scale="   85.637">  5  9 -1 -1</clus>
<clus scale="   90.865">  7  8 -1 -1</clus>
<clus scale="  118.028">  2  7  1 -1</clus>
<clus scale="  219.068">  1  5  2 -1</clus>
</clustering>
</event>
<event>
 9    2  0.6085395E-005  0.4898362E+03  0.7546771E-02  0.1028812E+00
         21   -1    0    0  501  502  0.00000000000E+00  0.00000000000E+00  0.12205710104E+03  0.12205710104E+03  0.00000000000E+00 0. -1.
          2   -1    0    0  502    0 -0.00000000000E+00 -0.00000000000E+00 -0.14079498261E+04  0.14079498261E+04  0.00000000000E+00 0. -1.
         23    2    1    2    0    0  0.18809495658E+03 -0.26488537334E+03 -0.47991516127E+03  0.58685301128E+03  0.92379224574E+02 0.  0.
         24    2    1    2    0    0  0.31774196120E+02 -0.33271086736E+01 -0.39954689908E+03  0.40886348453E+03  0.80690490291E+02 0.  0.
        -11    1    4    4    0    0 -0.73328173411E+01 -0.25141850646E+02 -0.49846836369E+02  0.56307991974E+02  0.00000000000E+00 0.  1.
         12    1    4    4    0    0  0.39107013461E+02  0.21814741973E+02 -0.34970006271E+03  0.35255549255E+03  0.00000000000E+00 0. -1.
        -11    1    3    3    0    0  0.14173697845E+03 -0.21006337119E+03 -0.29737679517E+03  0.39070314726E+03  0.00000000000E+00 0. -1.
         11    1    3    3    0    0  0.46357978126E+02 -0.54822002151E+02 -0.18253836610E+03  0.19614986402E+03  0.00000000000E+00 0.  1.
          1    1    1    2  501    0 -0.21986915270E+03  0.26821248201E+03 -0.40643066474E+03  0.53429043137E+03  0.00000000000E+00 0. -1.
<scales pt_clust_5="13000.00000" pt_clust_6="13000.00000" pt_clust_7="13000.00000" pt_clust_8="13000.00000" pt_clust_9="13000.00000"></scales>
<clustering>
<clus scale="   80.690">  5  6 -1 -1</clus>
<clus scale="   92.379">  7  8 -1 -1</clus>
<clus scale="  337.754">  2  7  1 -1</clus>
<clus scale="  172.930">  5  9 -1 -1</clus>
<clus scale="  489.836">  1  5  2 -1</clus>
</clustering>
</event>
<event>
 9    2  0.6085395E-005  0.1329126E+03  0.7546771E-02  0.1236281E+00
         21   -1    0    0  501  502  0.00000000000E+00  0.00000000000E+00  0.16917916732E+02  0.16917916732E+02  0.00000000000E+00 0. -1.
          2   -1    0    0  502    0 -0.00000000000E+00 -0.00000000000E+00 -0.81563994863E+03  0.81563994863E+03  0.00000000000E+00 0. -1.
         23    2    1    2    0    0 -0.39250223679E+02 -0.10933318755E+01 -0.31671344202E+03  0.33255981225E+03  0.93524590008E+02 0.  0.
         24    2    1    2    0    0 -0.52641007765E+01  0.21693991635E+02 -0.32318277307E+03  0.33377064156E+03  0.80357926370E+02 0.  0.
        -13    1    4    4    0    0 -0.20893072743E+02  0.44215347090E+02 -0.26473015454E+03  0.26920916056E+03  0.00000000000E+00 0.  1.
         14    1    4    4    0    0  0.15628971967E+02 -0.22521355455E+02 -0.58452618524E+02  0.64561480997E+02  0.00000000000E+00 0. -1.
        -13    1    3    3    0    0 -0.79189784147E+01 -0.42964685530E+02 -0.19921127137E+03  0.20394559339E+03  0.00000000000E+00 0.  1.
         13    1    3    3    0    0 -0.31331245264E+02  0.41871353654E+02 -0.11750217065E+03  0.12861421886E+03  0.00000000000E+00 0. -1.
          1    1    1    2  501    0  0.44514324455E+02 -0.20600659760E+02 -0.15882581681E+03  0.16622741155E+03  0.00000000000E+00 0. -1.
<scales pt_clust_5="13000.00000" pt_clust_6="13000.00000" pt_clust_7="13000.00000" pt_clust_8="13000.00000" pt_clust_9="13000.00000"></scales>
<clustering>
<clus scale="   80.358">  5  6 -1 -1</clus>
<clus scale="   49.050">  5  9 -1 -1</clus>
<clus scale="   93.525">  7  8 -1 -1</clus>
<clus scale="  101.433">  2  7  1 -1</clus>
<clus scale="  132.913">  1  5  2 -1</clus>
</clustering>
</event>
<event>
 9    2  0.6085395E-005  0.1706880E+03  0.7546771E-02  0.1195493E+00
         21   -1    0    0  501  502  0.00000000000E+00  0.00000000000E+00  0.13250566409E+03  0.13250566409E+03  0.00000000000E+00 0. -1.
          2   -1    0    0  502    0 -0.00000000000E+00 -0.00000000000E+00 -0.41118144571E+03  0.41118144571E+03  0.00000000000E+00 0. -1.
         23    2    1    2    0    0 -0.24250877565E+02 -0.62919110399E+02 -0.34299903958E+03  0.36128131342E+03  0.91262953915E+02 0.  0.
         24    2    1    2    0    0 -0.13361213847E+02 -0.14983470704E+02  0.36434477357E+02  0.91514291568E+02  0.81512992775E+02 0.  0.
        -11    1    4    4    0    0 -0.31599199803E+02  0.13571171058E+02 -0.83186487132E+01  0.35382001476E+02  0.00000000000E+00 0.  1.
         12    1    4    4    0    0  0.18237985956E+02 -0.28554641762E+02  0.44753126070E+02  0.56132290091E+02  0.00000000000E+00 0. -1.
        -11    1    3    3    0    0 -0.26826203150E+01 -0.66481019617E+02 -0.32821508072E+03  0.33489111908E+03  0.00000000000E+00 0. -1.
         11    1    3    3    0    0 -0.21568257250E+02  0.35619092173E+01 -0.14783958858E+02  0.26390194346E+02  0.00000000000E+00 0.  1.
          1    1    1    2  501    0  0.37612091412E+02  0.77902581103E+02  0.27888780603E+02  0.90891504809E+02  0.00000000000E+00 0. -1.
<scales pt_clust_5="13000.00000" pt_clust_6="13000.00000" pt_clust_7="13000.00000" pt_clust_8="13000.00000" pt_clust_9="13000.00000"></scales>
<clustering>
<clus scale="   81.513">  5  6 -1 -1</clus>
<clus scale="   86.507">  5  9 -1 -1</clus>
<clus scale="   91.263">  7  8 -1 -1</clus>
<clus scale="  113.472">  2  7  1 -1</clus>
<clus scale="  170.688">  1  5  2 -1</clus>
</clustering>
</event>
<event>
 9    2  0.6085395E-005  0.5481931E+03  0.7546771E-02  0.1062915E+00
          2   -1    0    0  502    0 -0.00000000000E+00  0.00000000000E+00  0.56609130112E+03  0.56609130112E+03  0.00000000000E+00 0. -1.
         21   -1    0    0  501  502  0.00000000000E+00 -0.00000000000E+00 -0.18892255164E+03  0.18892255164E+03  0.00000000000E+00 0. -1.
         23    2    1    2    0    0 -0.13080880755E+02  0.12333477661E+02  0.11810011047E+03  0.14868698227E+03  0.88526597647E+02 0.  0.
         24    2    1    2    0    0  0.11857826097E+03  0.21057447425E+03  0.83632439160E+01  0.25465820912E+03  0.79865176651E+02 0.  0.
        -11    1    4    4    0    0  0.10877485151E+03  0.14958893341E+03  0.33509511209E+02  0.18796729679E+03  0.00000000000E+00 0.  1.
         12    1    4    4    0    0  0.98034094586E+01  0.60985540843E+02 -0.25146267293E+02  0.66690912332E+02  0.00000000000E+00 0. -1.
        -13    1    3    3    0    0  0.19433563266E+01 -0.35351814882E+02  0.26121210855E+02  0.43998239803E+02  0.00000000000E+00 0.  1.
         13    1    3    3    0    0 -0.15024237082E+02  0.47685292543E+02  0.91978899619E+02  0.10468874247E+03  0.00000000000E+00 0. -1.
          1    1    1    2  501    0 -0.10549738021E+03 -0.22290795191E+03  0.25070539510E+03  0.35166866137E+03  0.00000000000E+00 0. -1.
<scales pt_clust_5="13000.00000" pt_clust_6="13000.00000" pt_clust_7="13000.00000" pt_clust_8="13000.00000" pt_clust_9="13000.00000"></scales>
<clustering>
<clus scale="   79.865">  5  6 -1 -1</clus>
<clus scale="   88.527">  7  8 -1 -1</clus>
<clus scale="   90.334">  1  7  2 -1</clus>
<clus scale="  243.039">  5  9 -1 -1</clus>
<clus scale="  548.193">  2  5  1 -1</clus>
</clustering>
</event>
<event>
 9    2  0.6085395E-005  0.6645551E+03  0.7546771E-02  0.1026128E+00
         21   -1    0    0  501  502  0.00000000000E+00  0.00000000000E+00  0.21714589511E+03  0.21714589511E+03  0.00000000000E+00 0. -1.
          2   -1    0    0  502    0 -0.00000000000E+00 -0.00000000000E+00 -0.87245663744E+03  0.87245663744E+03  0.00000000000E+00 0. -1.
         23    2    1    2    0    0 -0.10627554761E+03  0.41693038164E+02 -0.30499298225E+03  0.33836625061E+03  0.91859669486E+02 0.  0.
         24    2    1    2    0    0 -0.14999642140E+03  0.14323258655E+03 -0.37237163645E+03  0.43444110799E+03  0.84047250986E+02 0.  0.
        -11    1    4    4    0    0 -0.53580076758E+01  0.52743391501E+02 -0.95289368758E+02  0.10904419926E+03  0.00000000000E+00 0.  1.
         12    1    4    4    0    0 -0.14463841372E+03  0.90489195053E+02 -0.27708226769E+03  0.32539690873E+03  0.00000000000E+00 0. -1.
        -13    1    3    3    0    0 -0.33430142304E+02  0.56812779827E+02 -0.19270767402E+03  0.20367011070E+03  0.00000000000E+00 0.  1.
         13    1    3    3    0    0 -0.72845405307E+02 -0.15119741663E+02 -0.11228530823E+03  0.13469613991E+03  0.00000000000E+00 0. -1.
          1    1    1    2  501    0  0.25627196901E+03 -0.18492562472E+03  0.22053876370E+02  0.31679517395E+03  0.00000000000E+00 0. -1.
<scales pt_clust_5="13000.00000" pt_clust_6="13000.00000" pt_clust_7="13000.00000" pt_clust_8="13000.00000" pt_clust_9="13000.00000"></scales>
<clustering>
<clus scale="   84.047">  5  6 -1 -1</clus>
<clus scale="   91.860">  7  8 -1 -1</clus>
<clus scale="  146.530">  2  7  1 -1</clus>
<clus scale="  286.540">  5  9 -1 -1</clus>
<clus scale="  664.555">  1  5  2 -1</clus>
</clustering>
</event>
<event>
 9    2  0.6465110E-005  0.3909001E+03  0.7546771E-02  0.1078178E+00
          2   -1    0    0  502    0 -0.00000000000E+00  0.00000000000E+00  0.91100508867E+03  0.91100508867E+03  0.00000000000E+00 0. -1.
         21   -1    0    0  501  502  0.00000000000E+00 -0.00000000000E+00 -0.86888525550E+02  0.86888525550E+02  0.00000000000E+00 0. -1.
         23    2    1    2    0    0  0.97528238765E+02 -0.10078283395E+03  0.32424467855E+03  0.36332698177E+03  0.84870178128E+02 0.  0.
         24    2    1    2    0    0  0.10441832952E+03 -0.43870901180E+02  0.13668114852E+03  0.19455000744E+03  0.79624905178E+02 0.  0.
        -11    1    4    4    0    0  0.43459604977E+02 -0.35366365525E+01  0.10721003102E+03  0.11573778905E+03  0.00000000000E+00 0.  1.
         12    1    4    4    0    0  0.60958724548E+02 -0.40334264627E+02  0.29471117501E+02  0.78812218395E+02  0.00000000000E+00 0. -1.
        -13    1    3    3    0    0  0.32118523174E+02 -0.36073579503E+01  0.21786593166E+02  0.38977791164E+02  0.00000000000E+00 0.  1.
         13    1    3    3    0    0  0.65409715591E+02 -0.97175476004E+02  0.30245808538E+03  0.32434919060E+03  0.00000000000E+00 0. -1.
          1    1    1    2  501    0 -0.20194656829E+03  0.14465373513E+03  0.36319073605E+03  0.44001662501E+03  0.00000000000E+00 0. -1.
<scales pt_clust_5="13000.00000" pt_clust_6="13000.00000" pt_clust_7="13000.00000" pt_clust_8="13000.00000" pt_clust_9="13000.00000"></scales>
<clustering>
<clus scale="   79.625">  5  6 -1 -1</clus>
<clus scale="   84.870">  7  8 -1 -1</clus>
<clus scale="  163.926">  1  7  2 -1</clus>
<clus scale="  151.768">  5  9 -1 -1</clus>
<clus scale="  390.900">  2  5  1 -1</clus>
</clustering>
</event>
<event>
 9    2  0.6085395E-005  0.1086026E+03  0.7546771E-02  0.1270377E+00
          2   -1    0    0  502    0 -0.00000000000E+00  0.00000000000E+00  0.26698893929E+03  0.26698893929E+03  0.00000000000E+00 0. -1.
         21   -1    0    0  501  502  0.00000000000E+00 -0.00000000000E+00 -0.58341758553E+02  0.58341758553E+02  0.00000000000E+00 0. -1.
         23    2    1    2    0    0 -0.94338032646E+01  0.24038457318E+02  0.50229540064E+01  0.94555148427E+02  0.90821814301E+02 0.  0.
         24    2    1    2    0    0  0.33028710536E+02  0.11648339417E+02  0.13120414694E+03  0.14666291620E+03  0.55397683004E+02 0.  0.
        -13    1    4    4    0    0  0.21727173511E+02  0.21840733461E+01  0.90749289685E+01  0.23647295425E+02  0.00000000000E+00 0.  1.
         14    1    4    4    0    0  0.11301537025E+02  0.94642660712E+01  0.12212921797E+03  0.12301562077E+03  0.00000000000E+00 0. -1.
        -11    1    3    3    0    0  0.11295962236E+01  0.47675892877E+02  0.31791371095E+02  0.57314553347E+02  0.00000000000E+00 0.  1.
         11    1    3    3    0    0 -0.10563399488E+02 -0.23637435559E+02 -0.26768417089E+02  0.37240595081E+02  0.00000000000E+00 0. -1.
          1    1    1    2  501    0 -0.23594907271E+02 -0.35686796735E+02  0.72420079794E+02  0.84112633223E+02  0.00000000000E+00 0. -1.
<scales pt_clust_5="13000.00000" pt_clust_6="13000.00000" pt_clust_7="13000.00000" pt_clust_8="13000.00000" pt_clust_9="13000.00000"></scales>
<clustering>
<clus scale="   55.398">  5  6 -1 -1</clus>
<clus scale="   42.782">  5  9 -1 -1</clus>
<clus scale="   90.822">  7  8 -1 -1</clus>
<clus scale="   94.422">  1  7  2 -1</clus>
<clus scale="  108.603">  2  5  1 -1</clus>
</clustering>
</event>
<event>
 9    2  0.6085395E-005  0.3337378E+03  0.7546771E-02  0.1114476E+00
          2   -1    0    0  502    0 -0.00000000000E+00  0.00000000000E+00  0.34090409346E+03  0.34090409346E+03  0.00000000000E+00 0. -1.
         21   -1    0    0  501  502  0.00000000000E+00 -0.00000000000E+00 -0.14520330818E+03  0.14520330818E+03  0.00000000000E+00 0. -1.
         23    2    1    2    0    0  0.16666090856E+02 -0.43160010060E+02  0.59340525475E+01  0.10219035239E+03  0.90923649779E+02 0.  0.
         24    2    1    2    0    0 -0.75254071155E+02  0.52710691328E+02  0.26135987965E+03  0.29091519102E+03  0.88775387755E+02 0.  0.
        -13    1    4    4    0    0 -0.48007901087E+02 -0.18377620753E+02  0.11388322635E+03  0.12494752800E+03  0.00000000000E+00 0.  1.
         14    1    4    4    0    0 -0.27246170069E+02  0.71088312081E+02  0.14747665330E+03  0.16596766302E+03  0.00000000000E+00 0. -1.
        -13    1    3    3    0    0  0.37446935807E+02  0.90365069438E+01  0.21202611919E+02  0.43971379456E+02  0.00000000000E+00 0.  1.
         13    1    3    3    0    0 -0.20780844950E+02 -0.52196517004E+02 -0.15268559371E+02  0.58218972934E+02  0.00000000000E+00 0. -1.
          1    1    1    2  501    0  0.58587980299E+02 -0.95506812681E+01 -0.71593146917E+02  0.93001858227E+02  0.00000000000E+00 0. -1.
<scales pt_clust_5="13000.00000" pt_clust_6="13000.00000" pt_clust_7="13000.00000" pt_clust_8="13000.00000" pt_clust_9="13000.00000"></scales>
<clustering>
<clus scale="   88.775">  5  6 -1 -1</clus>
<clus scale="   59.361">  5  9 -1 -1</clus>
<clus scale="   90.924">  7  8 -1 -1</clus>
<clus scale="  102.018">  1  7  2 -1</clus>
<clus scale="  333.738">  2  5  1 -1</clus>
</clustering>
</event>
<event>
 9    2  0.6085395E-005  0.1661028E+03  0.7546771E-02  0.1195018E+00
         21   -1    0    0  501  502  0.00000000000E+00  0.00000000000E+00  0.34489804471E+02  0.34489804471E+02  0.00000000000E+00 0. -1.
          2   -1    0    0  502    0 -0.00000000000E+00 -0.00000000000E+00 -0.62662208291E+03  0.62662208291E+03  0.00000000000E+00 0. -1.
         23    2    1    2    0    0  0.17322046199E+02  0.83466496630E+02 -0.20425670552E+03  0.23916687487E+03  0.90627164465E+02 0.  0.
         24    2    1    2    0    0 -0.31139272882E+02 -0.30953872667E+02 -0.13396955068E+03  0.16229763711E+03  0.80404514499E+02 0.  0.
        -11    1    4    4    0    0  0.22356659267E+02 -0.10441829869E+02 -0.79510107804E+02  0.83250881482E+02  0.00000000000E+00 0.  1.
         12    1    4    4    0    0 -0.53495932149E+02 -0.20512042798E+02 -0.54459442880E+02  0.79046755626E+02  0.00000000000E+00 0. -1.
        -11    1    3    3    0    0  0.42578062538E+02  0.87341800350E+02 -0.17621909415E+03  0.20123282695E+03  0.00000000000E+00 0. -1.
         11    1    3    3    0    0 -0.25256016338E+02 -0.38753037206E+01 -0.28037611373E+02  0.37934047922E+02  0.00000000000E+00 0.  1.
          1    1    1    2  501    0  0.13817226683E+02 -0.52512623963E+02 -0.25390602224E+03  0.25964737541E+03  0.00000000000E+00 0. -1.
<scales pt_clust_5="13000.00000" pt_clust_6="13000.00000" pt_clust_7="13000.00000" pt_clust_8="13000.00000" pt_clust_9="13000.00000"></scales>
<clustering>
<clus scale="   80.405">  5  6 -1 -1</clus>
<clus scale="   54.300">  5  9 -1 -1</clus>
<clus scale="   90.627">  7  8 -1 -1</clus>
<clus scale="  124.419">  2  7  1 -1</clus>
<clus scale="  166.103">  1  5  2 -1</clus>
</clustering>
</event>
<event>
 9    2  0.6085395E-005  0.2152931E+03  0.7546771E-02  0.1162877E+00
         21   -1    0    0  501  502  0.00000000000E+00  0.00000000000E+00  0.81699814556E+02  0.81699814556E+02  0.00000000000E+00 0. -1.
          2   -1    0    0  502    0 -0.00000000000E+00 -0.00000000000E+00 -0.35468356240E+03  0.35468356240E+03  0.00000000000E+00 0. -1.
         23    2    1    2    0    0 -0.33885906293E+02  0.66492195282E+02 -0.14135670154E+03  0.18404072309E+03  0.91212959651E+02 0.  0.
         24    2    1    2    0    0 -0.24340758767E+02  0.13481058700E+02  0.43127122088E+01  0.84218640642E+02  0.79372340673E+02 0.  0.
        -13    1    4    4    0    0 -0.32384483400E+02 -0.27043274874E+02  0.72077967258E+01  0.42802404309E+02  0.00000000000E+00 0.  1.
         14    1    4    4    0    0  0.80437246325E+01  0.40524333575E+02 -0.28950845170E+01  0.41416236333E+02  0.00000000000E+00 0. -1.
        -11    1    3    3    0    0  0.23475330179E+02  0.48069497282E+02 -0.90821197791E+02  0.10540520701E+03  0.00000000000E+00 0.  1.
         11    1    3    3    0    0 -0.57361236472E+02  0.18422698000E+02 -0.50535503747E+02  0.78635516086E+02  0.00000000000E+00 0. -1.
          1    1    1    2  501    0  0.58226665060E+02 -0.79973253982E+02 -0.13593975852E+03  0.16812401322E+03  0.00000000000E+00 0. -1.
<scales pt_clust_5="13000.00000" pt_clust_6="13000.00000" pt_clust_7="13000.00000" pt_clust_8="13000.00000" pt_clust_9="13000.00000"></scales>
<clustering>
<clus scale="   79.372">  5  6 -1 -1</clus>
<clus scale="   91.213">  7  8 -1 -1</clus>
<clus scale="   98.925">  5  9 -1 -1</clus>
<clus scale="  117.853">  2  7  1 -1</clus>
<clus scale="  215.293">  1  5  2 -1</clus>
</clustering>
</event>
<event>
 9    2  0.6085395E-005  0.1382357E+03  0.7546771E-02  0.1226046E+00
         21   -1    0    0  501  502  0.00000000000E+00  0.00000000000E+00  0.22603186864E+02  0.22603186864E+02  0.00000000000E+00 0.  1.
         -1   -1    0    0    0  501 -0.00000000000E+00 -0.00000000000E+00 -0.69559031461E+03  0.69559031461E+03  0.00000000000E+00 0.  1.
         23    2    1    2    0    0 -0.52385448105E+02  0.34247318326E+02 -0.26553504314E+03  0.28793042762E+03  0.92075827623E+02 0.  0.
         24    2    1    2    0    0  0.48437588671E+01 -0.24384698619E+02 -0.19461984785E+03  0.21196272001E+03  0.80207443356E+02 0.  0.
        -11    1    4    4    0    0  0.30818974044E+02  0.16922534801E+02 -0.79393401235E+02  0.86830256851E+02  0.00000000000E+00 0.  1.
         12    1    4    4    0    0 -0.25975215177E+02 -0.41307233420E+02 -0.11522644661E+03  0.12513246315E+03  0.00000000000E+00 0. -1.
        -13    1    3    3    0    0 -0.56497686405E+02  0.14086744486E+02 -0.26025353693E+03  0.26668769830E+03  0.00000000000E+00 0.  1.
         13    1    3    3    0    0  0.41122382998E+01  0.20160573840E+02 -0.52815062076E+01  0.21242729326E+02  0.00000000000E+00 0. -1.
         -2    1    1    2    0  502  0.47541689238E+02 -0.98626197075E+01 -0.21283223677E+03  0.21830035385E+03  0.00000000000E+00 0.  1.
<scales pt_clust_5="13000.00000" pt_clust_6="13000.00000" pt_clust_7="13000.00000" pt_clust_8="13000.00000" pt_clust_9="13000.00000"></scales>
<clustering>
<clus scale="   80.207">  5  6 -1 -1</clus>
<clus scale="   48.554">  5  9 -1 -1</clus>
<clus scale="   92.076">  7  8 -1 -1</clus>
<clus scale="  111.333">  2  7  1 -1</clus>
<clus scale="  138.236">  1  5  2 -1</clus>
</clustering>
</event>
<event>
 9    2  0.6085395E-005  0.1899386E+03  0.7546771E-02  0.1189941E+00
         21   -1    0    0  501  502  0.00000000000E+00  0.00000000000E+00  0.88050590195E+02  0.88050590195E+02  0.00000000000E+00 0. -1.
          2   -1    0    0  502    0 -0.00000000000E+00 -0.00000000000E+00 -0.40993561859E+03  0.40993561859E+03  0.00000000000E+00 0. -1.
         23    2    1    2    0    0  0.17056205404E+02  0.81728343848E+01  0.30295363921E+02  0.97851582623E+02  0.91101118446E+02 0.  0.
         24    2    1    2    0    0 -0.40147187657E+02 -0.44990518997E+02 -0.89872523526E+02  0.13425090460E+03  0.79437342764E+02 0.  0.
        -11    1    4    4    0    0 -0.53602312068E+02 -0.55583201050E+02 -0.87920074882E+02  0.11701555309E+03  0.00000000000E+00 0.  1.
         12    1    4    4    0    0  0.13455124412E+02  0.10592682053E+02 -0.19524486436E+01  0.17235351511E+02  0.00000000000E+00 0. -1.
        -11    1    3    3    0    0  0.29747792542E+02  0.44438787794E+02  0.25118023522E+02  0.59081741066E+02  0.00000000000E+00 0. -1.
         11    1    3    3    0    0 -0.12691587137E+02 -0.36265953410E+02  0.51773403983E+01  0.38769841557E+02  0.00000000000E+00 0.  1.
          1    1    1    2  501    0  0.23090982252E+02  0.36817684612E+02 -0.26230786879E+03  0.26588372156E+03  0.00000000000E+00 0. -1.
<scales pt_clust_5="13000.00000" pt_clust_6="13000.00000" pt_clust_7="13000.00000" pt_clust_8="13000.00000" pt_clust_9="13000.00000"></scales>
<clustering>
<clus scale="   79.437">  5  6 -1 -1</clus>
<clus scale="   43.460">  5  9 -1 -1</clus>
<clus scale="   91.101">  7  8 -1 -1</clus>
<clus scale="   93.044">  2  7  1 -1</clus>
<clus scale="  189.939">  1  5  2 -1</clus>
</clustering>
</event>
<event>
 9    2  0.6085395E-005  0.1489557E+03  0.7546771E-02  0.1220790E+00
         -1   -1    0    0    0  501 -0.00000000000E+00  0.00000000000E+00  0.25144107888E+03  0.25144107888E+03  0.00000000000E+00 0.  1.
         21   -1    0    0  501  502  0.00000000000E+00 -0.00000000000E+00 -0.74718922234E+02  0.74718922234E+02  0.00000000000E+00 0. -1.
         23    2    1    2    0    0  0.20151991177E+02 -0.32568854682E+02  0.14188613953E+03  0.17318497917E+03  0.91621653407E+02 0.  0.
         24    2    1    2    0    0 -0.85800875622E+01  0.57936280073E+02  0.40242342336E+00  0.10866827756E+03  0.91533612139E+02 0.  0.
        -11    1    4    4    0    0 -0.48051446828E+02  0.46928185081E+02 -0.49251470338E+01  0.67345773220E+02  0.00000000000E+00 0.  1.
         12    1    4    4    0    0  0.39471359266E+02  0.11008094993E+02  0.53275704572E+01  0.41322504337E+02  0.00000000000E+00 0. -1.
        -11    1    3    3    0    0 -0.35239778123E+02 -0.75542701404E+00  0.55502409862E+02  0.65748993397E+02  0.00000000000E+00 0.  1.
         11    1    3    3    0    0  0.55391769300E+02 -0.31813427668E+02  0.86383729672E+02  0.10743598577E+03  0.00000000000E+00 0. -1.
         -2    1    1    2    0  502 -0.11571903615E+02 -0.25367425391E+02  0.34433593684E+02  0.44306744388E+02  0.00000000000E+00 0.  1.
<scales pt_clust_5="13000.00000" pt_clust_6="13000.00000" pt_clust_7="13000.00000" pt_clust_8="13000.00000" pt_clust_9="13000.00000"></scales>
<clustering>
<clus scale="   91.534">  5  6 -1 -1</clus>
<clus scale="   27.882">  5  9 -1 -1</clus>
<clus scale="   91.622">  7  8 -1 -1</clus>
<clus scale="   99.304">  1  7  2 -1</clus>
<clus scale="  148.956">  2  5  1 -1</clus>
</clustering>
</event>
<event>
 9    2  0.6085395E-005  0.2986570E+03  0.7546771E-02  0.1104454E+00
          2   -1    0    0  502    0 -0.00000000000E+00  0.00000000000E+00  0.10962887990E+04  0.10962887990E+04  0.00000000000E+00 0. -1.
         21   -1    0    0  501  502  0.00000000000E+00 -0.00000000000E+00 -0.54774005680E+02  0.54774005680E+02  0.00000000000E+00 0.  1.
         23    2    1    2    0    0 -0.28789881813E+02  0.15559003109E+03  0.49898187362E+03  0.53175838531E+03  0.93525157439E+02 0.  0.
         24    2    1    2    0    0 -0.52199751310E+02  0.40081611859E+01  0.32288642045E+03  0.33597512636E+03  0.76699189227E+02 0.  0.
        -11    1    4    4    0    0 -0.57376012367E+01  0.33313739934E+02  0.17456972772E+03  0.17781258441E+03  0.00000000000E+00 0.  1.
         12    1    4    4    0    0 -0.46462150073E+02 -0.29305578748E+02  0.14831669273E+03  0.15816254195E+03  0.00000000000E+00 0. -1.
        -13    1    3    3    0    0 -0.83785260283E+01  0.14324602312E+03  0.48082903117E+03  0.50178300096E+03  0.00000000000E+00 0.  1.
         13    1    3    3    0    0 -0.20411355785E+02  0.12344007966E+02  0.18152842453E+02  0.29975384347E+02  0.00000000000E+00 0. -1.
          1    1    1    2  501    0  0.80989633123E+02 -0.15959819228E+03  0.21964649929E+03  0.28332929305E+03  0.00000000000E+00 0. -1.
<scales pt_clust_5="13000.00000" pt_clust_6="13000.00000" pt_clust_7="13000.00000" pt_clust_8="13000.00000" pt_clust_9="13000.00000"></scales>
<clustering>
<clus scale="   76.699">  5  6 -1 -1</clus>
<clus scale="   93.525">  7  8 -1 -1</clus>
<clus scale="  178.972">  5  9 -1 -1</clus>
<clus scale="  183.804">  1  7  2 -1</clus>
<clus scale="  298.657">  2  5  1 -1</clus>
</clustering>
</event>
<event>
 9    2  0.6085395E-005  0.2211107E+03  0.7546771E-02  0.1159819E+00
          4   -1    0    0  502    0 -0.00000000000E+00  0.00000000000E+00  0.30207581379E+03  0.30207581379E+03  0.00000000000E+00 0. -1.
         21   -1    0    0  501  502  0.00000000000E+00 -0.00000000000E+00 -0.95261884494E+02  0.95261884494E+02  0.00000000000E+00 0. -1.
         23    2    1    2    0    0  0.81471772158E+02 -0.36498385446E+01  0.88668431555E+02  0.14664206429E+03  0.83611203113E+02 0.  0.
         24    2    1    2    0    0 -0.68867372714E+02 -0.15211848428E+02  0.16608625195E+03  0.19765838259E+03  0.80685052914E+02 0.  0.
        -11    1    4    4    0    0 -0.46480622421E+02 -0.45065584606E+02  0.13242849440E+03  0.14740644934E+03  0.00000000000E+00 0.  1.
         12    1    4    4    0    0 -0.22386750292E+02  0.29853736178E+02  0.33657757550E+02  0.50251933253E+02  0.00000000000E+00 0. -1.
        -11    1    3    3    0    0  0.87857981834E+02  0.21809317841E+02  0.70013823834E+02  0.11444040739E+03  0.00000000000E+00 0.  1.
         11    1    3    3    0    0 -0.63862096760E+01 -0.25459156386E+02  0.18654607721E+02  0.32201656900E+02  0.00000000000E+00 0. -1.
          3    1    1    2  501    0 -0.12604399444E+02  0.18861686973E+02 -0.47940754215E+02  0.53037251395E+02  0.00000000000E+00 0. -1.
<scales pt_clust_5="13000.00000" pt_clust_6="13000.00000" pt_clust_7="13000.00000" pt_clust_8="13000.00000" pt_clust_9="13000.00000"></scales>
<clustering>
<clus scale="   80.685">  5  6 -1 -1</clus>
<clus scale="   22.686">  5  9 -1 -1</clus>
<clus scale="   83.611">  7  8 -1 -1</clus>
<clus scale="  116.798">  1  7  2 -1</clus>
<clus scale="  221.111">  2  5  1 -1</clus>
</clustering>
</event>
<event>
 9    2  0.6085395E-005  0.2317024E+03  0.7546771E-02  0.1159425E+00
         21   -1    0    0  501  502  0.00000000000E+00  0.00000000000E+00  0.35554274921E+03  0.35554274921E+03  0.00000000000E+00 0.  1.
          4   -1    0    0  502    0 -0.00000000000E+00 -0.00000000000E+00 -0.82781387510E+02  0.82781387510E+02  0.00000000000E+00 0. -1.
         23    2    1    2    0    0 -0.18174958317E+02  0.45832405415E+02  0.13247686653E+03  0.16746300199E+03  0.89793086447E+02 0.  0.
         24    2    1    2    0    0  0.29962370486E+02  0.32832654677E+02  0.16403208562E+03  0.18784858858E+03  0.80030245922E+02 0.  0.
        -13    1    4    4    0    0  0.23793460835E+02  0.20100318485E+02  0.93493552532E+01  0.32520178741E+02  0.00000000000E+00 0.  1.
         14    1    4    4    0    0  0.61689096506E+01  0.12732336193E+02  0.15468273036E+03  0.15532840984E+03  0.00000000000E+00 0. -1.
        -11    1    3    3    0    0 -0.51044251663E+02  0.46577000864E+02  0.96972289669E+02  0.11907374858E+03  0.00000000000E+00 0.  1.
         11    1    3    3    0    0  0.32869293346E+02 -0.74459544932E+00  0.35504576863E+02  0.48389253411E+02  0.00000000000E+00 0. -1.
          3    1    1    2  501    0 -0.11787412169E+02 -0.78665060092E+02 -0.23747590452E+02  0.83012546143E+02  0.00000000000E+00 0. -1.
<scales pt_clust_5="13000.00000" pt_clust_6="13000.00000" pt_clust_7="13000.00000" pt_clust_8="13000.00000" pt_clust_9="13000.00000"></scales>
<clustering>
<clus scale="   80.030">  5  6 -1 -1</clus>
<clus scale="   79.543">  5  9 -1 -1</clus>
<clus scale="   89.793">  7  8 -1 -1</clus>
<clus scale="  102.439">  2  7  1 -1</clus>
<clus scale="  231.702">  1  5  2 -1</clus>
</clustering>
</event>
<event>
 9    2  0.6085395E-005  0.8751390E+03  0.7546771E-02  0.1004783E+00
         -1   -1    0    0    0  501 -0.00000000000E+00  0.00000000000E+00  0.16617616867E+03  0.16617616867E+03  0.00000000000E+00 0.  1.
         21   -1    0    0  501  502  0.00000000000E+00 -0.00000000000E+00 -0.18062245967E+04  0.18062245967E+04  0.00000000000E+00 0.  1.
         23    2    1    2    0    0 -0.45071366892E+02 -0.68675781364E+02 -0.60296108860E+03  0.61541203091E+03  0.91772012963E+02 0.  0.
         24    2    1    2    0    0 -0.24026659669E+03  0.54147705679E+02  0.21731496106E+02  0.26030001612E+03  0.81386908981E+02 0.  0.
        -13    1    4    4    0    0 -0.18193601592E+03  0.50851761287E+02 -0.17819963692E+02  0.18974763930E+03  0.00000000000E+00 0.  1.
         14    1    4    4    0    0 -0.58330580771E+02  0.32959443921E+01  0.39551459798E+02  0.70552376818E+02  0.00000000000E+00 0. -1.
        -13    1    3    3    0    0 -0.29642120500E+00 -0.77317018522E+02 -0.36012404571E+03  0.36833047324E+03  0.00000000000E+00 0.  1.
         13    1    3    3    0    0 -0.44774945687E+02  0.86412371581E+01 -0.24283704290E+03  0.24708155768E+03  0.00000000000E+00 0. -1.
         -2    1    1    2    0  502  0.28533796358E+03  0.14528075685E+02 -0.10588188356E+04  0.10966887184E+04  0.00000000000E+00 0.  1.
<scales pt_clust_5="13000.00000" pt_clust_6="13000.00000" pt_clust_7="13000.00000" pt_clust_8="13000.00000" pt_clust_9="13000.00000"></scales>
<clustering>
<clus scale="   81.387">  5  6 -1 -1</clus>
<clus scale="   91.772">  7  8 -1 -1</clus>
<clus scale="  123.166">  1  7  2 -1</clus>
<clus scale="  280.076">  5  9 -1 -1</clus>
<clus scale="  875.139">  2  5  1 -1</clus>
</clustering>
</event>
<event>
 9    2  0.6085395E-005  0.3546089E+03  0.7546771E-02  0.1106433E+00
         -1   -1    0    0    0  501 -0.00000000000E+00  0.00000000000E+00  0.48593200377E+03  0.48593200377E+03  0.00000000000E+00 0.  1.
         21   -1    0    0  501  502  0.00000000000E+00 -0.00000000000E+00 -0.12261359058E+03  0.12261359058E+03  0.00000000000E+00 0. -1.
         23    2    1    2    0    0  0.20553715139E+01  0.55262243295E+02  0.18313736614E+03  0.21078600513E+03  0.88505960226E+02 0.  0.
         24    2    1    2    0    0  0.12524471185E+03 -0.10641241430E+03  0.16028302583E+02  0.18382554627E+03  0.80777999569E+02 0.  0.
        -11    1    4    4    0    0  0.26219540918E+02 -0.64610647003E+02 -0.16250796089E+02  0.71596706668E+02  0.00000000000E+00 0.  1.
         12    1    4    4    0    0  0.99025170937E+02 -0.41801767295E+02  0.32279098672E+02  0.11222883960E+03  0.00000000000E+00 0. -1.
        -11    1    3    3    0    0  0.79925382061E+01 -0.23593219610E+02  0.51821918018E+02  0.57498103148E+02  0.00000000000E+00 0.  1.
         11    1    3    3    0    0 -0.59371666922E+01  0.78855462905E+02  0.13131544812E+03  0.15328790198E+03  0.00000000000E+00 0. -1.
         -2    1    1    2    0  502 -0.12730008337E+03  0.51150171003E+02  0.16415274447E+03  0.21393404296E+03  0.00000000000E+00 0.  1.
<scales pt_clust_5="13000.00000" pt_clust_6="13000.00000" pt_clust_7="13000.00000" pt_clust_8="13000.00000" pt_clust_9="13000.00000"></scales>
<clustering>
<clus scale="   80.778">  5  6 -1 -1</clus>
<clus scale="   88.506">  7  8 -1 -1</clus>
<clus scale="  104.362">  1  7  2 -1</clus>
<clus scale="  153.253">  5  9 -1 -1</clus>
<clus scale="  354.609">  2  5  1 -1</clus>
</clustering>
</event>
<event>
 9    2  0.6085395E-005  0.1581501E+03  0.7546771E-02  0.1192730E+00
          2   -1    0    0  502    0 -0.00000000000E+00  0.00000000000E+00  0.23770645829E+03  0.23770645829E+03  0.00000000000E+00 0. -1.
         21   -1    0    0  501  502  0.00000000000E+00 -0.00000000000E+00 -0.11393769176E+03  0.11393769176E+03  0.00000000000E+00 0. -1.
         23    2    1    2    0    0  0.10619792351E+03 -0.60904910101E+02  0.12307515041E+01  0.15157658413E+03  0.89367438565E+02 0.  0.
         24    2    1    2    0    0 -0.64055642302E+02  0.49190576810E+02  0.83008270076E+02  0.14111166539E+03  0.80618180642E+02 0.  0.
        -11    1    4    4    0    0 -0.31123246201E+02 -0.19888993584E+02  0.34245112205E+02  0.50368206537E+02  0.00000000000E+00 0.  1.
         12    1    4    4    0    0 -0.32932396101E+02  0.69079570393E+02  0.48763157871E+02  0.90743458851E+02  0.00000000000E+00 0. -1.
        -11    1    3    3    0    0  0.57067161170E+02 -0.74248697586E+02  0.22646283624E+02  0.96345130335E+02  0.00000000000E+00 0.  1.
         11    1    3    3    0    0  0.49130762343E+02  0.13343787485E+02 -0.21415532120E+02  0.55231453800E+02  0.00000000000E+00 0. -1.
          1    1    1    2  501    0 -0.42142281212E+02  0.11714333292E+02  0.39529744949E+02  0.58955900518E+02  0.00000000000E+00 0. -1.
<scales pt_clust_5="13000.00000" pt_clust_6="13000.00000" pt_clust_7="13000.00000" pt_clust_8="13000.00000" pt_clust_9="13000.00000"></scales>
<clustering>
<clus scale="   80.618">  5  6 -1 -1</clus>
<clus scale="   43.740">  5  9 -1 -1</clus>
<clus scale="   89.367">  7  8 -1 -1</clus>
<clus scale="  151.572">  1  7  2 -1</clus>
<clus scale="  158.150">  2  5  1 -1</clus>
</clustering>
</event>
<event>
 9    2  0.6085395E-005  0.4488680E+03  0.7546771E-02  0.1070225E+00
          2   -1    0    0  502    0 -0.00000000000E+00  0.00000000000E+00  0.60243359881E+03  0.60243359881E+03  0.00000000000E+00 0. -1.
         21   -1    0    0  501  502  0.00000000000E+00 -0.00000000000E+00 -0.15810651657E+03  0.15810651657E+03  0.00000000000E+00 0.  1.
         23    2    1    2    0    0 -0.80443663723E+02  0.55773690056E+02  0.82128659103E+01  0.13469820568E+03  0.92164352716E+02 0.  0.
         24    2    1    2    0    0 -0.11542470707E+03  0.11750032736E+03  0.14917440553E+03  0.23761161874E+03  0.84125431120E+02 0.  0.
        -13    1    4    4    0    0 -0.15252043181E+02  0.73709094644E+02  0.53672302293E+02  0.92446587216E+02  0.00000000000E+00 0.  1.
         14    1    4    4    0    0 -0.10017266389E+03  0.43791232720E+02  0.95502103241E+02  0.14516503153E+03  0.00000000000E+00 0. -1.
        -13    1    3    3    0    0 -0.46766240663E+02  0.35768791686E+02 -0.41039371835E+02  0.71768501204E+02  0.00000000000E+00 0.  1.
         13    1    3    3    0    0 -0.33677423060E+02  0.20004898370E+02  0.49252237745E+02  0.62929704478E+02  0.00000000000E+00 0. -1.
          1    1    1    2  501    0  0.19586837080E+03 -0.17327401742E+03  0.28693981080E+03  0.38823029095E+03  0.00000000000E+00 0. -1.
<scales pt_clust_5="13000.00000" pt_clust_6="13000.00000" pt_clust_7="13000.00000" pt_clust_8="13000.00000" pt_clust_9="13000.00000"></scales>
<clustering>
<clus scale="   84.125">  5  6 -1 -1</clus>
<clus scale="   92.164">  7  8 -1 -1</clus>
<clus scale="  134.448">  1  7  2 -1</clus>
<clus scale="  199.844">  5  9 -1 -1</clus>
<clus scale="  448.868">  2  5  1 -1</clus>
</clustering>
</event>
<event>
 9    2  0.6085395E-005  0.1995056E+03  0.7546771E-02  0.1177164E+00
         21   -1    0    0  501  502  0.00000000000E+00  0.00000000000E+00  0.19191148055E+03  0.19191148055E+03  0.00000000000E+00 0.  1.
         -1   -1    0    0    0  501 -0.00000000000E+00 -0.00000000000E+00 -0.17493134743E+03  0.17493134743E+03  0.00000000000E+00 0.  1.
         23    2    1    2    0    0  0.55929183919E+02  0.75520150656E+01  0.10409387813E+03  0.14914745713E+03  0.90688047501E+02 0.  0.
         24    2    1    2    0    0 -0.86357088851E+02 -0.32816683855E+02  0.12128106531E+00  0.12191379296E+03  0.79551723240E+02 0.  0.
        -13    1    4    4    0    0 -0.18880537152E+01 -0.37250969840E+02  0.12751365676E+01  0.37320577087E+02  0.00000000000E+00 0.  1.
         14    1    4    4    0    0 -0.84469035136E+02  0.44342859850E+01 -0.11538555023E+01  0.84593215872E+02  0.00000000000E+00 0. -1.
        -11    1    3    3    0    0  0.68608169708E+02  0.32884128768E+02  0.60715819490E+02  0.97338880268E+02  0.00000000000E+00 0.  1.
         11    1    3    3    0    0 -0.12678985789E+02 -0.25332113703E+02  0.43378058641E+02  0.51808576865E+02  0.00000000000E+00 0. -1.
         -2    1    1    2    0  502  0.30427904932E+02  0.25264668789E+02 -0.87235026082E+02  0.95781577890E+02  0.00000000000E+00 0.  1.
<scales pt_clust_5="13000.00000" pt_clust_6="13000.00000" pt_clust_7="13000.00000" pt_clust_8="13000.00000" pt_clust_9="13000.00000"></scales>
<clustering>
<clus scale="   79.552">  5  6 -1 -1</clus>
<clus scale="   39.549">  5  9 -1 -1</clus>
<clus scale="   90.688">  7  8 -1 -1</clus>
<clus scale="  106.815">  2  7  1 -1</clus>
<clus scale="  199.506">  1  5  2 -1</clus>
</clustering>
</event>
<event>
 9    2  0.6085395E-005  0.2415621E+03  0.7546771E-02  0.1135441E+00
          2   -1    0    0  502    0 -0.00000000000E+00  0.00000000000E+00  0.23355993784E+03  0.23355993784E+03  0.00000000000E+00 0. -1.
         21   -1    0    0  501  502  0.00000000000E+00 -0.00000000000E+00 -0.25792136683E+03  0.25792136683E+03  0.00000000000E+00 0.  1.
         23    2    1    2    0    0  0.93934804274E+02 -0.92739562669E+02  0.12884577297E+03  0.20543113933E+03  0.90423148893E+02 0.  0.
         24    2    1    2    0    0 -0.60158041859E+02  0.59739474264E+02  0.11438069185E+02  0.11476694719E+03  0.76503777392E+02 0.  0.
        -13    1    4    4    0    0 -0.44289158190E+02  0.62885746085E+02 -0.19944219942E+02  0.79460169286E+02  0.00000000000E+00 0.  1.
         14    1    4    4    0    0 -0.15868883668E+02 -0.31462718202E+01  0.31382289127E+02  0.35306777906E+02  0.00000000000E+00 0. -1.
        -11    1    3    3    0    0  0.40147795863E+02  0.12119190951E+02  0.38596867914E+02  0.56995074478E+02  0.00000000000E+00 0. -1.
         11    1    3    3    0    0  0.53787008411E+02 -0.10485875362E+03  0.90248905052E+02  0.14843606485E+03  0.00000000000E+00 0.  1.
          1    1    1    2  501    0 -0.33776762415E+02  0.33000088405E+02 -0.16464527114E+03  0.17128321816E+03  0.00000000000E+00 0. -1.
<scales pt_clust_5="13000.00000" pt_clust_6="13000.00000" pt_clust_7="13000.00000" pt_clust_8="13000.00000" pt_clust_9="13000.00000"></scales>
<clustering>
<clus scale="   76.504">  5  6 -1 -1</clus>
<clus scale="   47.222">  5  9 -1 -1</clus>
<clus scale="   90.423">  7  8 -1 -1</clus>
<clus scale="  160.002">  1  7  2 -1</clus>
<clus scale="  241.562">  2  5  1 -1</clus>
</clustering>
</event>
<event>
 9    2  0.6085395E-005  0.3530387E+03  0.7546771E-02  0.1090254E+00
         21   -1    0    0  501  502  0.00000000000E+00  0.00000000000E+00  0.19666636018E+03  0.19666636018E+03  0.00000000000E+00 0. -1.
          4   -1    0    0  502    0 -0.00000000000E+00 -0.00000000000E+00 -0.33619662236E+03  0.33619662236E+03  0.00000000000E+00 0. -1.
         23    2    1    2    0    0 -0.13202295833E+03 -0.80640475251E+01 -0.39214934170E+02  0.16584869342E+03  0.92048289819E+02 0.  0.
         24    2    1    2    0    0  0.29264278755E+02 -0.24289814914E+02 -0.20090708064E+03  0.21962087224E+03  0.80145363887E+02 0.  0.
        -13    1    4    4    0    0  0.16433817940E+02 -0.47626008718E+02 -0.17631560657E+03  0.18337257210E+03  0.00000000000E+00 0.  1.
         14    1    4    4    0    0  0.12830460814E+02  0.23336193804E+02 -0.24591474065E+02  0.36248300135E+02  0.00000000000E+00 0. -1.
        -13    1    3    3    0    0 -0.53139240293E+02 -0.17904067830E+02 -0.61562380796E+02  0.83272211650E+02  0.00000000000E+00 0.  1.
         13    1    3    3    0    0 -0.78883718036E+02  0.98400203052E+01  0.22347446626E+02  0.82576481769E+02  0.00000000000E+00 0. -1.
          3    1    1    2  501    0  0.10275867957E+03  0.32353862439E+02  0.10059175263E+03  0.14739341688E+03  0.00000000000E+00 0. -1.
<scales pt_clust_5="13000.00000" pt_clust_6="13000.00000" pt_clust_7="13000.00000" pt_clust_8="13000.00000" pt_clust_9="13000.00000"></scales>
<clustering>
<clus scale="   80.145">  5  6 -1 -1</clus>
<clus scale="   92.048">  7  8 -1 -1</clus>
<clus scale="  107.732">  5  9 -1 -1</clus>
<clus scale="  161.146">  2  7  1 -1</clus>
<clus scale="  353.039">  1  5  2 -1</clus>
</clustering>
</event>
<event>
 9    2  0.6085395E-005  0.3297396E+03  0.7546771E-02  0.1107917E+00
          2   -1    0    0  502    0 -0.00000000000E+00  0.00000000000E+00  0.10861403462E+03  0.10861403462E+03  0.00000000000E+00 0. -1.
         21   -1    0    0  501  502  0.00000000000E+00 -0.00000000000E+00 -0.47589575411E+03  0.47589575411E+03  0.00000000000E+00 0. -1.
         23    2    1    2    0    0  0.43274813021E+02 -0.80989591863E+02 -0.10118218180E+03  0.16079152921E+03  0.84758825620E+02 0.  0.
         24    2    1    2    0    0 -0.49208612340E+01 -0.49368384657E+02 -0.27172728713E+03  0.28771863002E+03  0.80528499353E+02 0.  0.
        -13    1    4    4    0    0 -0.25737618662E+02 -0.51780470009E+02 -0.10665618660E+03  0.12132264516E+03  0.00000000000E+00 0.  1.
         14    1    4    4    0    0  0.20816757428E+02  0.24120853520E+01 -0.16507110054E+03  0.16639598486E+03  0.00000000000E+00 0. -1.
        -13    1    3    3    0    0  0.19574973014E+02  0.14896768589E+02 -0.31246326900E+02  0.39767150107E+02  0.00000000000E+00 0.  1.
         13    1    3    3    0    0  0.23699840007E+02 -0.95886360453E+02 -0.69935854901E+02  0.12102437911E+03  0.00000000000E+00 0. -1.
          1    1    1    2  501    0 -0.38353951787E+02  0.13035797652E+03  0.56277494484E+01  0.13599962950E+03  0.00000000000E+00 0. -1.
<scales pt_clust_5="13000.00000" pt_clust_6="13000.00000" pt_clust_7="13000.00000" pt_clust_8="13000.00000" pt_clust_9="13000.00000"></scales>
<clustering>
<clus scale="   80.528">  5  6 -1 -1</clus>
<clus scale="   84.759">  7  8 -1 -1</clus>
<clus scale="  124.964">  1  7  2 -1</clus>
<clus scale="   57.588">  5  9 -1 -1</clus>
<clus scale="  329.740">  2  5  1 -1</clus>
</clustering>
</event>
<event>
 9    2  0.6085395E-005  0.2371547E+03  0.7546771E-02  0.1132701E+00
          2   -1    0    0  502    0 -0.00000000000E+00  0.00000000000E+00  0.12878845740E+04  0.12878845740E+04  0.00000000000E+00 0. -1.
         21   -1    0    0  501  502  0.00000000000E+00 -0.00000000000E+00 -0.60454761368E+02  0.60454761368E+02  0.00000000000E+00 0. -1.
         23    2    1    2    0    0  0.24939003406E+02 -0.15418531436E+03  0.12278951411E+03  0.21852850205E+03  0.91007562204E+02 0.  0.
         24    2    1    2    0    0  0.35636224062E+02  0.41652028842E+02  0.65890166385E+03  0.66611262437E+03  0.80930796090E+02 0.  0.
        -13    1    4    4    0    0  0.16528540245E+02  0.62031399274E+02  0.34131156974E+03  0.34729623490E+03  0.00000000000E+00 0.  1.
         14    1    4    4    0    0  0.19107683816E+02 -0.20379370432E+02  0.31759009411E+03  0.31881638948E+03  0.00000000000E+00 0. -1.
        -13    1    3    3    0    0 -0.11069443533E+02 -0.12696165045E+03  0.59140653873E+02  0.14049701138E+03  0.00000000000E+00 0. -1.
         13    1    3    3    0    0  0.36008446940E+02 -0.27223663912E+02  0.63648860237E+02  0.78031490677E+02  0.00000000000E+00 0.  1.
          1    1    1    2  501    0 -0.60575227468E+02  0.11253328552E+03  0.44573863465E+03  0.46369820891E+03  0.00000000000E+00 0. -1.
<scales pt_clust_5="13000.00000" pt_clust_6="13000.00000" pt_clust_7="13000.00000" pt_clust_8="13000.00000" pt_clust_9="13000.00000"></scales>
<clustering>
<clus scale="   80.931">  5  6 -1 -1</clus>
<clus scale="   91.008">  7  8 -1 -1</clus>
<clus scale="  127.801">  5  9 -1 -1</clus>
<clus scale="  180.769">  1  7  2 -1</clus>
<clus scale="  237.155">  2  5  1 -1</clus>
</clustering>
</event>
<event>
 9    2  0.6085395E-005  0.3528264E+03  0.7546771E-02  0.1109031E+00
         21   -1    0    0  501  502  0.00000000000E+00  0.00000000000E+00  0.27178462949E+03  0.27178462949E+03  0.00000000000E+00 0.  1.
          2   -1    0    0  502    0 -0.00000000000E+00 -0.00000000000E+00 -0.29703464762E+03  0.29703464762E+03  0.00000000000E+00 0. -1.
         23    2    1    2    0    0  0.14281238950E+02 -0.37577251633E+02  0.14611885627E+03  0.17657729515E+03  0.90624595885E+02 0.  0.
         24    2    1    2    0    0  0.12533867337E+03  0.11827483754E+03 -0.11328083775E+03  0.22083591355E+03  0.78976150042E+02 0.  0.
        -11    1    4    4    0    0  0.54417297406E+02  0.34014787753E+01 -0.34693801256E+02  0.64625630832E+02  0.00000000000E+00 0.  1.
         12    1    4    4    0    0  0.70921375963E+02  0.11487335876E+03 -0.78587036489E+02  0.15621028271E+03  0.00000000000E+00 0. -1.
        -11    1    3    3    0    0  0.13469256714E+02 -0.60608608775E+02  0.13935382463E+03  0.15255921071E+03  0.00000000000E+00 0.  1.
         11    1    3    3    0    0  0.81198223570E+00  0.23031357142E+02  0.67650316347E+01  0.24018084436E+02  0.00000000000E+00 0. -1.
          1    1    1    2  501    0 -0.13961991232E+03 -0.80697585903E+02 -0.58088036648E+02  0.17140606841E+03  0.00000000000E+00 0. -1.
<scales pt_clust_5="13000.00000" pt_clust_6="13000.00000" pt_clust_7="13000.00000" pt_clust_8="13000.00000" pt_clust_9="13000.00000"></scales>
<clustering>
<clus scale="   78.976">  5  6 -1 -1</clus>
<clus scale="   90.625">  7  8 -1 -1</clus>
<clus scale="   99.140">  2  7  1 -1</clus>
<clus scale="  164.680">  5  9 -1 -1</clus>
<clus scale="  352.826">  1  5  2 -1</clus>
</clustering>
</event>
<event>
 9    2  0.6085395E-005  0.1281769E+03  0.7546771E-02  0.1245139E+00
         21   -1    0    0  501  502  0.00000000000E+00  0.00000000000E+00  0.35745354782E+02  0.35745354782E+02  0.00000000000E+00 0.  1.
         -1   -1    0    0    0  501 -0.00000000000E+00 -0.00000000000E+00 -0.35065154274E+03  0.35065154274E+03  0.00000000000E+00 0.  1.
         23    2    1    2    0    0 -0.18825763211E+01 -0.31043843577E+02 -0.11382280572E+03  0.14793547564E+03  0.89230093210E+02 0.  0.
         24    2    1    2    0    0 -0.11811312834E+01 -0.12930014388E+02 -0.11023509953E+03  0.13748371661E+03  0.81125919553E+02 0.  0.
        -13    1    4    4    0    0 -0.34819262583E+02 -0.17108048515E+02 -0.26047426509E+02  0.46728308321E+02  0.00000000000E+00 0.  1.
         14    1    4    4    0    0  0.33638131299E+02  0.41780341269E+01 -0.84187673017E+02  0.90755408294E+02  0.00000000000E+00 0. -1.
        -11    1    3    3    0    0  0.38401447772E+01  0.21047105084E+02 -0.85963871901E+02  0.88586198793E+02  0.00000000000E+00 0. -1.
         11    1    3    3    0    0 -0.57227210982E+01 -0.52090948661E+02 -0.27858933819E+02  0.59349276851E+02  0.00000000000E+00 0.  1.
         -2    1    1    2    0  502  0.30637076045E+01  0.43973857965E+02 -0.90848282709E+02  0.10097770526E+03  0.00000000000E+00 0.  1.
<scales pt_clust_5="13000.00000" pt_clust_6="13000.00000" pt_clust_7="13000.00000" pt_clust_8="13000.00000" pt_clust_9="13000.00000"></scales>
<clustering>
<clus scale="   81.126">  5  6 -1 -1</clus>
<clus scale="   44.080">  5  9 -1 -1</clus>
<clus scale="   89.230">  7  8 -1 -1</clus>
<clus scale="   94.495">  2  7  1 -1</clus>
<clus scale="  128.177">  1  5  2 -1</clus>
</clustering>
</event>
<event>
 9    2  0.6085395E-005  0.1434990E+03  0.7546771E-02  0.1226545E+00
         21   -1    0    0  501  502  0.00000000000E+00  0.00000000000E+00  0.37540363956E+02  0.37540363956E+02  0.00000000000E+00 0.  1.
         -3   -1    0    0    0  501 -0.00000000000E+00 -0.00000000000E+00 -0.42834661596E+03  0.42834661596E+03  0.00000000000E+00 0.  1.
         23    2    1    2    0    0 -0.18964563149E+02  0.17671516732E+02 -0.23090796051E+03  0.25103951616E+03  0.95028497233E+02 0.  0.
         24    2    1    2    0    0 -0.24782238894E+02 -0.11388787462E+02 -0.61171459653E+02  0.10667980361E+03  0.83034746815E+02 0.  0.
        -13    1    4    4    0    0 -0.42374715306E+02  0.13642531685E+02 -0.78488982272E+01  0.45203322570E+02  0.00000000000E+00 0.  1.
         14    1    4    4    0    0  0.17592476411E+02 -0.25031319147E+02 -0.53322561426E+02  0.61476481044E+02  0.00000000000E+00 0. -1.
        -13    1    3    3    0    0 -0.45951922229E+02  0.26508704435E+02 -0.20769136953E+03  0.21435950071E+03  0.00000000000E+00 0.  1.
         13    1    3    3    0    0  0.26987359080E+02 -0.88371877027E+01 -0.23216590987E+02  0.36680015453E+02  0.00000000000E+00 0. -1.
         -4    1    1    2    0  502  0.43746802044E+02 -0.62827292698E+01 -0.98726831841E+02  0.10816766015E+03  0.00000000000E+00 0.  1.
<scales pt_clust_5="13000.00000" pt_clust_6="13000.00000" pt_clust_7="13000.00000" pt_clust_8="13000.00000" pt_clust_9="13000.00000"></scales>
<clustering>
<clus scale="   83.035">  5  6 -1 -1</clus>
<clus scale="   44.196">  5  9 -1 -1</clus>
<clus scale="   95.028">  7  8 -1 -1</clus>
<clus scale="   98.501">  2  7  1 -1</clus>
<clus scale="  143.499">  1  5  2 -1</clus>
</clustering>
</event>
<event>
 9    2  0.6085395E-005  0.1294835E+03  0.7546771E-02  0.1231716E+00
         -3   -1    0    0    0  501 -0.00000000000E+00  0.00000000000E+00  0.41180365659E+03  0.41180365659E+03  0.00000000000E+00 0.  1.
         21   -1    0    0  501  502  0.00000000000E+00 -0.00000000000E+00 -0.39367447502E+02  0.39367447502E+02  0.00000000000E+00 0.  1.
         23    2    1    2    0    0  0.53442619365E+02 -0.15691493369E+02  0.22282268127E+03  0.25330703562E+03  0.10682776080E+03 0.  0.
         24    2    1    2    0    0 -0.66410602922E+02 -0.43176866594E+01  0.12746714271E+03  0.16532181507E+03  0.81574625157E+02 0.  0.
        -11    1    4    4    0    0 -0.76915670419E+02 -0.24985914093E+02  0.87751502426E+02  0.11933416291E+03  0.00000000000E+00 0.  1.
         12    1    4    4    0    0  0.10505067497E+02  0.20668227433E+02  0.39715640284E+02  0.45987652163E+02  0.00000000000E+00 0. -1.
        -13    1    3    3    0    0  0.21321742101E+02  0.45321322523E+02  0.74902243632E+02  0.90105410839E+02  0.00000000000E+00 0.  1.
         13    1    3    3    0    0  0.32120877264E+02 -0.61012815893E+02  0.14792043764E+03  0.16320162478E+03  0.00000000000E+00 0. -1.
         -4    1    1    2    0  502  0.12967983558E+02  0.20009180029E+02  0.22146385104E+02  0.32542253397E+02  0.00000000000E+00 0.  1.
<scales pt_clust_5="13000.00000" pt_clust_6="13000.00000" pt_clust_7="13000.00000" pt_clust_8="13000.00000" pt_clust_9="13000.00000"></scales>
<clustering>
<clus scale="   81.575">  5  6 -1 -1</clus>
<clus scale="   23.844">  5  9 -1 -1</clus>
<clus scale="  106.828">  7  8 -1 -1</clus>
<clus scale="  120.476">  1  7  2 -1</clus>
<clus scale="  129.484">  2  5  1 -1</clus>
</clustering>
</event>
<event>
 9    2  0.6085395E-005  0.3209271E+03  0.7546771E-02  0.1105350E+00
         21   -1    0    0  501  502  0.00000000000E+00  0.00000000000E+00  0.10934201526E+03  0.10934201526E+03  0.00000000000E+00 0. -1.
          2   -1    0    0  502    0 -0.00000000000E+00 -0.00000000000E+00 -0.50887074968E+03  0.50887074968E+03  0.00000000000E+00 0. -1.
         23    2    1    2    0    0 -0.10880886481E+03 -0.30851086942E+02 -0.80238477470E+02  0.16550926961E+03  0.90354559561E+02 0.  0.
         24    2    1    2    0    0 -0.65723905012E+02 -0.27668515817E+02 -0.21857852699E+03  0.24287241041E+03  0.78264019954E+02 0.  0.
        -11    1    4    4    0    0 -0.22636040208E+02 -0.47200716469E+02 -0.73212598614E+02  0.90002125237E+02  0.00000000000E+00 0.  1.
         12    1    4    4    0    0 -0.43087864804E+02  0.19532200653E+02 -0.14536592838E+03  0.15287028517E+03  0.00000000000E+00 0. -1.
        -11    1    3    3    0    0 -0.11421193411E+03 -0.10464788908E+01 -0.67312779569E+02  0.13257628485E+03  0.00000000000E+00 0. -1.
         11    1    3    3    0    0  0.54030693006E+01 -0.29804608052E+02 -0.12925697902E+02  0.32932984760E+02  0.00000000000E+00 0.  1.
          1    1    1    2  501    0  0.17453276982E+03  0.58519602759E+02 -0.10071172996E+03  0.20983108492E+03  0.00000000000E+00 0. -1.
<scales pt_clust_5="13000.00000" pt_clust_6="13000.00000" pt_clust_7="13000.00000" pt_clust_8="13000.00000" pt_clust_9="13000.00000"></scales>
<clustering>
<clus scale="   78.264">  5  6 -1 -1</clus>
<clus scale="   90.355">  7  8 -1 -1</clus>
<clus scale="  144.759">  2  7  1 -1</clus>
<clus scale="  138.655">  5  9 -1 -1</clus>
<clus scale="  320.927">  1  5  2 -1</clus>
</clustering>
</event>
<event>
 9    2  0.6085395E-005  0.2510417E+03  0.7546771E-02  0.1139534E+00
         21   -1    0    0  501  502  0.00000000000E+00  0.00000000000E+00  0.20825569043E+03  0.20825569043E+03  0.00000000000E+00 0. -1.
          2   -1    0    0  502    0 -0.00000000000E+00 -0.00000000000E+00 -0.55662140947E+03  0.55662140947E+03  0.00000000000E+00 0. -1.
         23    2    1    2    0    0 -0.74969094616E+02  0.55020560300E+02 -0.46893771687E+03  0.48638199838E+03  0.89539035286E+02 0.  0.
         24    2    1    2    0    0  0.28059795768E+02 -0.93461087198E+01 -0.49058612237E+02  0.96667761124E+02  0.77866595658E+02 0.  0.
        -13    1    4    4    0    0 -0.17473423817E+02  0.10684993330E+02 -0.41598046116E+02  0.46366874631E+02  0.00000000000E+00 0.  1.
         14    1    4    4    0    0  0.45533219585E+02 -0.20031102050E+02 -0.74605661208E+01  0.50300886493E+02  0.00000000000E+00 0. -1.
        -13    1    3    3    0    0 -0.29579000146E+02 -0.70088393017E+01 -0.38094910311E+02  0.48736672738E+02  0.00000000000E+00 0.  1.
         13    1    3    3    0    0 -0.45390094470E+02  0.62029399602E+02 -0.43084280656E+03  0.43764532564E+03  0.00000000000E+00 0. -1.
          1    1    1    2  501    0  0.46909298848E+02 -0.45674451580E+02  0.16963061006E+03  0.18182734040E+03  0.00000000000E+00 0. -1.
<scales pt_clust_5="13000.00000" pt_clust_6="13000.00000" pt_clust_7="13000.00000" pt_clust_8="13000.00000" pt_clust_9="13000.00000"></scales>
<clustering>
<clus scale="   77.867">  5  6 -1 -1</clus>
<clus scale="   65.472">  5  9 -1 -1</clus>
<clus scale="   89.539">  7  8 -1 -1</clus>
<clus scale="  129.092">  2  7  1 -1</clus>
<clus scale="  251.042">  1  5  2 -1</clus>
</clustering>
</event>
<event>
 9    2  0.8118099E-005  0.4412504E+03  0.7546771E-02  0.1069381E+00
         -3   -1    0    0    0  501 -0.00000000000E+00  0.00000000000E+00  0.54140199811E+03  0.54140199811E+03  0.00000000000E+00 0.  1.
         21   -1    0    0  501  502  0.00000000000E+00 -0.00000000000E+00 -0.18296588624E+03  0.18296588624E+03  0.00000000000E+00 0.  1.
         23    2    1    2    0    0  0.90724132168E+02 -0.65119946163E+02  0.21718713751E+03  0.26106105080E+03  0.92255861581E+02 0.  0.
         24    2    1    2    0    0  0.94279720137E+02 -0.96797459633E+02  0.14945825757E+03  0.21731686628E+03  0.81427487946E+02 0.  0.
        -11    1    4    4    0    0  0.34867554485E+02 -0.84678107451E+02  0.60855401386E+02  0.10995229927E+03  0.00000000000E+00 0.  1.
         12    1    4    4    0    0  0.59412165652E+02 -0.12119352181E+02  0.88602856185E+02  0.10736456701E+03  0.00000000000E+00 0. -1.
        -11    1    3    3    0    0 -0.36146336673E+01 -0.45554664985E+02  0.95329530849E+02  0.10571666156E+03  0.00000000000E+00 0. -1.
         11    1    3    3    0    0  0.94338765835E+02 -0.19565281178E+02  0.12185760666E+03  0.15534438924E+03  0.00000000000E+00 0.  1.
         -4    1    1    2    0  502 -0.18500385230E+03  0.16191740580E+03 -0.82092832096E+01  0.24598996727E+03  0.00000000000E+00 0.  1.
<scales pt_clust_5="13000.00000" pt_clust_6="13000.00000" pt_clust_7="13000.00000" pt_clust_8="13000.00000" pt_clust_9="13000.00000"></scales>
<clustering>
<clus scale="   81.427">  5  6 -1 -1</clus>
<clus scale="   92.256">  7  8 -1 -1</clus>
<clus scale="  144.854">  1  7  2 -1</clus>
<clus scale="  202.177">  5  9 -1 -1</clus>
<clus scale="  441.250">  2  5  1 -1</clus>
</clustering>
</event>
<event>
 9    2  0.6085395E-005  0.2714668E+03  0.7546771E-02  0.1110275E+00
          2   -1    0    0  502    0 -0.00000000000E+00  0.00000000000E+00  0.45683842897E+03  0.45683842897E+03  0.00000000000E+00 0. -1.
         21   -1    0    0  501  502  0.00000000000E+00 -0.00000000000E+00 -0.13219896641E+03  0.13219896641E+03  0.00000000000E+00 0. -1.
         23    2    1    2    0    0 -0.11002213203E+03  0.15335739169E+03  0.19885507368E+03  0.28984522650E+03  0.94040182222E+02 0.  0.
         24    2    1    2    0    0  0.74393942092E+02  0.24415351621E+01  0.38689593318E+02  0.11718069413E+03  0.81816934262E+02 0.  0.
        -11    1    4    4    0    0  0.56529450511E+01  0.21685093628E+02  0.39927170537E+02  0.45786220858E+02  0.00000000000E+00 0.  1.
         12    1    4    4    0    0  0.68740997041E+02 -0.19243558466E+02 -0.12375772189E+01  0.71394473274E+02  0.00000000000E+00 0. -1.
        -13    1    3    3    0    0 -0.68474360442E+02  0.15252605238E+03  0.17454855477E+03  0.24170257066E+03  0.00000000000E+00 0. -1.
         13    1    3    3    0    0 -0.41547771591E+02  0.83133930667E+00  0.24306518913E+02  0.48142655836E+02  0.00000000000E+00 0.  1.
          1    1    1    2  501    0  0.35628189941E+02 -0.15579892685E+03  0.87094795564E+02  0.18201147475E+03  0.00000000000E+00 0. -1.
<scales pt_clust_5="13000.00000" pt_clust_6="13000.00000" pt_clust_7="13000.00000" pt_clust_8="13000.00000" pt_clust_9="13000.00000"></scales>
<clustering>
<clus scale="   81.817">  5  6 -1 -1</clus>
<clus scale="   94.040">  7  8 -1 -1</clus>
<clus scale="  159.821">  5  9 -1 -1</clus>
<clus scale="  210.872">  1  7  2 -1</clus>
<clus scale="  271.467">  2  5  1 -1</clus>
</clustering>
</event>
<event>
 9    2  0.6085395E-005  0.1713071E+03  0.7546771E-02  0.1202662E+00
          2   -1    0    0  502    0 -0.00000000000E+00  0.00000000000E+00  0.21470034072E+03  0.21470034072E+03  0.00000000000E+00 0. -1.
         21   -1    0    0  501  502  0.00000000000E+00 -0.00000000000E+00 -0.11523327728E+03  0.11523327728E+03  0.00000000000E+00 0. -1.
         23    2    1    2    0    0  0.97101538964E+01  0.28542935093E+02  0.12403993606E+03  0.15687308353E+03  0.91182631919E+02 0.  0.
         24    2    1    2    0    0 -0.29379254902E+02 -0.47558243530E+02 -0.70378424712E+02  0.11970695829E+03  0.79067730792E+02 0.  0.
        -11    1    4    4    0    0 -0.53309308156E+01 -0.46200868322E+02 -0.12737439060E+01  0.46524847992E+02  0.00000000000E+00 0.  1.
         12    1    4    4    0    0 -0.24048324086E+02 -0.13573752070E+01 -0.69104680806E+02  0.73182110301E+02  0.00000000000E+00 0. -1.
        -13    1    3    3    0    0 -0.24741484895E+02  0.42024055758E+02  0.10384291469E+03  0.11472363866E+03  0.00000000000E+00 0. -1.
         13    1    3    3    0    0  0.34451638791E+02 -0.13481120665E+02  0.20197021377E+02  0.42149444864E+02  0.00000000000E+00 0.  1.
          1    1    1    2  501    0  0.19669101005E+02  0.19015308437E+02  0.45805552084E+02  0.53353576179E+02  0.00000000000E+00 0. -1.
<scales pt_clust_5="13000.00000" pt_clust_6="13000.00000" pt_clust_7="13000.00000" pt_clust_8="13000.00000" pt_clust_9="13000.00000"></scales>
<clustering>
<clus scale="   79.068">  5  6 -1 -1</clus>
<clus scale="   27.358">  5  9 -1 -1</clus>
<clus scale="   91.183">  7  8 -1 -1</clus>
<clus scale="   96.038">  1  7  2 -1</clus>
<clus scale="  171.307">  2  5  1 -1</clus>
</clustering>
</event>
<event>
 9    2  0.6085395E-005  0.1593918E+03  0.7546771E-02  0.1210218E+00
         21   -1    0    0  501  502  0.00000000000E+00  0.00000000000E+00  0.13160729675E+03  0.13160729675E+03  0.00000000000E+00 0.  1.
         -1   -1    0    0    0  501 -0.00000000000E+00 -0.00000000000E+00 -0.17017174959E+03  0.17017174959E+03  0.00000000000E+00 0.  1.
         23    2    1    2    0    0  0.24710947073E+02 -0.38657293682E+02 -0.88695079716E+02  0.13468979336E+03  0.90385319653E+02 0.  0.
         24    2    1    2    0    0 -0.54580677009E+02 -0.13336718756E+02  0.17909530517E+02  0.99017400163E+02  0.79541032693E+02 0.  0.
        -13    1    4    4    0    0 -0.39207036880E+01 -0.39945529603E+02  0.63050165662E+01  0.40629674950E+02  0.00000000000E+00 0.  1.
         14    1    4    4    0    0 -0.50659973321E+02  0.26608810847E+02  0.11604513951E+02  0.58387725213E+02  0.00000000000E+00 0. -1.
        -11    1    3    3    0    0  0.12201166970E+02 -0.63310822050E+02 -0.85166413265E+02  0.10681969206E+03  0.00000000000E+00 0. -1.
         11    1    3    3    0    0  0.12509780103E+02  0.24653528368E+02 -0.35286664511E+01  0.27870101294E+02  0.00000000000E+00 0.  1.
         -2    1    1    2    0  502  0.29869729935E+02  0.51994012438E+02  0.32221096363E+02  0.68071852822E+02  0.00000000000E+00 0.  1.
<scales pt_clust_5="13000.00000" pt_clust_6="13000.00000" pt_clust_7="13000.00000" pt_clust_8="13000.00000" pt_clust_9="13000.00000"></scales>
<clustering>
<clus scale="   79.541">  5  6 -1 -1</clus>
<clus scale="   59.963">  5  9 -1 -1</clus>
<clus scale="   90.385">  7  8 -1 -1</clus>
<clus scale="  101.363">  2  7  1 -1</clus>
<clus scale="  159.392">  1  5  2 -1</clus>
</clustering>
</event>
<event>
 9    2  0.6085395E-005  0.2913388E+03  0.7546771E-02  0.1129841E+00
         21   -1    0    0  501  502  0.00000000000E+00  0.00000000000E+00  0.23661098116E+03  0.23661098116E+03  0.00000000000E+00 0. -1.
          2   -1    0    0  502    0 -0.00000000000E+00 -0.00000000000E+00 -0.17627498765E+03  0.17627498765E+03  0.00000000000E+00 0. -1.
         23    2    1    2    0    0  0.46243295245E+01  0.52737805858E+02 -0.28329738982E+02  0.10835366605E+03  0.90195799490E+02 0.  0.
         24    2    1    2    0    0 -0.11757789749E+03  0.32291628920E+02  0.70684912299E+02  0.16201274905E+03  0.79902833182E+02 0.  0.
        -13    1    4    4    0    0 -0.78431510093E+02  0.27833422388E+02  0.24978237275E+01  0.83261277318E+02  0.00000000000E+00 0.  1.
         14    1    4    4    0    0 -0.39146387400E+02  0.44582065320E+01  0.68187088572E+02  0.78751471731E+02  0.00000000000E+00 0. -1.
        -11    1    3    3    0    0  0.31966011413E+02 -0.72388958766E+01  0.70775738549E+01  0.33530874591E+02  0.00000000000E+00 0.  1.
         11    1    3    3    0    0 -0.27341681889E+02  0.59976701734E+02 -0.35407312837E+02  0.74822791460E+02  0.00000000000E+00 0. -1.
          1    1    1    2  501    0  0.11295356797E+03 -0.85029434778E+02  0.17980820192E+02  0.14251955371E+03  0.00000000000E+00 0. -1.
<scales pt_clust_5="13000.00000" pt_clust_6="13000.00000" pt_clust_7="13000.00000" pt_clust_8="13000.00000" pt_clust_9="13000.00000"></scales>
<clustering>
<clus scale="   79.903">  5  6 -1 -1</clus>
<clus scale="   90.196">  7  8 -1 -1</clus>
<clus scale="  104.585">  2  7  1 -1</clus>
<clus scale="  127.867">  5  9 -1 -1</clus>
<clus scale="  291.339">  1  5  2 -1</clus>
</clustering>
</event>
<event>
 9    2  0.6085395E-005  0.2237467E+03  0.7546771E-02  0.1158346E+00
          2   -1    0    0  502    0 -0.00000000000E+00  0.00000000000E+00  0.25967453603E+03  0.25967453603E+03  0.00000000000E+00 0. -1.
         21   -1    0    0  501  502  0.00000000000E+00 -0.00000000000E+00 -0.13872584406E+03  0.13872584406E+03  0.00000000000E+00 0. -1.
         23    2    1    2    0    0  0.10391868198E+02  0.73252223492E+02  0.12974733007E+03  0.17448076173E+03  0.90195827961E+02 0.  0.
         24    2    1    2    0    0  0.82520464150E+01  0.48157013964E+02  0.21045787316E+02  0.97513573331E+02  0.81723788190E+02 0.  0.
        -11    1    4    4    0    0 -0.31790252695E+02  0.13321626210E+02 -0.10172865886E+02  0.35938462566E+02  0.00000000000E+00 0.  1.
         12    1    4    4    0    0  0.40042299110E+02  0.34835387754E+02  0.31218653202E+02  0.61575110765E+02  0.00000000000E+00 0. -1.
        -13    1    3    3    0    0  0.23774969747E+02  0.33249134104E+02  0.12561316893E+03  0.13209626154E+03  0.00000000000E+00 0. -1.
         13    1    3    3    0    0 -0.13383101549E+02  0.40003089388E+02  0.41341611412E+01  0.42384500185E+02  0.00000000000E+00 0.  1.
          1    1    1    2  501    0 -0.18643914613E+02 -0.12140923746E+03 -0.29844425419E+02  0.12640604503E+03  0.00000000000E+00 0. -1.
<scales pt_clust_5="13000.00000" pt_clust_6="13000.00000" pt_clust_7="13000.00000" pt_clust_8="13000.00000" pt_clust_9="13000.00000"></scales>
<clustering>
<clus scale="   81.724">  5  6 -1 -1</clus>
<clus scale="   90.196">  7  8 -1 -1</clus>
<clus scale="  116.658">  1  7  2 -1</clus>
<clus scale="   89.625">  5  9 -1 -1</clus>
<clus scale="  223.747">  2  5  1 -1</clus>
</clustering>
</event>
<event>
 9    2  0.6085395E-005  0.1973898E+03  0.7546771E-02  0.1173690E+00
         -1   -1    0    0    0  501 -0.00000000000E+00  0.00000000000E+00  0.91573837156E+02  0.91573837156E+02  0.00000000000E+00 0.  1.
         21   -1    0    0  501  502  0.00000000000E+00 -0.00000000000E+00 -0.27706937776E+03  0.27706937776E+03  0.00000000000E+00 0. -1.
         23    2    1    2    0    0 -0.55507704258E+02 -0.12933081610E+02 -0.89453524931E+02  0.14912830451E+03  0.10482818444E+03 0.  0.
         24    2    1    2    0    0  0.41352441308E+02  0.64615142591E+02  0.19625478090E+01  0.10781754535E+03  0.75733945081E+02 0.  0.
        -13    1    4    4    0    0  0.56326362315E+02  0.64833475947E+02 -0.12748790191E+02  0.86824940808E+02  0.00000000000E+00 0.  1.
         14    1    4    4    0    0 -0.14973921007E+02 -0.21833335615E+00  0.14711337999E+02  0.20992604543E+02  0.00000000000E+00 0. -1.
        -13    1    3    3    0    0 -0.80353215442E+02  0.23915190761E+01 -0.89003654758E+02  0.11993335297E+03  0.00000000000E+00 0. -1.
         13    1    3    3    0    0  0.24845511183E+02 -0.15324600687E+02 -0.44987017280E+00  0.29194951539E+02  0.00000000000E+00 0.  1.
         -2    1    1    2    0  502  0.14155262950E+02 -0.51682060980E+02 -0.98004563482E+02  0.11169736505E+03  0.00000000000E+00 0.  1.
<scales pt_clust_5="13000.00000" pt_clust_6="13000.00000" pt_clust_7="13000.00000" pt_clust_8="13000.00000" pt_clust_9="13000.00000"></scales>
<clustering>
<clus scale="   75.734">  5  6 -1 -1</clus>
<clus scale="   53.586">  5  9 -1 -1</clus>
<clus scale="  104.828">  7  8 -1 -1</clus>
<clus scale="  119.320">  1  7  2 -1</clus>
<clus scale="  197.390">  2  5  1 -1</clus>
</clustering>
</event>
<event>
 9    2  0.6085395E-005  0.1579061E+03  0.7546771E-02  0.1195916E+00
         21   -1    0    0  501  502  0.00000000000E+00  0.00000000000E+00  0.16198072160E+03  0.16198072160E+03  0.00000000000E+00 0. -1.
          2   -1    0    0  502    0 -0.00000000000E+00 -0.00000000000E+00 -0.15331699736E+03  0.15331699736E+03  0.00000000000E+00 0. -1.
         23    2    1    2    0    0 -0.86448503634E+02  0.66485593486E+02 -0.44293237427E+02  0.14874813143E+03  0.90941947413E+02 0.  0.
         24    2    1    2    0    0  0.64574528626E+02 -0.60345676883E+02  0.66395792491E+02  0.14015315724E+03  0.86157041249E+02 0.  0.
        -11    1    4    4    0    0  0.24982324739E+02 -0.68145038537E+01 -0.18819068894E+02  0.32011113166E+02  0.00000000000E+00 0.  1.
         12    1    4    4    0    0  0.39592203887E+02 -0.53531173030E+02  0.85214861385E+02  0.10814204407E+03  0.00000000000E+00 0. -1.
        -13    1    3    3    0    0 -0.20051736408E+02  0.60476055171E+02 -0.51181605021E+02  0.81725039458E+02  0.00000000000E+00 0. -1.
         13    1    3    3    0    0 -0.66396767226E+02  0.60095383149E+01  0.68883675938E+01  0.67023091968E+02  0.00000000000E+00 0.  1.
          1    1    1    2  501    0  0.21873975008E+02 -0.61399166022E+01 -0.13438830823E+02  0.26396430297E+02  0.00000000000E+00 0. -1.
<scales pt_clust_5="13000.00000" pt_clust_6="13000.00000" pt_clust_7="13000.00000" pt_clust_8="13000.00000" pt_clust_9="13000.00000"></scales>
<clustering>
<clus scale="   86.157">  5  6 -1 -1</clus>
<clus scale="   22.719">  5  9 -1 -1</clus>
<clus scale="   90.942">  7  8 -1 -1</clus>
<clus scale="  142.000">  2  7  1 -1</clus>
<clus scale="  157.906">  1  5  2 -1</clus>
</clustering>
</event>
<event>
 9    2  0.6085395E-005  0.3288964E+03  0.7546771E-02  0.1099717E+00
         -3   -1    0    0    0  501 -0.00000000000E+00  0.00000000000E+00  0.97115232278E+02  0.97115232278E+02  0.00000000000E+00 0.  1.
         21   -1    0    0  501  502  0.00000000000E+00 -0.00000000000E+00 -0.86573833547E+03  0.86573833547E+03  0.00000000000E+00 0.  1.
         23    2    1    2    0    0  0.60646145503E+02 -0.11033197158E+03 -0.35812803329E+02  0.15962022299E+03  0.91350751441E+02 0.  0.
         24    2    1    2    0    0 -0.16986086905E+03  0.75190695781E+02 -0.37372488993E+03  0.42626504804E+03  0.86748154217E+02 0.  0.
        -11    1    4    4    0    0 -0.17305087892E+03  0.50829572001E+02 -0.33280241505E+03  0.37853361746E+03  0.00000000000E+00 0.  1.
         12    1    4    4    0    0  0.31900098692E+01  0.24361123780E+02 -0.40922474887E+02  0.47731430585E+02  0.00000000000E+00 0. -1.
        -13    1    3    3    0    0 -0.19179064846E+02 -0.50723085041E+02 -0.14918380689E+01  0.54248442054E+02  0.00000000000E+00 0. -1.
         13    1    3    3    0    0  0.79825210350E+02 -0.59608886537E+02 -0.34320965260E+02  0.10537178094E+03  0.00000000000E+00 0.  1.
         -4    1    1    2    0  502  0.10921472355E+03  0.35141275797E+02 -0.35908540992E+03  0.37696829671E+03  0.00000000000E+00 0.  1.
<scales pt_clust_5="13000.00000" pt_clust_6="13000.00000" pt_clust_7="13000.00000" pt_clust_8="13000.00000" pt_clust_9="13000.00000"></scales>
<clustering>
<clus scale="   86.748">  5  6 -1 -1</clus>
<clus scale="   91.351">  7  8 -1 -1</clus>
<clus scale="  114.729">  5  9 -1 -1</clus>
<clus scale="  155.551">  1  7  2 -1</clus>
<clus scale="  328.896">  2  5  1 -1</clus>
</clustering>
</event>
<event>
 9    2  0.6085395E-005  0.4200374E+03  0.7546771E-02  0.1069363E+00
          2   -1    0    0  502    0 -0.00000000000E+00  0.00000000000E+00  0.67191978873E+03  0.67191978873E+03  0.00000000000E+00 0. -1.
         21   -1    0    0  501  502  0.00000000000E+00 -0.00000000000E+00 -0.14245233098E+03  0.14245233098E+03  0.00000000000E+00 0. -1.
         23    2    1    2    0    0  0.12587112684E+03 -0.73247354771E+02  0.46544377309E+02  0.17433608484E+03  0.83773360120E+02 0.  0.
         24    2    1    2    0    0 -0.99898709419E+02 -0.54551808919E+02 -0.35879526606E+00  0.13946779368E+03  0.80594570165E+02 0.  0.
        -11    1    4    4    0    0 -0.60115646057E+02 -0.30729477428E+02  0.39586919475E+02  0.78264397253E+02  0.00000000000E+00 0.  1.
         12    1    4    4    0    0 -0.39783063362E+02 -0.23822331491E+02 -0.39945714741E+02  0.61203396427E+02  0.00000000000E+00 0. -1.
        -13    1    3    3    0    0  0.10651930760E+03 -0.51660277736E+02 -0.13008289030E+01  0.11839273349E+03  0.00000000000E+00 0. -1.
         13    1    3    3    0    0  0.19351819237E+02 -0.21587077035E+02  0.47845206212E+02  0.55943351349E+02  0.00000000000E+00 0.  1.
          1    1    1    2  501    0 -0.25972417420E+02  0.12779916369E+03  0.48328187570E+03  0.50056824119E+03  0.00000000000E+00 0. -1.
<scales pt_clust_5="13000.00000" pt_clust_6="13000.00000" pt_clust_7="13000.00000" pt_clust_8="13000.00000" pt_clust_9="13000.00000"></scales>
<clustering>
<clus scale="   80.595">  5  6 -1 -1</clus>
<clus scale="   83.773">  7  8 -1 -1</clus>
<clus scale="  130.412">  5  9 -1 -1</clus>
<clus scale="  168.008">  1  7  2 -1</clus>
<clus scale="  420.037">  2  5  1 -1</clus>
</clustering>
</event>
<event>
 9    2  0.6085395E-005  0.3339344E+03  0.7546771E-02  0.1082769E+00
         21   -1    0    0  501  502  0.00000000000E+00  0.00000000000E+00  0.27356005260E+03  0.27356005260E+03  0.00000000000E+00 0.  1.
         -1   -1    0    0    0  501 -0.00000000000E+00 -0.00000000000E+00 -0.74581784172E+03  0.74581784172E+03  0.00000000000E+00 0.  1.
         23    2    1    2    0    0  0.20677759328E+03  0.56157405099E+02 -0.61407859213E+03  0.65657589132E+03  0.89937514553E+02 0.  0.
         24    2    1    2    0    0 -0.49128444882E+02 -0.76265856425E+02 -0.34361297887E+02  0.12553056248E+03  0.79668929766E+02 0.  0.
        -13    1    4    4    0    0  0.64804708716E+00 -0.49874654274E+02  0.13425203143E+02  0.51654014204E+02  0.00000000000E+00 0.  1.
         14    1    4    4    0    0 -0.49776491969E+02 -0.26391202151E+02 -0.47786501030E+02  0.73876548271E+02  0.00000000000E+00 0. -1.
        -11    1    3    3    0    0  0.27399227710E+02 -0.12873814848E+02 -0.17020002749E+03  0.17287134564E+03  0.00000000000E+00 0. -1.
         11    1    3    3    0    0  0.17937836557E+03  0.69031219947E+02 -0.44387856465E+03  0.48370454568E+03  0.00000000000E+00 0.  1.
         -2    1    1    2    0  502 -0.15764914840E+03  0.20108451326E+02  0.17618210091E+03  0.23727144052E+03  0.00000000000E+00 0.  1.
<scales pt_clust_5="13000.00000" pt_clust_6="13000.00000" pt_clust_7="13000.00000" pt_clust_8="13000.00000" pt_clust_9="13000.00000"></scales>
<clustering>
<clus scale="   79.669">  5  6 -1 -1</clus>
<clus scale="   89.938">  7  8 -1 -1</clus>
<clus scale="  158.926">  5  9 -1 -1</clus>
<clus scale="  232.378">  2  7  1 -1</clus>
<clus scale="  333.934">  1  5  2 -1</clus>
</clustering>
</event>
<event>
 9    2  0.6085395E-005  0.2611656E+03  0.7546771E-02  0.1127315E+00
          2   -1    0    0  502    0 -0.00000000000E+00  0.00000000000E+00  0.56597423575E+03  0.56597423575E+03  0.00000000000E+00 0. -1.
         21   -1    0    0  501  502  0.00000000000E+00 -0.00000000000E+00 -0.77611545650E+02  0.77611545650E+02  0.00000000000E+00 0.  1.
         23    2    1    2    0    0 -0.70239266027E+02 -0.10213959955E+03  0.22273131430E+03  0.27107066527E+03  0.92217215917E+02 0.  0.
         24    2    1    2    0    0 -0.26934293346E+02  0.94467299630E+02  0.57322195021E+02  0.14252755207E+03  0.85899605343E+02 0.  0.
        -13    1    4    4    0    0 -0.53677737837E+02  0.42360597470E+02  0.47206794143E+02  0.83091522856E+02  0.00000000000E+00 0.  1.
         14    1    4    4    0    0  0.26743444490E+02  0.52106702160E+02  0.10115400878E+02  0.59436029209E+02  0.00000000000E+00 0. -1.
        -11    1    3    3    0    0 -0.50352017808E+02 -0.14416202979E+02  0.13756848672E+03  0.14720136258E+03  0.00000000000E+00 0. -1.
         11    1    3    3    0    0 -0.19887248219E+02 -0.87723396575E+02  0.85162827572E+02  0.12386930269E+03  0.00000000000E+00 0.  1.
          1    1    1    2  501    0  0.97173559373E+02  0.76722999239E+01  0.20830918078E+03  0.22998756407E+03  0.00000000000E+00 0. -1.
<scales pt_clust_5="13000.00000" pt_clust_6="13000.00000" pt_clust_7="13000.00000" pt_clust_8="13000.00000" pt_clust_9="13000.00000"></scales>
<clustering>
<clus scale="   85.900">  5  6 -1 -1</clus>
<clus scale="   92.217">  7  8 -1 -1</clus>
<clus scale="   97.476">  5  9 -1 -1</clus>
<clus scale="  154.499">  1  7  2 -1</clus>
<clus scale="  261.166">  2  5  1 -1</clus>
</clustering>
</event>
<event>
 9    2  0.6223495E-005  0.5199162E+03  0.7546771E-02  0.1042102E+00
         21   -1    0    0  501  502  0.00000000000E+00  0.00000000000E+00  0.15593739352E+03  0.15593739352E+03  0.00000000000E+00 0.  1.
         -1   -1    0    0    0  501 -0.00000000000E+00 -0.00000000000E+00 -0.87206683327E+03  0.87206683327E+03  0.00000000000E+00 0.  1.
         23    2    1    2    0    0 -0.40593208150E+02  0.15908140598E+03 -0.32620620411E+03  0.37811733160E+03  0.98017991115E+02 0.  0.
         24    2    1    2    0    0 -0.18534452116E+02  0.97702484115E+02  0.57259298378E+02  0.13084328897E+03  0.62865234440E+02 0.  0.
        -13    1    4    4    0    0 -0.20185039893E+02  0.72044832138E+02  0.69723609853E+02  0.10227059912E+03  0.00000000000E+00 0.  1.
         14    1    4    4    0    0  0.16505877771E+01  0.25657651977E+02 -0.12464311474E+02  0.28572689855E+02  0.00000000000E+00 0. -1.
        -13    1    3    3    0    0 -0.55010668994E+02  0.14119787413E+03 -0.32039329830E+03  0.35442189402E+03  0.00000000000E+00 0.  1.
         13    1    3    3    0    0  0.14417460844E+02  0.17883531843E+02 -0.58129058095E+01  0.23695437584E+02  0.00000000000E+00 0. -1.
         -2    1    1    2    0  502  0.59127660266E+02 -0.25678389009E+03 -0.44718253402E+03  0.51904360621E+03  0.00000000000E+00 0.  1.
<scales pt_clust_5="13000.00000" pt_clust_6="13000.00000" pt_clust_7="13000.00000" pt_clust_8="13000.00000" pt_clust_9="13000.00000"></scales>
<clustering>
<clus scale="   62.865">  5  6 -1 -1</clus>
<clus scale="   98.018">  7  8 -1 -1</clus>
<clus scale="  191.213">  2  7  1 -1</clus>
<clus scale="  111.043">  5  9 -1 -1</clus>
<clus scale="  519.916">  1  5  2 -1</clus>
</clustering>
</event>
<event>
 9    2  0.6085395E-005  0.6473514E+03  0.7546771E-02  0.1043727E+00
         21   -1    0    0  501  502  0.00000000000E+00  0.00000000000E+00  0.51518225798E+03  0.51518225798E+03  0.00000000000E+00 0.  1.
          2   -1    0    0  502    0 -0.00000000000E+00 -0.00000000000E+00 -0.27425269565E+03  0.27425269565E+03  0.00000000000E+00 0. -1.
         23    2    1    2    0    0  0.24716548467E+01 -0.31203651368E+02  0.76333515180E+02  0.12148607017E+03  0.89175572719E+02 0.  0.
         24    2    1    2    0    0 -0.24625283922E+03  0.14137223477E+03 -0.79143991418E+02  0.30604338609E+03  0.82293457839E+02 0.  0.
        -13    1    4    4    0    0 -0.10665622347E+03  0.95982691648E+02 -0.10142429919E+02  0.14384399879E+03  0.00000000000E+00 0.  1.
         14    1    4    4    0    0 -0.13959661575E+03  0.45389543126E+02 -0.69001561499E+02  0.16219938731E+03  0.00000000000E+00 0. -1.
        -11    1    3    3    0    0 -0.33854052860E+02 -0.42441717647E+02  0.31760913057E+02  0.62897948218E+02  0.00000000000E+00 0.  1.
         11    1    3    3    0    0  0.36325707706E+02  0.11238066279E+02  0.44572602124E+02  0.58588121954E+02  0.00000000000E+00 0. -1.
          1    1    1    2  501    0  0.24378118438E+03 -0.11016858341E+03  0.24374003857E+03  0.36190549737E+03  0.00000000000E+00 0. -1.
<scales pt_clust_5="13000.00000" pt_clust_6="13000.00000" pt_clust_7="13000.00000" pt_clust_8="13000.00000" pt_clust_9="13000.00000"></scales>
<clustering>
<clus scale="   82.293">  5  6 -1 -1</clus>
<clus scale="   89.176">  7  8 -1 -1</clus>
<clus scale="   94.510">  2  7  1 -1</clus>
<clus scale="  271.141">  5  9 -1 -1</clus>
<clus scale="  647.351">  1  5  2 -1</clus>
</clustering>
</event>
<event>
 9    2  0.6085395E-005  0.2469411E+03  0.7546771E-02  0.1121465E+00
         21   -1    0    0  501  502  0.00000000000E+00  0.00000000000E+00  0.13274118405E+03  0.13274118405E+03  0.00000000000E+00 0. -1.
          2   -1    0    0  502    0 -0.00000000000E+00 -0.00000000000E+00 -0.59713521678E+03  0.59713521678E+03  0.00000000000E+00 0. -1.
         23    2    1    2    0    0  0.11641721945E+03  0.15261831825E+03 -0.43188070416E+03  0.48080411939E+03  0.88353486336E+02 0.  0.
         24    2    1    2    0    0 -0.49918944134E+02 -0.25926562201E+02  0.12526535517E+02  0.99067578078E+02  0.80581532147E+02 0.  0.
        -11    1    4    4    0    0 -0.33960449744E+02  0.58165036761E+01 -0.28557958067E+02  0.44751545569E+02  0.00000000000E+00 0.  1.
         12    1    4    4    0    0 -0.15958494389E+02 -0.31743065877E+02  0.41084493584E+02  0.54316032509E+02  0.00000000000E+00 0. -1.
        -13    1    3    3    0    0  0.31360920392E+02  0.35622735281E+02 -0.21456404637E+03  0.21975035060E+03  0.00000000000E+00 0.  1.
         13    1    3    3    0    0  0.85056299056E+02  0.11699558297E+03 -0.21731665779E+03  0.26105376879E+03  0.00000000000E+00 0. -1.
          1    1    1    2  501    0 -0.66498275314E+02 -0.12669175605E+03 -0.45039864091E+02  0.15000470336E+03  0.00000000000E+00 0. -1.
<scales pt_clust_5="13000.00000" pt_clust_6="13000.00000" pt_clust_7="13000.00000" pt_clust_8="13000.00000" pt_clust_9="13000.00000"></scales>
<clustering>
<clus scale="   80.582">  5  6 -1 -1</clus>
<clus scale="   88.353">  7  8 -1 -1</clus>
<clus scale="  143.083">  5  9 -1 -1</clus>
<clus scale="  211.309">  2  7  1 -1</clus>
<clus scale="  246.941">  1  5  2 -1</clus>
</clustering>
</event>
<event>
 9    2  0.6085395E-005  0.3112583E+03  0.7546771E-02  0.1107271E+00
          4   -1    0    0  502    0 -0.00000000000E+00  0.00000000000E+00  0.94547133907E+03  0.94547133907E+03  0.00000000000E+00 0. -1.
         21   -1    0    0  501  502  0.00000000000E+00 -0.00000000000E+00 -0.79858449112E+02  0.79858449112E+02  0.00000000000E+00 0. -1.
         23    2    1    2    0    0 -0.10754338554E+03  0.55484091260E+02  0.59181258980E+03  0.61078386318E+03  0.90392045662E+02 0.  0.
         24    2    1    2    0    0  0.97402017975E+02  0.96179963462E+02  0.13487438415E+03  0.20862059153E+03  0.81201682439E+02 0.  0.
        -11    1    4    4    0    0 -0.66167927380E+01  0.31465330645E+02  0.50507237327E+02  0.59873449885E+02  0.00000000000E+00 0.  1.
         12    1    4    4    0    0  0.10401881071E+03  0.64714632816E+02  0.84367146825E+02  0.14874714164E+03  0.00000000000E+00 0. -1.
        -11    1    3    3    0    0 -0.44937848276E+02 -0.87626788044E+01  0.89571510685E+02  0.10059448431E+03  0.00000000000E+00 0.  1.
         11    1    3    3    0    0 -0.62605537266E+02  0.64246770064E+02  0.50224107911E+03  0.51018937887E+03  0.00000000000E+00 0. -1.
          3    1    1    2  501    0  0.10141367566E+02 -0.15166405472E+03  0.13892591601E+03  0.20592533348E+03  0.00000000000E+00 0. -1.
<scales pt_clust_5="13000.00000" pt_clust_6="13000.00000" pt_clust_7="13000.00000" pt_clust_8="13000.00000" pt_clust_9="13000.00000"></scales>
<clustering>
<clus scale="   81.202">  5  6 -1 -1</clus>
<clus scale="   90.392">  7  8 -1 -1</clus>
<clus scale="  151.046">  1  7  2 -1</clus>
<clus scale="  131.362">  5  9 -1 -1</clus>
<clus scale="  311.258">  2  5  1 -1</clus>
</clustering>
</event>
<event>
 9    2  0.6085395E-005  0.6847869E+03  0.7546771E-02  0.9898147E-01
         21   -1    0    0  501  502  0.00000000000E+00  0.00000000000E+00  0.35902218058E+03  0.35902218058E+03  0.00000000000E+00 0.  1.
          2   -1    0    0  502    0 -0.00000000000E+00 -0.00000000000E+00 -0.10105871715E+04  0.10105871715E+04  0.00000000000E+00 0. -1.
         23    2    1    2    0    0  0.27689892866E+03 -0.29329624577E+03  0.15789329524E+02  0.41342163426E+03  0.89288522612E+02 0.  0.
         24    2    1    2    0    0 -0.79063754076E+02  0.17135169179E+03  0.41646882956E+02  0.21006980692E+03  0.82355214968E+02 0.  0.
        -13    1    4    4    0    0 -0.74953164901E+02  0.11456682989E+03 -0.42001772912E+01  0.13697144567E+03  0.00000000000E+00 0.  1.
         14    1    4    4    0    0 -0.41105891756E+01  0.56784861894E+02  0.45847060247E+02  0.73098361247E+02  0.00000000000E+00 0. -1.
        -11    1    3    3    0    0  0.22590275448E+02 -0.10942920481E+01 -0.10955148233E+02  0.25130326156E+02  0.00000000000E+00 0. -1.
         11    1    3    3    0    0  0.25430865321E+03 -0.29220195372E+03  0.26744477757E+02  0.38829130810E+03  0.00000000000E+00 0.  1.
          1    1    1    2  501    0 -0.19783517459E+03  0.12194455398E+03 -0.70900120337E+03  0.74611791088E+03  0.00000000000E+00 0. -1.
<scales pt_clust_5="13000.00000" pt_clust_6="13000.00000" pt_clust_7="13000.00000" pt_clust_8="13000.00000" pt_clust_9="13000.00000"></scales>
<clustering>
<clus scale="   82.355">  5  6 -1 -1</clus>
<clus scale="   89.289">  7  8 -1 -1</clus>
<clus scale="  232.399">  5  9 -1 -1</clus>
<clus scale="  413.120">  2  7  1 -1</clus>
<clus scale="  684.787">  1  5  2 -1</clus>
</clustering>
</event>
<event>
 9    2  0.6085395E-005  0.2334501E+03  0.7546771E-02  0.1156953E+00
         21   -1    0    0  501  502  0.00000000000E+00  0.00000000000E+00  0.33313506277E+03  0.33313506277E+03  0.00000000000E+00 0.  1.
         -3   -1    0    0    0  501 -0.00000000000E+00 -0.00000000000E+00 -0.11291099083E+03  0.11291099083E+03  0.00000000000E+00 0.  1.
         23    2    1    2    0    0  0.54259352621E+02  0.12790316456E+02 -0.23367926643E+02  0.10865013839E+03  0.90283570121E+02 0.  0.
         24    2    1    2    0    0  0.20486341118E+02  0.65031622920E+02  0.51406345561E+02  0.11699061082E+03  0.79971172955E+02 0.  0.
        -11    1    4    4    0    0  0.51081994372E+02  0.40811278456E+02  0.25647310168E+02  0.70233290661E+02  0.00000000000E+00 0.  1.
         12    1    4    4    0    0 -0.30595653254E+02  0.24220344464E+02  0.25759035393E+02  0.46757320158E+02  0.00000000000E+00 0. -1.
        -13    1    3    3    0    0  0.71999013190E+02  0.31047417849E+02 -0.77621716912E+01  0.78791188371E+02  0.00000000000E+00 0.  1.
         13    1    3    3    0    0 -0.17739660569E+02 -0.18257101394E+02 -0.15605754952E+02  0.29858950015E+02  0.00000000000E+00 0. -1.
         -4    1    1    2    0  502 -0.74745693739E+02 -0.77821939375E+02  0.19218565302E+03  0.22040530440E+03  0.00000000000E+00 0.  1.
<scales pt_clust_5="13000.00000" pt_clust_6="13000.00000" pt_clust_7="13000.00000" pt_clust_8="13000.00000" pt_clust_9="13000.00000"></scales>
<clustering>
<clus scale="   79.971">  5  6 -1 -1</clus>
<clus scale="   90.284">  7  8 -1 -1</clus>
<clus scale="  106.107">  2  7  1 -1</clus>
<clus scale="   94.262">  5  9 -1 -1</clus>
<clus scale="  233.450">  1  5  2 -1</clus>
</clustering>
</event>
<event>
 9    2  0.6085395E-005  0.3541571E+03  0.7546771E-02  0.1101973E+00
          2   -1    0    0  502    0 -0.00000000000E+00  0.00000000000E+00  0.57255087512E+03  0.57255087512E+03  0.00000000000E+00 0. -1.
         21   -1    0    0  501  502  0.00000000000E+00 -0.00000000000E+00 -0.13423125680E+03  0.13423125680E+03  0.00000000000E+00 0. -1.
         23    2    1    2    0    0 -0.37237035562E+02  0.68955917719E+02  0.30758078970E+03  0.32926407563E+03  0.87563542094E+02 0.  0.
         24    2    1    2    0    0 -0.55097544132E+02  0.58663212524E+02  0.17993093840E+03  0.21249629810E+03  0.79387796537E+02 0.  0.
        -11    1    4    4    0    0 -0.12347791641E+02  0.46205369528E+02  0.15335656835E+03  0.16064134334E+03  0.00000000000E+00 0.  1.
         12    1    4    4    0    0 -0.42749752491E+02  0.12457842995E+02  0.26574370049E+02  0.51854954764E+02  0.00000000000E+00 0. -1.
        -13    1    3    3    0    0 -0.10511469159E+01  0.58665799066E+02  0.83540799379E+02  0.10208744316E+03  0.00000000000E+00 0. -1.
         13    1    3    3    0    0 -0.36185888646E+02  0.10290118653E+02  0.22403999032E+03  0.22717663247E+03  0.00000000000E+00 0.  1.
          1    1    1    2  501    0  0.92334579694E+02 -0.12761913024E+03 -0.49192109785E+02  0.16502175819E+03  0.00000000000E+00 0. -1.
<scales pt_clust_5="13000.00000" pt_clust_6="13000.00000" pt_clust_7="13000.00000" pt_clust_8="13000.00000" pt_clust_9="13000.00000"></scales>
<clustering>
<clus scale="   79.388">  5  6 -1 -1</clus>
<clus scale="   87.564">  7  8 -1 -1</clus>
<clus scale="  117.511">  1  7  2 -1</clus>
<clus scale="  139.833">  5  9 -1 -1</clus>
<clus scale="  354.157">  2  5  1 -1</clus>
</clustering>
</event>
<event>
 9    2  0.6085395E-005  0.3553497E+03  0.7546771E-02  0.1078919E+00
         21   -1    0    0  501  502  0.00000000000E+00  0.00000000000E+00  0.39900817475E+03  0.39900817475E+03  0.00000000000E+00 0.  1.
          2   -1    0    0  502    0 -0.00000000000E+00 -0.00000000000E+00 -0.83442966620E+03  0.83442966620E+03  0.00000000000E+00 0. -1.
         23    2    1    2    0    0  0.86536920134E+02  0.17275311207E+03  0.32787893610E+03  0.39147529774E+03  0.91738954251E+02 0.  0.
         24    2    1    2    0    0 -0.76174927758E+01 -0.86577555233E+02 -0.65705614000E+02  0.13464859134E+03  0.79115840207E+02 0.  0.
        -13    1    4    4    0    0 -0.41017627128E+02 -0.65188107846E+02 -0.35567088639E+02  0.84834856834E+02  0.00000000000E+00 0.  1.
         14    1    4    4    0    0  0.33400134352E+02 -0.21389447387E+02 -0.30138525361E+02  0.49813734504E+02  0.00000000000E+00 0. -1.
        -13    1    3    3    0    0  0.54589767974E+02  0.12413308213E+03  0.29494038766E+03  0.32462115939E+03  0.00000000000E+00 0.  1.
         13    1    3    3    0    0  0.31947152160E+02  0.48620029935E+02  0.32938548444E+02  0.66854138358E+02  0.00000000000E+00 0. -1.
          1    1    1    2  501    0 -0.78919427358E+02 -0.86175556835E+02 -0.69759481355E+03  0.70731395186E+03  0.00000000000E+00 0. -1.
<scales pt_clust_5="13000.00000" pt_clust_6="13000.00000" pt_clust_7="13000.00000" pt_clust_8="13000.00000" pt_clust_9="13000.00000"></scales>
<clustering>
<clus scale="   79.116">  5  6 -1 -1</clus>
<clus scale="   91.739">  7  8 -1 -1</clus>
<clus scale="  116.853">  5  9 -1 -1</clus>
<clus scale="  213.889">  2  7  1 -1</clus>
<clus scale="  355.350">  1  5  2 -1</clus>
</clustering>
</event>
<event>
 9    2  0.6085395E-005  0.4152740E+03  0.7546771E-02  0.1080269E+00
          2   -1    0    0  502    0 -0.00000000000E+00  0.00000000000E+00  0.14329370999E+04  0.14329370999E+04  0.00000000000E+00 0. -1.
         21   -1    0    0  501  502  0.00000000000E+00 -0.00000000000E+00 -0.51726299727E+02  0.51726299727E+02  0.00000000000E+00 0.  1.
         23    2    1    2    0    0 -0.83517795727E+02 -0.34370874801E+02  0.33025696735E+03  0.35463840201E+03  0.92423765668E+02 0.  0.
         24    2    1    2    0    0 -0.13096575967E+03  0.45560679717E+02  0.22199721847E+03  0.27369709561E+03  0.79997058672E+02 0.  0.
        -13    1    4    4    0    0 -0.12190115305E+03  0.14487296139E+02  0.19962307195E+03  0.23434833842E+03  0.00000000000E+00 0.  1.
         14    1    4    4    0    0 -0.90646066161E+01  0.31073383578E+02  0.22374146517E+02  0.39348757191E+02  0.00000000000E+00 0. -1.
        -11    1    3    3    0    0 -0.56019685216E+02 -0.65088580627E+02  0.19123197966E+03  0.20962919288E+03  0.00000000000E+00 0.  1.
         11    1    3    3    0    0 -0.27498110511E+02  0.30717705826E+02  0.13902498768E+03  0.14500920913E+03  0.00000000000E+00 0. -1.
          1    1    1    2  501    0  0.21448355539E+03 -0.11189804916E+02  0.82895661434E+03  0.85632790199E+03  0.00000000000E+00 0. -1.
<scales pt_clust_5="13000.00000" pt_clust_6="13000.00000" pt_clust_7="13000.00000" pt_clust_8="13000.00000" pt_clust_9="13000.00000"></scales>
<clustering>
<clus scale="   79.997">  5  6 -1 -1</clus>
<clus scale="   92.424">  7  8 -1 -1</clus>
<clus scale="  129.224">  1  7  2 -1</clus>
<clus scale="  154.626">  5  9 -1 -1</clus>
<clus scale="  415.274">  2  5  1 -1</clus>
</clustering>
</event>
<event>
 9    2  0.6085395E-005  0.3607613E+03  0.7546771E-02  0.1088269E+00
         -3   -1    0    0    0  501 -0.00000000000E+00  0.00000000000E+00  0.95504472813E+03  0.95504472813E+03  0.00000000000E+00 0.  1.
         21   -1    0    0  501  502  0.00000000000E+00 -0.00000000000E+00 -0.82300283822E+02  0.82300283822E+02  0.00000000000E+00 0.  1.
         23    2    1    2    0    0 -0.97961721939E+02 -0.87753408077E+02  0.10967342478E+03  0.19329162274E+03  0.89645031802E+02 0.  0.
         24    2    1    2    0    0  0.17386803442E+03 -0.50169810495E+02  0.35151147667E+03  0.40341085856E+03  0.80205357009E+02 0.  0.
        -11    1    4    4    0    0  0.16206673525E+03 -0.56503149593E+02  0.26404825285E+03  0.31492810675E+03  0.00000000000E+00 0.  1.
         12    1    4    4    0    0  0.11801299169E+02  0.63333390982E+01  0.87463223816E+02  0.88482751802E+02  0.00000000000E+00 0. -1.
        -13    1    3    3    0    0 -0.11428150313E+03 -0.73001188151E+02  0.84147802415E+02  0.15959413548E+03  0.00000000000E+00 0.  1.
         13    1    3    3    0    0  0.16319781191E+02 -0.14752219926E+02  0.25525622361E+02  0.33697487262E+02  0.00000000000E+00 0. -1.
         -4    1    1    2    0  502 -0.75906312484E+02  0.13792321857E+03  0.41155954287E+03  0.44064253065E+03  0.00000000000E+00 0.  1.
<scales pt_clust_5="13000.00000" pt_clust_6="13000.00000" pt_clust_7="13000.00000" pt_clust_8="13000.00000" pt_clust_9="13000.00000"></scales>
<clustering>
<clus scale="   80.205">  5  6 -1 -1</clus>
<clus scale="   89.645">  7  8 -1 -1</clus>
<clus scale="  157.431">  5  9 -1 -1</clus>
<clus scale="  159.165">  1  7  2 -1</clus>
<clus scale="  360.761">  2  5  1 -1</clus>
</clustering>
</event>
<event>
 9    2  0.6085395E-005  0.2642466E+03  0.7546771E-02  0.1110337E+00
         21   -1    0    0  501  502  0.00000000000E+00  0.00000000000E+00  0.79209514275E+02  0.79209514275E+02  0.00000000000E+00 0.  1.
         -1   -1    0    0    0  501 -0.00000000000E+00 -0.00000000000E+00 -0.12735091874E+04  0.12735091874E+04  0.00000000000E+00 0.  1.
         23    2    1    2    0    0  0.20380836586E+03 -0.66955469503E+02 -0.99737589850E+03  0.10231656381E+04  0.78027913248E+02 0.  0.
         24    2    1    2    0    0 -0.46404515723E+02  0.22780023061E+02 -0.70362673175E+02  0.12280405024E+03  0.86357515296E+02 0.  0.
        -11    1    4    4    0    0 -0.19364963271E+02  0.18963657687E+02  0.16512772961E+02  0.31737891963E+02  0.00000000000E+00 0.  1.
         12    1    4    4    0    0 -0.27039552451E+02  0.38163653736E+01 -0.86875446136E+02  0.91066158274E+02  0.00000000000E+00 0. -1.
        -13    1    3    3    0    0  0.11419035530E+03  0.18344368276E+01 -0.55138615964E+03  0.56308924643E+03  0.00000000000E+00 0.  1.
         13    1    3    3    0    0  0.89618010560E+02 -0.68789906330E+02 -0.44598973886E+03  0.46007639170E+03  0.00000000000E+00 0. -1.
         -2    1    1    2    0  502 -0.15740385014E+03  0.44175446442E+02 -0.12656110147E+03  0.20674901333E+03  0.00000000000E+00 0.  1.
<scales pt_clust_5="13000.00000" pt_clust_6="13000.00000" pt_clust_7="13000.00000" pt_clust_8="13000.00000" pt_clust_9="13000.00000"></scales>
<clustering>
<clus scale="   78.028">  7  8 -1 -1</clus>
<clus scale="   86.358">  5  6 -1 -1</clus>
<clus scale="  163.485">  5  9 -1 -1</clus>
<clus scale="  228.274">  2  7  1 -1</clus>
<clus scale="  264.247">  1  5  2 -1</clus>
</clustering>
</event>
<event>
 9    2  0.6085395E-005  0.1612226E+03  0.7546771E-02  0.1208971E+00
         -1   -1    0    0    0  501 -0.00000000000E+00  0.00000000000E+00  0.65388409851E+03  0.65388409851E+03  0.00000000000E+00 0.  1.
         21   -1    0    0  501  502  0.00000000000E+00 -0.00000000000E+00 -0.26548870190E+02  0.26548870190E+02  0.00000000000E+00 0. -1.
         23    2    1    2    0    0  0.39714277201E+02  0.37609049108E+01  0.27949241710E+03  0.29704367716E+03  0.92344825022E+02 0.  0.
         24    2    1    2    0    0  0.18876298343E+02  0.12009091275E+02  0.11724040858E+03  0.14493800421E+03  0.82226387181E+02 0.  0.
        -13    1    4    4    0    0  0.43413075167E+02 -0.17076530084E+02  0.72389841099E+02  0.86119638117E+02  0.00000000000E+00 0.  1.
         14    1    4    4    0    0 -0.24536776824E+02  0.29085621358E+02  0.44850567481E+02  0.58818366095E+02  0.00000000000E+00 0. -1.
        -11    1    3    3    0    0  0.65490848419E+02  0.20595369851E+02  0.21252245652E+03  0.22333610324E+03  0.00000000000E+00 0. -1.
         11    1    3    3    0    0 -0.25776571218E+02 -0.16834464940E+02  0.66969960573E+02  0.73707573917E+02  0.00000000000E+00 0.  1.
         -2    1    1    2    0  502 -0.58590575544E+02 -0.15769996185E+02  0.23060240265E+03  0.23845128733E+03  0.00000000000E+00 0.  1.
<scales pt_clust_5="13000.00000" pt_clust_6="13000.00000" pt_clust_7="13000.00000" pt_clust_8="13000.00000" pt_clust_9="13000.00000"></scales>
<clustering>
<clus scale="   82.226">  5  6 -1 -1</clus>
<clus scale="   60.676">  5  9 -1 -1</clus>
<clus scale="   92.345">  7  8 -1 -1</clus>
<clus scale="  100.593">  1  7  2 -1</clus>
<clus scale="  161.223">  2  5  1 -1</clus>
</clustering>
</event>
<event>
 9    2  0.6085395E-005  0.1713708E+03  0.7546771E-02  0.1197377E+00
         21   -1    0    0  501  502  0.00000000000E+00  0.00000000000E+00  0.10319135990E+03  0.10319135990E+03  0.00000000000E+00 0. -1.
          2   -1    0    0  502    0 -0.00000000000E+00 -0.00000000000E+00 -0.22990127180E+03  0.22990127180E+03  0.00000000000E+00 0. -1.
         23    2    1    2    0    0  0.54127706368E+02  0.18288681037E+02 -0.12058551859E+03  0.16161247765E+03  0.91178074066E+02 0.  0.
         24    2    1    2    0    0 -0.41838174863E+02  0.35156519673E+02 -0.42210063191E+02  0.10583262833E+03  0.80202506397E+02 0.  0.
        -11    1    4    4    0    0  0.21983472685E+02  0.23021666927E+02 -0.10323706623E+02  0.33464147050E+02  0.00000000000E+00 0.  1.
         12    1    4    4    0    0 -0.63821647548E+02  0.12134852747E+02 -0.31886356569E+02  0.72368481276E+02  0.00000000000E+00 0. -1.
        -13    1    3    3    0    0  0.67093174075E+01 -0.33117146549E+02 -0.20529369123E+02  0.39537518033E+02  0.00000000000E+00 0.  1.
         13    1    3    3    0    0  0.47418388960E+02  0.51405827586E+02 -0.10005614946E+03  0.12207495962E+03  0.00000000000E+00 0. -1.
          1    1    1    2  501    0 -0.12289531504E+02 -0.53445200710E+02  0.36085669876E+02  0.65647525726E+02  0.00000000000E+00 0. -1.
<scales pt_clust_5="13000.00000" pt_clust_6="13000.00000" pt_clust_7="13000.00000" pt_clust_8="13000.00000" pt_clust_9="13000.00000"></scales>
<clustering>
<clus scale="   80.203">  5  6 -1 -1</clus>
<clus scale="   54.840">  5  9 -1 -1</clus>
<clus scale="   91.178">  7  8 -1 -1</clus>
<clus scale="  107.600">  2  7  1 -1</clus>
<clus scale="  171.371">  1  5  2 -1</clus>
</clustering>
</event>
<event>
 9    2  0.6085395E-005  0.2829112E+03  0.7546771E-02  0.1136367E+00
         21   -1    0    0  501  502  0.00000000000E+00  0.00000000000E+00  0.68128334936E+02  0.68128334936E+02  0.00000000000E+00 0. -1.
          2   -1    0    0  502    0 -0.00000000000E+00 -0.00000000000E+00 -0.56796693747E+03  0.56796693747E+03  0.00000000000E+00 0. -1.
         23    2    1    2    0    0  0.10878731048E+02 -0.20354129720E+02 -0.20782968916E+03  0.22951444320E+03  0.94610055254E+02 0.  0.
         24    2    1    2    0    0 -0.12873087253E+03  0.12650037179E+02 -0.22223156623E+03  0.26940445198E+03  0.80375548105E+02 0.  0.
        -13    1    4    4    0    0 -0.56277898421E+02 -0.28808904637E+02 -0.61042350785E+02  0.87882440945E+02  0.00000000000E+00 0.  1.
         14    1    4    4    0    0 -0.72452974114E+02  0.41458941816E+02 -0.16118921544E+03  0.18152201103E+03  0.00000000000E+00 0. -1.
        -11    1    3    3    0    0  0.44633743105E+02  0.16312133412E+02 -0.98829598760E+02  0.10966105193E+03  0.00000000000E+00 0.  1.
         11    1    3    3    0    0 -0.33755012056E+02 -0.36666263132E+02 -0.10900009040E+03  0.11985339127E+03  0.00000000000E+00 0. -1.
          1    1    1    2  501    0  0.11785214149E+03  0.77040925409E+01 -0.69777347143E+02  0.13717637723E+03  0.00000000000E+00 0. -1.
<scales pt_clust_5="13000.00000" pt_clust_6="13000.00000" pt_clust_7="13000.00000" pt_clust_8="13000.00000" pt_clust_9="13000.00000"></scales>
<clustering>
<clus scale="   80.376">  5  6 -1 -1</clus>
<clus scale="   94.610">  7  8 -1 -1</clus>
<clus scale="   97.384">  2  7  1 -1</clus>
<clus scale="  121.087">  5  9 -1 -1</clus>
<clus scale="  282.911">  1  5  2 -1</clus>
</clustering>
</event>
<event>
 9    2  0.6085395E-005  0.3327931E+03  0.7546771E-02  0.1109241E+00
         21   -1    0    0  501  502  0.00000000000E+00  0.00000000000E+00  0.47587357438E+02  0.47587357438E+02  0.00000000000E+00 0. -1.
          2   -1    0    0  502    0 -0.00000000000E+00 -0.00000000000E+00 -0.11109577693E+04  0.11109577693E+04  0.00000000000E+00 0. -1.
         23    2    1    2    0    0 -0.27219453269E+02 -0.69780287229E+02 -0.39174521213E+03  0.40899081742E+03  0.90548276550E+02 0.  0.
         24    2    1    2    0    0  0.31675385204E+02 -0.92697078200E+02 -0.11965306171E+03  0.17414837369E+03  0.80091963061E+02 0.  0.
        -13    1    4    4    0    0  0.32967202883E+02 -0.44953497679E+01 -0.56826936628E+02  0.65850932887E+02  0.00000000000E+00 0.  1.
         14    1    4    4    0    0 -0.12918176786E+01 -0.88201728433E+02 -0.62826125080E+02  0.10829744080E+03  0.00000000000E+00 0. -1.
        -11    1    3    3    0    0  0.34100406524E+01  0.20903047865E+02 -0.56109456442E+02  0.59973634953E+02  0.00000000000E+00 0.  1.
         11    1    3    3    0    0 -0.30629493921E+02 -0.90683335094E+02 -0.33563575569E+03  0.34901718247E+03  0.00000000000E+00 0. -1.
          1    1    1    2  501    0 -0.44559319357E+01  0.16247736543E+03 -0.55197213807E+03  0.57540593567E+03  0.00000000000E+00 0. -1.
<scales pt_clust_5="13000.00000" pt_clust_6="13000.00000" pt_clust_7="13000.00000" pt_clust_8="13000.00000" pt_clust_9="13000.00000"></scales>
<clustering>
<clus scale="   80.092">  5  6 -1 -1</clus>
<clus scale="   90.548">  7  8 -1 -1</clus>
<clus scale="  117.512">  2  7  1 -1</clus>
<clus scale="  110.244">  5  9 -1 -1</clus>
<clus scale="  332.793">  1  5  2 -1</clus>
</clustering>
</event>
<event>
 9    2  0.6085395E-005  0.2552812E+03  0.7546771E-02  0.1125722E+00
         21   -1    0    0  501  502  0.00000000000E+00  0.00000000000E+00  0.16473493978E+03  0.16473493978E+03  0.00000000000E+00 0. -1.
          2   -1    0    0  502    0 -0.00000000000E+00 -0.00000000000E+00 -0.30182624056E+03  0.30182624056E+03  0.00000000000E+00 0. -1.
         23    2    1    2    0    0  0.14610909657E+03  0.11307897082E+02 -0.12180874242E+03  0.21082298643E+03  0.90184395761E+02 0.  0.
         24    2    1    2    0    0  0.66977515065E+01  0.42558674845E+02 -0.23500650958E+02  0.93506638915E+02  0.79593405794E+02 0.  0.
        -13    1    4    4    0    0  0.44778189859E+00  0.63962569446E+02 -0.29465869653E+02  0.70424770310E+02  0.00000000000E+00 0.  1.
         14    1    4    4    0    0  0.62499696080E+01 -0.21403894601E+02  0.59652186953E+01  0.23081868605E+02  0.00000000000E+00 0. -1.
        -13    1    3    3    0    0  0.58216003244E+02  0.46661218415E+02 -0.72459054642E+02  0.10400330253E+03  0.00000000000E+00 0.  1.
         13    1    3    3    0    0  0.87893093331E+02 -0.35353321333E+02 -0.49349687780E+02  0.10681968390E+03  0.00000000000E+00 0. -1.
          1    1    1    2  501    0 -0.15280684808E+03 -0.53866571927E+02  0.82180925998E+01  0.16223155500E+03  0.00000000000E+00 0. -1.
<scales pt_clust_5="13000.00000" pt_clust_6="13000.00000" pt_clust_7="13000.00000" pt_clust_8="13000.00000" pt_clust_9="13000.00000"></scales>
<clustering>
<clus scale="   79.593">  5  6 -1 -1</clus>
<clus scale="   90.184">  7  8 -1 -1</clus>
<clus scale="  162.023">  5  9 -1 -1</clus>
<clus scale="  172.073">  2  7  1 -1</clus>
<clus scale="  255.281">  1  5  2 -1</clus>
</clustering>
</event>
<event>
 9    2  0.6085395E-005  0.1354422E+03  0.7546771E-02  0.1237685E+00
         21   -1    0    0  501  502  0.00000000000E+00  0.00000000000E+00  0.54471739705E+02  0.54471739705E+02  0.00000000000E+00 0.  1.
          2   -1    0    0  502    0 -0.00000000000E+00 -0.00000000000E+00 -0.29768911893E+03  0.29768911893E+03  0.00000000000E+00 0. -1.
         23    2    1    2    0    0 -0.80930522464E+01  0.20578537867E+02 -0.26922604292E+02  0.96958961526E+02  0.90483367991E+02 0.  0.
         24    2    1    2    0    0 -0.10649513370E+02  0.22107990919E+02 -0.10509372385E+03  0.13462371804E+03  0.80477818488E+02 0.  0.
        -11    1    4    4    0    0  0.85978542961E+01  0.30648631134E+02 -0.10869559245E+03  0.11326073241E+03  0.00000000000E+00 0.  1.
         12    1    4    4    0    0 -0.19247367667E+02 -0.85406402153E+01  0.36018686010E+01  0.21362985625E+02  0.00000000000E+00 0. -1.
        -13    1    3    3    0    0 -0.41635506468E+02  0.32661495627E+02 -0.10855508904E+01  0.52928887351E+02  0.00000000000E+00 0.  1.
         13    1    3    3    0    0  0.33542454221E+02 -0.12082957760E+02 -0.25837053401E+02  0.44030074176E+02  0.00000000000E+00 0. -1.
          1    1    1    2  501    0  0.18742565617E+02 -0.42686528786E+02 -0.11120105109E+03  0.12057817907E+03  0.00000000000E+00 0. -1.
<scales pt_clust_5="13000.00000" pt_clust_6="13000.00000" pt_clust_7="13000.00000" pt_clust_8="13000.00000" pt_clust_9="13000.00000"></scales>
<clustering>
<clus scale="   80.478">  5  6 -1 -1</clus>
<clus scale="   46.620">  5  9 -1 -1</clus>
<clus scale="   90.483">  7  8 -1 -1</clus>
<clus scale="   93.146">  2  7  1 -1</clus>
<clus scale="  135.442">  1  5  2 -1</clus>
</clustering>
</event>
<event>
 9    2  0.6085395E-005  0.1394542E+03  0.7546771E-02  0.1220017E+00
         21   -1    0    0  501  502  0.00000000000E+00  0.00000000000E+00  0.12680683592E+03  0.12680683592E+03  0.00000000000E+00 0. -1.
          2   -1    0    0  502    0 -0.00000000000E+00 -0.00000000000E+00 -0.23879227407E+03  0.23879227407E+03  0.00000000000E+00 0. -1.
         23    2    1    2    0    0 -0.10491682723E+02 -0.91273622249E+02  0.65922628107E+02  0.13954877257E+03  0.81774797490E+02 0.  0.
         24    2    1    2    0    0  0.38667697616E+01  0.72101557386E+02 -0.10588710690E+03  0.15122737216E+03  0.80274854078E+02 0.  0.
        -11    1    4    4    0    0 -0.19929652728E+02  0.41017890230E+02 -0.10219330207E+03  0.11190678873E+03  0.00000000000E+00 0.  1.
         12    1    4    4    0    0  0.23796422490E+02  0.31083667156E+02 -0.36938048350E+01  0.39320583431E+02  0.00000000000E+00 0. -1.
        -11    1    3    3    0    0  0.30737162437E+02 -0.67048075284E+02  0.29501841308E+02  0.79439135157E+02  0.00000000000E+00 0.  1.
         11    1    3    3    0    0 -0.41228845160E+02 -0.24225546966E+02  0.36420786798E+02  0.60109637414E+02  0.00000000000E+00 0. -1.
          1    1    1    2  501    0  0.66249129617E+01  0.19172064864E+02 -0.72020959360E+02  0.74822965259E+02  0.00000000000E+00 0. -1.
<scales pt_clust_5="13000.00000" pt_clust_6="13000.00000" pt_clust_7="13000.00000" pt_clust_8="13000.00000" pt_clust_9="13000.00000"></scales>
<clustering>
<clus scale="   80.275">  5  6 -1 -1</clus>
<clus scale="   20.284">  5  9 -1 -1</clus>
<clus scale="   81.775">  7  8 -1 -1</clus>
<clus scale="  122.996">  2  7  1 -1</clus>
<clus scale="  139.454">  1  5  2 -1</clus>
</clustering>
</event>
<event>
 9    2  0.6085395E-005  0.1510675E+03  0.7546771E-02  0.1204398E+00
          2   -1    0    0  502    0 -0.00000000000E+00  0.00000000000E+00  0.21551139007E+03  0.21551139007E+03  0.00000000000E+00 0. -1.
         21   -1    0    0  501  502  0.00000000000E+00 -0.00000000000E+00 -0.22933368913E+03  0.22933368913E+03  0.00000000000E+00 0. -1.
         23    2    1    2    0    0  0.95997083217E+02 -0.21476710247E+02  0.16345823754E+03  0.21192925337E+03  0.92296933576E+02 0.  0.
         24    2    1    2    0    0 -0.56829461229E+02  0.18785487883E+02 -0.16286541223E+03  0.19109309156E+03  0.80055886262E+02 0.  0.
        -13    1    4    4    0    0 -0.15729229824E+02  0.13863335122E+02  0.20457152941E+01  0.21066221366E+02  0.00000000000E+00 0.  1.
         14    1    4    4    0    0 -0.41100231405E+02  0.49221527602E+01 -0.16491112752E+03  0.17002687020E+03  0.00000000000E+00 0. -1.
        -13    1    3    3    0    0  0.61603247053E+02 -0.49795611948E+02  0.14172387680E+03  0.16235830829E+03  0.00000000000E+00 0.  1.
         13    1    3    3    0    0  0.34393836164E+02  0.28318901701E+02  0.21734360741E+02  0.49570945083E+02  0.00000000000E+00 0. -1.
          1    1    1    2  501    0 -0.39167621988E+02  0.26912223645E+01 -0.14415124372E+02  0.41822734256E+02  0.00000000000E+00 0. -1.
<scales pt_clust_5="13000.00000" pt_clust_6="13000.00000" pt_clust_7="13000.00000" pt_clust_8="13000.00000" pt_clust_9="13000.00000"></scales>
<clustering>
<clus scale="   80.056">  5  6 -1 -1</clus>
<clus scale="   39.260">  5  9 -1 -1</clus>
<clus scale="   92.297">  7  8 -1 -1</clus>
<clus scale="  134.890">  1  7  2 -1</clus>
<clus scale="  151.068">  2  5  1 -1</clus>
</clustering>
</event>
<event>
 9    2  0.6085395E-005  0.3225190E+03  0.7546771E-02  0.1098648E+00
         -3   -1    0    0    0  501 -0.00000000000E+00  0.00000000000E+00  0.11337240970E+03  0.11337240970E+03  0.00000000000E+00 0.  1.
         21   -1    0    0  501  502  0.00000000000E+00 -0.00000000000E+00 -0.56337523706E+03  0.56337523706E+03  0.00000000000E+00 0.  1.
         23    2    1    2    0    0 -0.11813884004E+03 -0.82606076221E+02 -0.23230057865E+03  0.28762973144E+03  0.89368642191E+02 0.  0.
         24    2    1    2    0    0  0.88517579370E+01 -0.80230772979E+02 -0.13244095144E+03  0.17527452735E+03  0.81640821690E+02 0.  0.
        -11    1    4    4    0    0 -0.23018754479E+02 -0.79650044716E+02 -0.97161551102E+02  0.12772767787E+03  0.00000000000E+00 0.  1.
         12    1    4    4    0    0  0.31870512416E+02 -0.58072826260E+00 -0.35279400339E+02  0.47546849478E+02  0.00000000000E+00 0. -1.
        -11    1    3    3    0    0 -0.32669241951E+02 -0.64744279552E+02 -0.15453200817E+03  0.17070220459E+03  0.00000000000E+00 0.  1.
         11    1    3    3    0    0 -0.85469598091E+02 -0.17861796670E+02 -0.77768570489E+02  0.11692752684E+03  0.00000000000E+00 0. -1.
         -4    1    1    2    0  502  0.10928708211E+03  0.16283684920E+03 -0.85261297261E+02  0.21384338798E+03  0.00000000000E+00 0.  1.
<scales pt_clust_5="13000.00000" pt_clust_6="13000.00000" pt_clust_7="13000.00000" pt_clust_8="13000.00000" pt_clust_9="13000.00000"></scales>
<clustering>
<clus scale="   81.641">  5  6 -1 -1</clus>
<clus scale="   89.369">  7  8 -1 -1</clus>
<clus scale="  169.609">  1  7  2 -1</clus>
<clus scale="  102.968">  5  9 -1 -1</clus>
<clus scale="  322.519">  2  5  1 -1</clus>
</clustering>
</event>
<event>
 9    2  0.6085395E-005  0.1142762E+03  0.7546771E-02  0.1260675E+00
         21   -1    0    0  501  502  0.00000000000E+00  0.00000000000E+00  0.18809830073E+03  0.18809830073E+03  0.00000000000E+00 0. -1.
          2   -1    0    0  502    0 -0.00000000000E+00 -0.00000000000E+00 -0.11924463055E+03  0.11924463055E+03  0.00000000000E+00 0. -1.
         23    2    1    2    0    0 -0.14086499276E+02 -0.34317606661E+02 -0.75210512477E+02  0.12345836693E+03  0.90604743741E+02 0.  0.
         24    2    1    2    0    0 -0.45143422110E+01  0.57872293137E+01  0.95612441922E+02  0.12466003468E+03  0.79652456879E+02 0.  0.
        -11    1    4    4    0    0  0.23623595700E+02  0.25340913756E+01 -0.11995492081E+01  0.23789384422E+02  0.00000000000E+00 0.  1.
         12    1    4    4    0    0 -0.28137937911E+02  0.32531379381E+01  0.96811991130E+02  0.10087065026E+03  0.00000000000E+00 0. -1.
        -11    1    3    3    0    0  0.21345989118E+02 -0.18148222897E+02  0.10015779322E+02  0.29754412802E+02  0.00000000000E+00 0.  1.
         11    1    3    3    0    0 -0.35432488394E+02 -0.16169383764E+02 -0.85226291798E+02  0.93703954125E+02  0.00000000000E+00 0. -1.
          1    1    1    2  501    0  0.18600841487E+02  0.28530377348E+02  0.48451740731E+02  0.59224529677E+02  0.00000000000E+00 0. -1.
<scales pt_clust_5="13000.00000" pt_clust_6="13000.00000" pt_clust_7="13000.00000" pt_clust_8="13000.00000" pt_clust_9="13000.00000"></scales>
<clustering>
<clus scale="   79.652">  5  6 -1 -1</clus>
<clus scale="   34.058">  5  9 -1 -1</clus>
<clus scale="   90.605">  7  8 -1 -1</clus>
<clus scale="   97.905">  2  7  1 -1</clus>
<clus scale="  114.276">  1  5  2 -1</clus>
</clustering>
</event>
<event>
 9    2  0.6085395E-005  0.2765091E+03  0.7546771E-02  0.1136977E+00
          2   -1    0    0  502    0 -0.00000000000E+00  0.00000000000E+00  0.57515449997E+03  0.57515449997E+03  0.00000000000E+00 0. -1.
         21   -1    0    0  501  502  0.00000000000E+00 -0.00000000000E+00 -0.78118548095E+02  0.78118548095E+02  0.00000000000E+00 0. -1.
         23    2    1    2    0    0  0.46063042988E+02 -0.19181276986E+02  0.24297367668E+02  0.10560614405E+03  0.89847483376E+02 0.  0.
         24    2    1    2    0    0 -0.71556906050E+02  0.11913682063E+03  0.20222811881E+03  0.25815531591E+03  0.80212107944E+02 0.  0.
        -11    1    4    4    0    0 -0.83947138068E+02  0.92232696073E+02  0.18720350349E+03  0.22494253473E+03  0.00000000000E+00 0.  1.
         12    1    4    4    0    0  0.12390232018E+02  0.26904124559E+02  0.15024615322E+02  0.33212781174E+02  0.00000000000E+00 0. -1.
        -11    1    3    3    0    0  0.39681188311E+02  0.31653360446E+02  0.18585388454E+02  0.54055051543E+02  0.00000000000E+00 0.  1.
         11    1    3    3    0    0  0.63818546769E+01 -0.50834637432E+02  0.57119792144E+01  0.51551092505E+02  0.00000000000E+00 0. -1.
          1    1    1    2  501    0  0.25493863062E+02 -0.99955543646E+02  0.27051046540E+03  0.28951158811E+03  0.00000000000E+00 0. -1.
<scales pt_clust_5="13000.00000" pt_clust_6="13000.00000" pt_clust_7="13000.00000" pt_clust_8="13000.00000" pt_clust_9="13000.00000"></scales>
<clustering>
<clus scale="   80.212">  5  6 -1 -1</clus>
<clus scale="   89.847">  7  8 -1 -1</clus>
<clus scale="  102.773">  1  7  2 -1</clus>
<clus scale="  121.591">  5  9 -1 -1</clus>
<clus scale="  276.509">  2  5  1 -1</clus>
</clustering>
</event>
<event>
 9    2  0.6085395E-005  0.2969309E+03  0.7546771E-02  0.1121289E+00
         -3   -1    0    0    0  501 -0.00000000000E+00  0.00000000000E+00  0.10486752105E+04  0.10486752105E+04  0.00000000000E+00 0.  1.
         21   -1    0    0  501  502  0.00000000000E+00 -0.00000000000E+00 -0.44809070260E+02  0.44809070260E+02  0.00000000000E+00 0.  1.
         23    2    1    2    0    0 -0.47127260356E+02  0.64838944952E+02  0.43473984277E+03  0.45155537923E+03  0.92078565206E+02 0.  0.
         24    2    1    2    0    0  0.10501330155E+03  0.37365597899E+02  0.46537396270E+03  0.48520905812E+03  0.80193039044E+02 0.  0.
        -11    1    4    4    0    0  0.33323421874E+02  0.40331314832E+02  0.10002129441E+03  0.11287747666E+03  0.00000000000E+00 0.  1.
         12    1    4    4    0    0  0.71689879681E+02 -0.29657169328E+01  0.36535266828E+03  0.37233158145E+03  0.00000000000E+00 0. -1.
        -13    1    3    3    0    0 -0.70214764534E+02  0.31767747565E+02  0.22122200895E+03  0.23426156362E+03  0.00000000000E+00 0.  1.
         13    1    3    3    0    0  0.23087504178E+02  0.33071197387E+02  0.21351783382E+03  0.21729381562E+03  0.00000000000E+00 0. -1.
         -4    1    1    2    0  502 -0.57886041199E+02 -0.10220454285E+03  0.10375233474E+03  0.15671984338E+03  0.00000000000E+00 0.  1.
<scales pt_clust_5="13000.00000" pt_clust_6="13000.00000" pt_clust_7="13000.00000" pt_clust_8="13000.00000" pt_clust_9="13000.00000"></scales>
<clustering>
<clus scale="   80.193">  5  6 -1 -1</clus>
<clus scale="   92.079">  7  8 -1 -1</clus>
<clus scale="  117.459">  5  9 -1 -1</clus>
<clus scale="  122.080">  1  7  2 -1</clus>
<clus scale="  296.931">  2  5  1 -1</clus>
</clustering>
</event>
<event>
 9    2  0.6085395E-005  0.2564929E+03  0.7546771E-02  0.1120930E+00
          2   -1    0    0  502    0 -0.00000000000E+00  0.00000000000E+00  0.71210389961E+02  0.71210389961E+02  0.00000000000E+00 0. -1.
         21   -1    0    0  501  502  0.00000000000E+00 -0.00000000000E+00 -0.81041446466E+03  0.81041446466E+03  0.00000000000E+00 0.  1.
         23    2    1    2    0    0 -0.16818921859E+03 -0.27307630242E+02 -0.16402173412E+03  0.25184447950E+03  0.86540121734E+02 0.  0.
         24    2    1    2    0    0  0.12976215634E+03  0.64098449958E+02 -0.24755907152E+03  0.29786591332E+03  0.80571582570E+02 0.  0.
        -11    1    4    4    0    0  0.22989942658E+02 -0.11418049159E+02 -0.11773531454E+02  0.28240491372E+02  0.00000000000E+00 0.  1.
         12    1    4    4    0    0  0.10677221368E+03  0.75516499117E+02 -0.23578554007E+03  0.26962542195E+03  0.00000000000E+00 0. -1.
        -11    1    3    3    0    0 -0.28739638539E+02 -0.11253151547E+02 -0.85729498646E+02  0.91116119217E+02  0.00000000000E+00 0.  1.
         11    1    3    3    0    0 -0.13944958005E+03 -0.16054478695E+02 -0.78292235478E+02  0.16072836028E+03  0.00000000000E+00 0. -1.
          1    1    1    2  501    0  0.38427062251E+02 -0.36790819716E+02 -0.32762326905E+03  0.33191446180E+03  0.00000000000E+00 0. -1.
<scales pt_clust_5="13000.00000" pt_clust_6="13000.00000" pt_clust_7="13000.00000" pt_clust_8="13000.00000" pt_clust_9="13000.00000"></scales>
<clustering>
<clus scale="   80.572">  5  6 -1 -1</clus>
<clus scale="   53.200">  5  9 -1 -1</clus>
<clus scale="   86.540">  7  8 -1 -1</clus>
<clus scale="  191.109">  1  7  2 -1</clus>
<clus scale="  256.493">  2  5  1 -1</clus>
</clustering>
</event>
<event>
 9    2  0.6085395E-005  0.1256122E+03  0.7546771E-02  0.1246404E+00
         21   -1    0    0  501  502  0.00000000000E+00  0.00000000000E+00  0.29771984834E+02  0.29771984834E+02  0.00000000000E+00 0.  1.
          2   -1    0    0  502    0 -0.00000000000E+00 -0.00000000000E+00 -0.43125912561E+03  0.43125912561E+03  0.00000000000E+00 0. -1.
         23    2    1    2    0    0 -0.28287543050E+02  0.34208324051E+02 -0.21441447960E+03  0.23569888331E+03  0.87235313978E+02 0.  0.
         24    2    1    2    0    0  0.51107396569E+02 -0.36883372705E+02 -0.16192592682E+03  0.19126963990E+03  0.79948234545E+02 0.  0.
        -11    1    4    4    0    0 -0.19136570753E+02 -0.23145775629E+02 -0.42557976614E+02  0.52087586267E+02  0.00000000000E+00 0.  1.
         12    1    4    4    0    0  0.70243967322E+02 -0.13737597076E+02 -0.11936795020E+03  0.13918205364E+03  0.00000000000E+00 0. -1.
        -13    1    3    3    0    0 -0.40199424497E+02 -0.12613474877E+02 -0.55989256851E+02  0.70070609824E+02  0.00000000000E+00 0.  1.
         13    1    3    3    0    0  0.11911881447E+02  0.46821798929E+02 -0.15842522275E+03  0.16562827349E+03  0.00000000000E+00 0. -1.
          1    1    1    2  501    0 -0.22819853519E+02  0.26750486535E+01 -0.25146734349E+02  0.34062587223E+02  0.00000000000E+00 0. -1.
<scales pt_clust_5="13000.00000" pt_clust_6="13000.00000" pt_clust_7="13000.00000" pt_clust_8="13000.00000" pt_clust_9="13000.00000"></scales>
<clustering>
<clus scale="   79.948">  5  6 -1 -1</clus>
<clus scale="   22.976">  5  9 -1 -1</clus>
<clus scale="   87.235">  7  8 -1 -1</clus>
<clus scale="   97.879">  2  7  1 -1</clus>
<clus scale="  125.612">  1  5  2 -1</clus>
</clustering>
</event>
<event>
 9    2  0.6085395E-005  0.2472155E+03  0.7546771E-02  0.1147011E+00
         21   -1    0    0  501  502  0.00000000000E+00  0.00000000000E+00  0.10694738785E+04  0.10694738785E+04  0.00000000000E+00 0. -1.
          4   -1    0    0  502    0 -0.00000000000E+00 -0.00000000000E+00 -0.31744575979E+02  0.31744575979E+02  0.00000000000E+00 0. -1.
         23    2    1    2    0    0 -0.42341241611E+02 -0.52066158398E+02  0.22589812346E+03  0.25258108177E+03  0.90904208347E+02 0.  0.
         24    2    1    2    0    0  0.39447075741E+01 -0.76831149436E+02  0.31783799752E+03  0.33666269247E+03  0.80013683786E+02 0.  0.
        -13    1    4    4    0    0  0.26414447838E+02  0.16666813873E+01  0.48899580850E+02  0.55602786699E+02  0.00000000000E+00 0.  1.
         14    1    4    4    0    0 -0.22469740264E+02 -0.78497830823E+02  0.26893841667E+03  0.28105990577E+03  0.00000000000E+00 0. -1.
        -13    1    3    3    0    0  0.27710245761E+02 -0.18905718944E+02  0.48279141106E+02  0.58789109492E+02  0.00000000000E+00 0.  1.
         13    1    3    3    0    0 -0.70051487372E+02 -0.33160439454E+02  0.17761898235E+03  0.19379197228E+03  0.00000000000E+00 0. -1.
          3    1    1    2  501    0  0.38396534037E+02  0.12889730783E+03  0.49399318155E+03  0.51197468024E+03  0.00000000000E+00 0. -1.
<scales pt_clust_5="13000.00000" pt_clust_6="13000.00000" pt_clust_7="13000.00000" pt_clust_8="13000.00000" pt_clust_9="13000.00000"></scales>
<clustering>
<clus scale="   80.014">  5  6 -1 -1</clus>
<clus scale="   90.904">  7  8 -1 -1</clus>
<clus scale="  112.992">  2  7  1 -1</clus>
<clus scale="  104.966">  5  9 -1 -1</clus>
<clus scale="  247.216">  1  5  2 -1</clus>
</clustering>
</event>
<event>
 9    2  0.6085395E-005  0.3912656E+03  0.7546771E-02  0.1083788E+00
         21   -1    0    0  501  502  0.00000000000E+00  0.00000000000E+00  0.32283369798E+03  0.32283369798E+03  0.00000000000E+00 0.  1.
          2   -1    0    0  502    0 -0.00000000000E+00 -0.00000000000E+00 -0.23704898070E+03  0.23704898070E+03  0.00000000000E+00 0. -1.
         23    2    1    2    0    0 -0.83766133502E+02  0.66583607257E+02  0.92989394337E+02  0.16855073241E+03  0.91171158046E+02 0.  0.
         24    2    1    2    0    0 -0.74083189625E+02 -0.48641587792E+02  0.13358328597E+03  0.17905953778E+03  0.79771553404E+02 0.  0.
        -11    1    4    4    0    0 -0.62768126162E+02 -0.53213436361E+02  0.53725850176E+02  0.98274994013E+02  0.00000000000E+00 0.  1.
         12    1    4    4    0    0 -0.11315063463E+02  0.45718485693E+01  0.79857435793E+02  0.80784543769E+02  0.00000000000E+00 0. -1.
        -13    1    3    3    0    0 -0.62343044100E+02  0.74792687169E+02  0.10454358399E+03  0.14286343884E+03  0.00000000000E+00 0.  1.
         13    1    3    3    0    0 -0.21423089402E+02 -0.82090799117E+01 -0.11554189657E+02  0.25687293574E+02  0.00000000000E+00 0. -1.
          1    1    1    2  501    0  0.15784932313E+03 -0.17942019466E+02 -0.14078796302E+03  0.21227240849E+03  0.00000000000E+00 0. -1.
<scales pt_clust_5="13000.00000" pt_clust_6="13000.00000" pt_clust_7="13000.00000" pt_clust_8="13000.00000" pt_clust_9="13000.00000"></scales>
<clustering>
<clus scale="   79.772">  5  6 -1 -1</clus>
<clus scale="   91.171">  7  8 -1 -1</clus>
<clus scale="  140.579">  2  7  1 -1</clus>
<clus scale="   93.169">  5  9 -1 -1</clus>
<clus scale="  391.266">  1  5  2 -1</clus>
</clustering>
</event>
<event>
 9    2  0.6085395E-005  0.2697622E+03  0.7546771E-02  0.1122755E+00
         21   -1    0    0  501  502  0.00000000000E+00  0.00000000000E+00  0.17520365875E+03  0.17520365875E+03  0.00000000000E+00 0.  1.
         -1   -1    0    0    0  501 -0.00000000000E+00 -0.00000000000E+00 -0.55019721197E+03  0.55019721197E+03  0.00000000000E+00 0.  1.
         23    2    1    2    0    0 -0.25273122157E+02  0.12507405772E+03 -0.42319417559E+03  0.45136628781E+03  0.91410967090E+02 0.  0.
         24    2    1    2    0    0 -0.52069629386E+02  0.41797432210E+01  0.74178840972E+02  0.12118395609E+03  0.80338871093E+02 0.  0.
        -11    1    4    4    0    0 -0.69788038187E+02 -0.13685133614E+01  0.75182943773E+02  0.10259004892E+03  0.00000000000E+00 0.  1.
         12    1    4    4    0    0  0.17718408801E+02  0.55482565823E+01 -0.10041028008E+01  0.18593907174E+02  0.00000000000E+00 0. -1.
        -11    1    3    3    0    0  0.38140412998E+01  0.87138962406E+02 -0.36870041231E+03  0.37887694535E+03  0.00000000000E+00 0.  1.
         11    1    3    3    0    0 -0.29087163456E+02  0.37935095319E+02 -0.54493763281E+02  0.72489342467E+02  0.00000000000E+00 0. -1.
         -2    1    1    2    0  502  0.77342751542E+02 -0.12925380095E+03 -0.25978218605E+02  0.15285062681E+03  0.00000000000E+00 0.  1.
<scales pt_clust_5="13000.00000" pt_clust_6="13000.00000" pt_clust_7="13000.00000" pt_clust_8="13000.00000" pt_clust_9="13000.00000"></scales>
<clustering>
<clus scale="   80.339">  5  6 -1 -1</clus>
<clus scale="   91.411">  7  8 -1 -1</clus>
<clus scale="  150.627">  5  9 -1 -1</clus>
<clus scale="  156.966">  2  7  1 -1</clus>
<clus scale="  269.762">  1  5  2 -1</clus>
</clustering>
</event>
<event>
 9    2  0.6085395E-005  0.2315918E+03  0.7546771E-02  0.1144940E+00
          2   -1    0    0  502    0 -0.00000000000E+00  0.00000000000E+00  0.14260314675E+03  0.14260314675E+03  0.00000000000E+00 0. -1.
         21   -1    0    0  501  502  0.00000000000E+00 -0.00000000000E+00 -0.26891569560E+03  0.26891569560E+03  0.00000000000E+00 0. -1.
         23    2    1    2    0    0 -0.88132730366E+02  0.69893920237E+02  0.64987461118E+01  0.14454768092E+03  0.90549765941E+02 0.  0.
         24    2    1    2    0    0 -0.13579257677E+02  0.28059383728E+02 -0.25092842507E+02  0.89366422556E+02  0.79906079125E+02 0.  0.
        -11    1    4    4    0    0  0.10608758793E+02  0.28620817737E+02 -0.47452584619E+02  0.56422023697E+02  0.00000000000E+00 0.  1.
         12    1    4    4    0    0 -0.24188016470E+02 -0.56143400946E+00  0.22359742112E+02  0.32944398859E+02  0.00000000000E+00 0. -1.
        -13    1    3    3    0    0 -0.47811093312E+02  0.61307505677E+02 -0.35702203216E+02  0.85552078937E+02  0.00000000000E+00 0.  1.
         13    1    3    3    0    0 -0.40321637054E+02  0.85864145604E+01  0.42200949328E+02  0.58995601988E+02  0.00000000000E+00 0. -1.
          1    1    1    2  501    0  0.10171198804E+03 -0.97953303965E+02 -0.10771845246E+03  0.17760473887E+03  0.00000000000E+00 0. -1.
<scales pt_clust_5="13000.00000" pt_clust_6="13000.00000" pt_clust_7="13000.00000" pt_clust_8="13000.00000" pt_clust_9="13000.00000"></scales>
<clustering>
<clus scale="   79.906">  5  6 -1 -1</clus>
<clus scale="   90.550">  7  8 -1 -1</clus>
<clus scale="  141.210">  5  9 -1 -1</clus>
<clus scale="  144.402">  1  7  2 -1</clus>
<clus scale="  231.592">  2  5  1 -1</clus>
</clustering>
</event>
<event>
 9    2  0.6085395E-005  0.1606401E+03  0.7546771E-02  0.1213307E+00
         -3   -1    0    0    0  501 -0.00000000000E+00  0.00000000000E+00  0.95912075859E+02  0.95912075859E+02  0.00000000000E+00 0.  1.
         21   -1    0    0  501  502  0.00000000000E+00 -0.00000000000E+00 -0.33715348256E+03  0.33715348256E+03  0.00000000000E+00 0.  1.
         23    2    1    2    0    0  0.12786606002E+02 -0.16353108343E+02  0.46346790656E+02  0.10365363628E+03  0.90361108137E+02 0.  0.
         24    2    1    2    0    0  0.43285119180E+02  0.37619043797E+02 -0.16475233995E+03  0.19271910506E+03  0.81905591623E+02 0.  0.
        -13    1    4    4    0    0  0.35771532293E+02  0.60245768267E+02 -0.14748312798E+03  0.16328021361E+03  0.00000000000E+00 0.  1.
         14    1    4    4    0    0  0.75135868864E+01 -0.22626724470E+02 -0.17269211968E+02  0.29438891456E+02  0.00000000000E+00 0. -1.
        -13    1    3    3    0    0  0.38181443098E+02  0.23164095825E+02  0.14706640503E+02  0.47017903051E+02  0.00000000000E+00 0.  1.
         13    1    3    3    0    0 -0.25394837095E+02 -0.39517204168E+02  0.31640150154E+02  0.56635733227E+02  0.00000000000E+00 0. -1.
         -4    1    1    2    0  502 -0.56071725182E+02 -0.21265935454E+02 -0.12283585741E+03  0.13669281708E+03  0.00000000000E+00 0.  1.
<scales pt_clust_5="13000.00000" pt_clust_6="13000.00000" pt_clust_7="13000.00000" pt_clust_8="13000.00000" pt_clust_9="13000.00000"></scales>
<clustering>
<clus scale="   81.906">  5  6 -1 -1</clus>
<clus scale="   59.969">  5  9 -1 -1</clus>
<clus scale="   90.361">  7  8 -1 -1</clus>
<clus scale="   92.715">  1  7  2 -1</clus>
<clus scale="  160.640">  2  5  1 -1</clus>
</clustering>
</event>
<event>
 9    2  0.6085395E-005  0.1262756E+03  0.7546771E-02  0.1242571E+00
         21   -1    0    0  501  502  0.00000000000E+00  0.00000000000E+00  0.36911350212E+02  0.36911350212E+02  0.00000000000E+00 0. -1.
          2   -1    0    0  502    0 -0.00000000000E+00 -0.00000000000E+00 -0.37145567407E+03  0.37145567407E+03  0.00000000000E+00 0. -1.
         23    2    1    2    0    0 -0.33279370086E+02 -0.35474549692E+02 -0.18827784580E+03  0.21513295637E+03  0.92020006243E+02 0.  0.
         24    2    1    2    0    0  0.28516140879E+02 -0.31601562786E+01 -0.10871731625E+03  0.13914831738E+03  0.81973425566E+02 0.  0.
        -11    1    4    4    0    0 -0.69506434468E+01  0.33696537270E+02 -0.32296230083E+02  0.47189135889E+02  0.00000000000E+00 0.  1.
         12    1    4    4    0    0  0.35466784326E+02 -0.36856693549E+02 -0.76421086170E+02  0.91959181495E+02  0.00000000000E+00 0. -1.
        -11    1    3    3    0    0  0.29263632690E+02 -0.83844750260E+01 -0.29705834943E+02  0.42533472106E+02  0.00000000000E+00 0.  1.
         11    1    3    3    0    0 -0.62543002777E+02 -0.27090074667E+02 -0.15857201086E+03  0.17259948427E+03  0.00000000000E+00 0. -1.
          1    1    1    2  501    0  0.47632292074E+01  0.38634705971E+02 -0.37549161808E+02  0.54085750530E+02  0.00000000000E+00 0. -1.
<scales pt_clust_5="13000.00000" pt_clust_6="13000.00000" pt_clust_7="13000.00000" pt_clust_8="13000.00000" pt_clust_9="13000.00000"></scales>
<clustering>
<clus scale="   81.973">  5  6 -1 -1</clus>
<clus scale="   38.927">  5  9 -1 -1</clus>
<clus scale="   92.020">  7  8 -1 -1</clus>
<clus scale="  104.085">  2  7  1 -1</clus>
<clus scale="  126.276">  1  5  2 -1</clus>
</clustering>
</event>
<event>
 9    2  0.6085395E-005  0.2606195E+03  0.7546771E-02  0.1144072E+00
         -1   -1    0    0    0  501 -0.00000000000E+00  0.00000000000E+00  0.10802672390E+04  0.10802672390E+04  0.00000000000E+00 0.  1.
         21   -1    0    0  501  502  0.00000000000E+00 -0.00000000000E+00 -0.30748960859E+02  0.30748960859E+02  0.00000000000E+00 0.  1.
         23    2    1    2    0    0  0.10643312199E+02  0.48724992365E+02  0.27417429583E+03  0.29304261228E+03  0.90636764865E+02 0.  0.
         24    2    1    2    0    0  0.24603871417E+02  0.59087832901E+02  0.60282842081E+03  0.61150909134E+03  0.80277900830E+02 0.  0.
        -11    1    4    4    0    0  0.24404380971E+02  0.74423596097E+02  0.37117701524E+03  0.37935052670E+03  0.00000000000E+00 0.  1.
         12    1    4    4    0    0  0.19949044619E+00 -0.15335763196E+02  0.23165140557E+03  0.23215856463E+03  0.00000000000E+00 0. -1.
        -11    1    3    3    0    0  0.41442553416E+02  0.55870632341E+02  0.15785368130E+03  0.17250158693E+03  0.00000000000E+00 0.  1.
         11    1    3    3    0    0 -0.30799241216E+02 -0.71456399756E+01  0.11632061452E+03  0.12054102535E+03  0.00000000000E+00 0. -1.
         -2    1    1    2    0  502 -0.35247183616E+02 -0.10781282527E+03  0.17251556145E+03  0.20646449619E+03  0.00000000000E+00 0.  1.
<scales pt_clust_5="13000.00000" pt_clust_6="13000.00000" pt_clust_7="13000.00000" pt_clust_8="13000.00000" pt_clust_9="13000.00000"></scales>
<clustering>
<clus scale="   80.278">  5  6 -1 -1</clus>
<clus scale="   90.637">  7  8 -1 -1</clus>
<clus scale="  103.453">  1  7  2 -1</clus>
<clus scale="  101.633">  5  9 -1 -1</clus>
<clus scale="  260.619">  2  5  1 -1</clus>
</clustering>
</event>
<event>
 9    2  0.6085395E-005  0.1661627E+03  0.7546771E-02  0.1209208E+00
          2   -1    0    0  502    0 -0.00000000000E+00  0.00000000000E+00  0.36169081557E+03  0.36169081557E+03  0.00000000000E+00 0. -1.
         21   -1    0    0  501  502  0.00000000000E+00 -0.00000000000E+00 -0.48676432126E+02  0.48676432126E+02  0.00000000000E+00 0. -1.
         23    2    1    2    0    0 -0.27130042529E+01  0.24470697544E+02  0.66369775776E+02  0.11297254680E+03  0.88043590134E+02 0.  0.
         24    2    1    2    0    0 -0.41910777955E+02  0.26647933824E+02  0.17426309546E+03  0.19818038882E+03  0.80257176541E+02 0.  0.
        -13    1    4    4    0    0  0.14026666561E+02  0.27698669548E+02  0.10301016810E+03  0.10758744537E+03  0.00000000000E+00 0.  1.
         14    1    4    4    0    0 -0.55937444516E+02 -0.10507357241E+01  0.71252927355E+02  0.90592943441E+02  0.00000000000E+00 0. -1.
        -13    1    3    3    0    0 -0.37060967258E+02  0.15532422917E+02  0.66245336465E+02  0.77480423715E+02  0.00000000000E+00 0.  1.
         13    1    3    3    0    0  0.34347963005E+02  0.89382746276E+01  0.12443931093E+00  0.35492123085E+02  0.00000000000E+00 0. -1.
          1    1    1    2  501    0  0.44623782208E+02 -0.51118631369E+02  0.72381512208E+02  0.99214312078E+02  0.00000000000E+00 0. -1.
<scales pt_clust_5="13000.00000" pt_clust_6="13000.00000" pt_clust_7="13000.00000" pt_clust_8="13000.00000" pt_clust_9="13000.00000"></scales>
<clustering>
<clus scale="   80.257">  5  6 -1 -1</clus>
<clus scale="   67.856">  5  9 -1 -1</clus>
<clus scale="   88.044">  7  8 -1 -1</clus>
<clus scale="   91.421">  1  7  2 -1</clus>
<clus scale="  166.163">  2  5  1 -1</clus>
</clustering>
</event>
<event>
 9    2  0.6085395E-005  0.4063772E+03  0.7546771E-02  0.1064178E+00
         -1   -1    0    0    0  501 -0.00000000000E+00  0.00000000000E+00  0.71855825473E+02  0.71855825473E+02  0.00000000000E+00 0.  1.
         21   -1    0    0  501  502  0.00000000000E+00 -0.00000000000E+00 -0.13435749592E+04  0.13435749592E+04  0.00000000000E+00 0.  1.
         23    2    1    2    0    0  0.95293817747E+02  0.16897304488E+03 -0.47667625977E+03  0.52255026421E+03  0.90585431503E+02 0.  0.
         24    2    1    2    0    0  0.42899097182E+01  0.94651583662E+02 -0.27053836008E+03  0.29746482649E+03  0.79479513788E+02 0.  0.
        -11    1    4    4    0    0  0.23076106654E+02 -0.37486916608E+01 -0.56350810568E+02  0.61007976849E+02  0.00000000000E+00 0.  1.
         12    1    4    4    0    0 -0.18786196936E+02  0.98400275323E+02 -0.21418754951E+03  0.23645684965E+03  0.00000000000E+00 0. -1.
        -13    1    3    3    0    0 -0.10784049232E+02  0.62790279715E+02 -0.15493663081E+03  0.16752395205E+03  0.00000000000E+00 0. -1.
         13    1    3    3    0    0  0.10607786698E+03  0.10618276517E+03 -0.32173962896E+03  0.35502631216E+03  0.00000000000E+00 0.  1.
         -2    1    1    2    0  502 -0.99583727465E+02 -0.26362462854E+03 -0.52450451392E+03  0.59541569401E+03  0.00000000000E+00 0.  1.
<scales pt_clust_5="13000.00000" pt_clust_6="13000.00000" pt_clust_7="13000.00000" pt_clust_8="13000.00000" pt_clust_9="13000.00000"></scales>
<clustering>
<clus scale="   79.480">  5  6 -1 -1</clus>
<clus scale="   90.585">  7  8 -1 -1</clus>
<clus scale="  214.099">  1  7  2 -1</clus>
<clus scale="  144.417">  5  9 -1 -1</clus>
<clus scale="  406.377">  2  5  1 -1</clus>
</clustering>
</event>
<event>
 9    2  0.6085395E-005  0.3409140E+03  0.7546771E-02  0.1116347E+00
          2   -1    0    0  502    0 -0.00000000000E+00  0.00000000000E+00  0.89386809622E+03  0.89386809622E+03  0.00000000000E+00 0. -1.
         21   -1    0    0  501  502  0.00000000000E+00 -0.00000000000E+00 -0.59623635123E+02  0.59623635123E+02  0.00000000000E+00 0. -1.
         23    2    1    2    0    0 -0.19193324677E+02  0.45261501528E+01  0.34709476586E+03  0.35890183159E+03  0.89145266180E+02 0.  0.
         24    2    1    2    0    0 -0.13739442882E+03  0.30178901404E+02  0.14811125525E+03  0.21952826624E+03  0.80422139893E+02 0.  0.
        -11    1    4    4    0    0 -0.51312222046E+02 -0.21825296653E+02  0.26555784060E+02  0.61761617307E+02  0.00000000000E+00 0.  1.
         12    1    4    4    0    0 -0.86082206773E+02  0.52004198058E+02  0.12155547119E+03  0.15776664893E+03  0.00000000000E+00 0. -1.
        -13    1    3    3    0    0 -0.51696097075E+02 -0.13967970652E+02  0.21968108119E+03  0.22611361766E+03  0.00000000000E+00 0. -1.
         13    1    3    3    0    0  0.32502772398E+02  0.18494120805E+02  0.12741368466E+03  0.13278821393E+03  0.00000000000E+00 0.  1.
          1    1    1    2  501    0  0.15658775350E+03 -0.34705051557E+02  0.33903843999E+03  0.37506163352E+03  0.00000000000E+00 0. -1.
<scales pt_clust_5="13000.00000" pt_clust_6="13000.00000" pt_clust_7="13000.00000" pt_clust_8="13000.00000" pt_clust_9="13000.00000"></scales>
<clustering>
<clus scale="   80.422">  5  6 -1 -1</clus>
<clus scale="   89.145">  7  8 -1 -1</clus>
<clus scale="   91.300">  1  7  2 -1</clus>
<clus scale="  147.371">  5  9 -1 -1</clus>
<clus scale="  340.914">  2  5  1 -1</clus>
</clustering>
</event>
<event>
 9    2  0.6085395E-005  0.3433246E+03  0.7546771E-02  0.1082461E+00
          2   -1    0    0  502    0 -0.00000000000E+00  0.00000000000E+00  0.73038031835E+03  0.73038031835E+03  0.00000000000E+00 0. -1.
         21   -1    0    0  501  502  0.00000000000E+00 -0.00000000000E+00 -0.10793910897E+03  0.10793910897E+03  0.00000000000E+00 0. -1.
         23    2    1    2    0    0 -0.53522143323E+02 -0.18864403148E+03  0.20129307377E+03  0.29496175869E+03  0.89623362485E+02 0.  0.
         24    2    1    2    0    0 -0.14051806872E+02 -0.33757818824E+02  0.37550468873E+02  0.94831201536E+02  0.79030851343E+02 0.  0.
        -11    1    4    4    0    0 -0.19661620188E+02 -0.59015902618E+01  0.56875671156E+02  0.60466933489E+02  0.00000000000E+00 0.  1.
         12    1    4    4    0    0  0.56098133164E+01 -0.27856228562E+02 -0.19325202283E+02  0.34364268047E+02  0.00000000000E+00 0. -1.
        -13    1    3    3    0    0  0.98705243808E+01 -0.11793339241E+03  0.90141033229E+02  0.14876531238E+03  0.00000000000E+00 0. -1.
         13    1    3    3    0    0 -0.63392667704E+02 -0.70710639068E+02  0.11115204054E+03  0.14619644631E+03  0.00000000000E+00 0.  1.
          1    1    1    2  501    0  0.67573950195E+02  0.22240185030E+03  0.38359766673E+03  0.44852646709E+03  0.00000000000E+00 0. -1.
<scales pt_clust_5="13000.00000" pt_clust_6="13000.00000" pt_clust_7="13000.00000" pt_clust_8="13000.00000" pt_clust_9="13000.00000"></scales>
<clustering>
<clus scale="   79.031">  5  6 -1 -1</clus>
<clus scale="   89.623">  7  8 -1 -1</clus>
<clus scale="  215.601">  1  7  2 -1</clus>
<clus scale="   63.372">  5  9 -1 -1</clus>
<clus scale="  343.325">  2  5  1 -1</clus>
</clustering>
</event>
<event>
 9    2  0.6085395E-005  0.1537217E+03  0.7546771E-02  0.1217241E+00
         21   -1    0    0  501  502  0.00000000000E+00  0.00000000000E+00  0.32806438606E+03  0.32806438606E+03  0.00000000000E+00 0.  1.
         -3   -1    0    0    0  501 -0.00000000000E+00 -0.00000000000E+00 -0.77693906727E+02  0.77693906727E+02  0.00000000000E+00 0.  1.
         23    2    1    2    0    0  0.12797797975E+02  0.21069033110E+02 -0.15565796869E+02  0.98589825599E+02  0.94180528191E+02 0.  0.
         24    2    1    2    0    0  0.45121914696E+02 -0.22146582690E+02  0.14953965863E+03  0.17715298038E+03  0.80589147171E+02 0.  0.
        -13    1    4    4    0    0  0.59920921882E+02 -0.88473868277E+01  0.14442086602E+03  0.15660836400E+03  0.00000000000E+00 0.  1.
         14    1    4    4    0    0 -0.14799007185E+02 -0.13299195863E+02  0.51187926124E+01  0.20544616377E+02  0.00000000000E+00 0. -1.
        -11    1    3    3    0    0 -0.26144060856E+02 -0.12461468204E+02  0.20781343172E+02  0.35646378945E+02  0.00000000000E+00 0. -1.
         11    1    3    3    0    0  0.38941858831E+02  0.33530501313E+02 -0.36347140041E+02  0.62943446654E+02  0.00000000000E+00 0.  1.
         -4    1    1    2    0  502 -0.57919712672E+02  0.10775495809E+01  0.11639661757E+03  0.13001548681E+03  0.00000000000E+00 0.  1.
<scales pt_clust_5="13000.00000" pt_clust_6="13000.00000" pt_clust_7="13000.00000" pt_clust_8="13000.00000" pt_clust_9="13000.00000"></scales>
<clustering>
<clus scale="   80.589">  5  6 -1 -1</clus>
<clus scale="   57.930">  5  9 -1 -1</clus>
<clus scale="   94.181">  7  8 -1 -1</clus>
<clus scale="   97.353">  2  7  1 -1</clus>
<clus scale="  153.722">  1  5  2 -1</clus>
</clustering>
</event>
<event>
 9    2  0.6085395E-005  0.1119284E+04  0.7546771E-02  0.9608462E-01
         21   -1    0    0  501  502  0.00000000000E+00  0.00000000000E+00  0.53525560070E+03  0.53525560070E+03  0.00000000000E+00 0.  1.
          2   -1    0    0  502    0 -0.00000000000E+00 -0.00000000000E+00 -0.87832876796E+03  0.87832876796E+03  0.00000000000E+00 0. -1.
         23    2    1    2    0    0  0.14577654421E+03 -0.17410905993E+03 -0.17567109006E+02  0.24792927547E+03  0.97956912581E+02 0.  0.
         24    2    1    2    0    0  0.18039369627E+03 -0.19576981095E+03  0.27327760378E+03  0.38993653674E+03  0.80635906554E+02 0.  0.
        -11    1    4    4    0    0  0.97520056245E+02 -0.13977058774E+03  0.21435755792E+03  0.27385240770E+03  0.00000000000E+00 0.  1.
         12    1    4    4    0    0  0.82873640025E+02 -0.55999223217E+02  0.58920045864E+02  0.11608412905E+03  0.00000000000E+00 0. -1.
        -11    1    3    3    0    0  0.69741107182E+02 -0.78563246133E+02  0.40662961480E+02  0.11264760144E+03  0.00000000000E+00 0. -1.
         11    1    3    3    0    0  0.76035437028E+02 -0.95545813800E+02 -0.58230070486E+02  0.13528167403E+03  0.00000000000E+00 0.  1.
          1    1    1    2  501    0 -0.32617024048E+03  0.36987887089E+03 -0.59878366203E+03  0.77571855645E+03  0.00000000000E+00 0. -1.
<scales pt_clust_5="13000.00000" pt_clust_6="13000.00000" pt_clust_7="13000.00000" pt_clust_8="13000.00000" pt_clust_9="13000.00000"></scales>
<clustering>
<clus scale="   80.636">  5  6 -1 -1</clus>
<clus scale="   97.957">  7  8 -1 -1</clus>
<clus scale="  247.306">  2  7  1 -1</clus>
<clus scale="  283.956">  5  9 -1 -1</clus>
<clus scale=" 1119.284">  1  5  2 -1</clus>
</clustering>
</event>
<event>
 9    2  0.6085395E-005  0.1468856E+03  0.7546771E-02  0.1205009E+00
          2   -1    0    0  502    0 -0.00000000000E+00  0.00000000000E+00  0.24060182754E+03  0.24060182754E+03  0.00000000000E+00 0. -1.
         21   -1    0    0  501  502  0.00000000000E+00 -0.00000000000E+00 -0.11179164655E+03  0.11179164655E+03  0.00000000000E+00 0.  1.
         23    2    1    2    0    0  0.65211044049E+02  0.90922033446E+02  0.14460970636E+03  0.20466060250E+03  0.91949435073E+02 0.  0.
         24    2    1    2    0    0 -0.51142375612E+02 -0.66930183597E+02 -0.23599607867E+02  0.11884727695E+03  0.80452108041E+02 0.  0.
        -13    1    4    4    0    0 -0.15554773001E+02 -0.76936800805E+02 -0.23299033156E+02  0.81878368494E+02  0.00000000000E+00 0.  1.
         14    1    4    4    0    0 -0.35587602611E+02  0.10006617208E+02 -0.30057471080E+00  0.36968908459E+02  0.00000000000E+00 0. -1.
        -11    1    3    3    0    0 -0.20991149757E+02  0.37712122037E+02  0.36732732028E+02  0.56675621910E+02  0.00000000000E+00 0.  1.
         11    1    3    3    0    0  0.86202193807E+02  0.53209911410E+02  0.10787697433E+03  0.14798498059E+03  0.00000000000E+00 0. -1.
          1    1    1    2  501    0 -0.14068668438E+02 -0.23991849849E+02  0.78000825011E+01  0.28885594642E+02  0.00000000000E+00 0. -1.
<scales pt_clust_5="13000.00000" pt_clust_6="13000.00000" pt_clust_7="13000.00000" pt_clust_8="13000.00000" pt_clust_9="13000.00000"></scales>
<clustering>
<clus scale="   80.452">  5  6 -1 -1</clus>
<clus scale="   27.813">  5  9 -1 -1</clus>
<clus scale="   91.949">  7  8 -1 -1</clus>
<clus scale="  144.824">  1  7  2 -1</clus>
<clus scale="  146.886">  2  5  1 -1</clus>
</clustering>
</event>
<event>
 9    2  0.6085395E-005  0.1524853E+03  0.7546771E-02  0.1202788E+00
         21   -1    0    0  501  502  0.00000000000E+00  0.00000000000E+00  0.10142803997E+03  0.10142803997E+03  0.00000000000E+00 0. -1.
          4   -1    0    0  502    0 -0.00000000000E+00 -0.00000000000E+00 -0.21000548621E+03  0.21000548621E+03  0.00000000000E+00 0. -1.
         23    2    1    2    0    0 -0.86272315200E+02 -0.51809169121E+02 -0.75585742897E+02  0.15541998473E+03  0.91186976862E+02 0.  0.
         24    2    1    2    0    0  0.67930395464E+02  0.62655786415E+02 -0.73003938256E+01  0.12263512761E+03  0.80285693455E+02 0.  0.
        -11    1    4    4    0    0  0.70831528042E+01  0.42247902764E+02 -0.32413100720E+02  0.53718390146E+02  0.00000000000E+00 0.  1.
         12    1    4    4    0    0  0.60847242660E+02  0.20407883651E+02  0.25112706894E+02  0.68916737459E+02  0.00000000000E+00 0. -1.
        -11    1    3    3    0    0  0.65939045139E+01 -0.39147869264E+02 -0.36302707246E+02  0.53795183781E+02  0.00000000000E+00 0.  1.
         11    1    3    3    0    0 -0.92866219714E+02 -0.12661299857E+02 -0.39283035651E+02  0.10162480095E+03  0.00000000000E+00 0. -1.
          3    1    1    2  501    0  0.18341919736E+02 -0.10846617294E+02 -0.25691309513E+02  0.33378413845E+02  0.00000000000E+00 0. -1.
<scales pt_clust_5="13000.00000" pt_clust_6="13000.00000" pt_clust_7="13000.00000" pt_clust_8="13000.00000" pt_clust_9="13000.00000"></scales>
<clustering>
<clus scale="   80.286">  5  6 -1 -1</clus>
<clus scale="   21.309">  5  9 -1 -1</clus>
<clus scale="   91.187">  7  8 -1 -1</clus>
<clus scale="  135.802">  2  7  1 -1</clus>
<clus scale="  152.485">  1  5  2 -1</clus>
</clustering>
</event>
<event>
 9    2  0.6085395E-005  0.1344682E+03  0.7546771E-02  0.1236806E+00
         21   -1    0    0  501  502  0.00000000000E+00  0.00000000000E+00  0.51130695366E+02  0.51130695366E+02  0.00000000000E+00 0.  1.
          2   -1    0    0  502    0 -0.00000000000E+00 -0.00000000000E+00 -0.51957610170E+03  0.51957610170E+03  0.00000000000E+00 0. -1.
         23    2    1    2    0    0  0.75085410491E+00  0.33237969743E+02 -0.15396466949E+02  0.98123432137E+02  0.91026536380E+02 0.  0.
         24    2    1    2    0    0  0.18419716833E+02  0.64045592129E+01 -0.36497091365E+03  0.37411113783E+03  0.79844043566E+02 0.  0.
        -11    1    4    4    0    0 -0.19111266058E+02  0.30601754222E+02 -0.19865299645E+03  0.20190275098E+03  0.00000000000E+00 0.  1.
         12    1    4    4    0    0  0.37530982891E+02 -0.24197195009E+02 -0.16631791719E+03  0.17220838685E+03  0.00000000000E+00 0. -1.
        -11    1    3    3    0    0  0.90734774763E+01 -0.22968030543E+02  0.19480776729E+02  0.31454078949E+02  0.00000000000E+00 0. -1.
         11    1    3    3    0    0 -0.83226233714E+01  0.56206000286E+02 -0.34877243678E+02  0.66669353188E+02  0.00000000000E+00 0.  1.
          1    1    1    2  501    0 -0.19170570938E+02 -0.39642528956E+02 -0.88078025742E+02  0.98472227103E+02  0.00000000000E+00 0. -1.
<scales pt_clust_5="13000.00000" pt_clust_6="13000.00000" pt_clust_7="13000.00000" pt_clust_8="13000.00000" pt_clust_9="13000.00000"></scales>
<clustering>
<clus scale="   79.844">  5  6 -1 -1</clus>
<clus scale="   44.035">  5  9 -1 -1</clus>
<clus scale="   91.027">  7  8 -1 -1</clus>
<clus scale="   96.908">  2  7  1 -1</clus>
<clus scale="  134.468">  1  5  2 -1</clus>
</clustering>
</event>
<event>
 9    2  0.1231325E-004  0.3943583E+03  0.7546771E-02  0.1089199E+00
         -3   -1    0    0    0  501 -0.00000000000E+00  0.00000000000E+00  0.38130501293E+03  0.38130501293E+03  0.00000000000E+00 0.  1.
         21   -1    0    0  501  502  0.00000000000E+00 -0.00000000000E+00 -0.21876139076E+03  0.21876139076E+03  0.00000000000E+00 0.  1.
         23    2    1    2    0    0  0.77420548476E+02 -0.12188055630E+02 -0.74165160039E+02  0.14012132260E+03  0.89392527969E+02 0.  0.
         24    2    1    2    0    0  0.39387263874E+02  0.65265399131E+02  0.29763838996E+03  0.31791097772E+03  0.81656902327E+02 0.  0.
        -13    1    4    4    0    0 -0.75548437016E+01  0.49539499973E+02  0.22146311488E+03  0.22706199367E+03  0.00000000000E+00 0.  1.
         14    1    4    4    0    0  0.46942107576E+02  0.15725899158E+02  0.76175275087E+02  0.90848984048E+02  0.00000000000E+00 0. -1.
        -11    1    3    3    0    0  0.97380843551E+02 -0.51074617503E+01 -0.57813275239E+02  0.11336441086E+03  0.00000000000E+00 0.  1.
         11    1    3    3    0    0 -0.19960295075E+02 -0.70805938793E+01 -0.16351884801E+02  0.26756911737E+02  0.00000000000E+00 0. -1.
         -4    1    1    2    0  502 -0.11680781235E+03 -0.53077343501E+02 -0.60929607760E+02  0.14203410337E+03  0.00000000000E+00 0.  1.
<scales pt_clust_5="13000.00000" pt_clust_6="13000.00000" pt_clust_7="13000.00000" pt_clust_8="13000.00000" pt_clust_9="13000.00000"></scales>
<clustering>
<clus scale="   81.657">  5  6 -1 -1</clus>
<clus scale="   89.393">  7  8 -1 -1</clus>
<clus scale="  118.885">  1  7  2 -1</clus>
<clus scale="  120.787">  5  9 -1 -1</clus>
<clus scale="  394.358">  2  5  1 -1</clus>
</clustering>
</event>
<event>
 9    2  0.6085395E-005  0.1066371E+03  0.7546771E-02  0.1269067E+00
         21   -1    0    0  501  502  0.00000000000E+00  0.00000000000E+00  0.16226083387E+03  0.16226083387E+03  0.00000000000E+00 0.  1.
         -1   -1    0    0    0  501 -0.00000000000E+00 -0.00000000000E+00 -0.68257252192E+02  0.68257252192E+02  0.00000000000E+00 0.  1.
         23    2    1    2    0    0  0.37994088538E+02 -0.95637011300E+01  0.32116985873E+02  0.10722408040E+03  0.94501256570E+02 0.  0.
         24    2    1    2    0    0 -0.20522912873E+02  0.21530667249E+02  0.53055762633E+02  0.10034985888E+03  0.79814914916E+02 0.  0.
        -13    1    4    4    0    0  0.30240617966E+02  0.31653144825E+01  0.12709634927E+02  0.32955257710E+02  0.00000000000E+00 0.  1.
         14    1    4    4    0    0 -0.50763530839E+02  0.18365352766E+02  0.40346127706E+02  0.67394601166E+02  0.00000000000E+00 0. -1.
        -13    1    3    3    0    0  0.27228311907E+02  0.12371271596E+02  0.61872640720E+02  0.68721561390E+02  0.00000000000E+00 0. -1.
         13    1    3    3    0    0  0.10765776631E+02 -0.21934972726E+02 -0.29755654846E+02  0.38502519012E+02  0.00000000000E+00 0.  1.
         -2    1    1    2    0  502 -0.17471175666E+02 -0.11966966119E+02  0.88308331742E+01  0.22944146787E+02  0.00000000000E+00 0.  1.
<scales pt_clust_5="13000.00000" pt_clust_6="13000.00000" pt_clust_7="13000.00000" pt_clust_8="13000.00000" pt_clust_9="13000.00000"></scales>
<clustering>
<clus scale="   79.815">  5  6 -1 -1</clus>
<clus scale="   21.177">  5  9 -1 -1</clus>
<clus scale="   94.501">  7  8 -1 -1</clus>
<clus scale="  102.301">  2  7  1 -1</clus>
<clus scale="  106.637">  1  5  2 -1</clus>
</clustering>
</event>
<event>
 9    2  0.6085395E-005  0.6247589E+03  0.7546771E-02  0.1005067E+00
         21   -1    0    0  501  502  0.00000000000E+00  0.00000000000E+00  0.28545627140E+03  0.28545627140E+03  0.00000000000E+00 0.  1.
          2   -1    0    0  502    0 -0.00000000000E+00 -0.00000000000E+00 -0.97367668128E+03  0.97367668128E+03  0.00000000000E+00 0. -1.
         23    2    1    2    0    0  0.30285276428E+03  0.10799347046E+03 -0.81249653590E+01  0.33563227421E+03  0.95919872468E+02 0.  0.
         24    2    1    2    0    0  0.10157145295E+03 -0.22197821026E+02 -0.28316272428E+01  0.13002344556E+03  0.78029321225E+02 0.  0.
        -13    1    4    4    0    0  0.62256320850E+02 -0.50775740511E+02  0.62434583475E+01  0.80579191373E+02  0.00000000000E+00 0.  1.
         14    1    4    4    0    0  0.39315132097E+02  0.28577919484E+02 -0.90750855903E+01  0.49444254189E+02  0.00000000000E+00 0. -1.
        -11    1    3    3    0    0  0.13267512355E+03  0.75634640583E+02  0.35934046822E+02  0.15689022591E+03  0.00000000000E+00 0.  1.
         11    1    3    3    0    0  0.17017764073E+03  0.32358829875E+02 -0.44059012181E+02  0.17874204830E+03  0.00000000000E+00 0. -1.
          1    1    1    2  501    0 -0.40442421723E+03 -0.85795649431E+02 -0.67726381728E+03  0.79347723291E+03  0.00000000000E+00 0. -1.
<scales pt_clust_5="13000.00000" pt_clust_6="13000.00000" pt_clust_7="13000.00000" pt_clust_8="13000.00000" pt_clust_9="13000.00000"></scales>
<clustering>
<clus scale="   78.029">  5  6 -1 -1</clus>
<clus scale="   95.920">  7  8 -1 -1</clus>
<clus scale="  335.534">  2  7  1 -1</clus>
<clus scale="  127.354">  5  9 -1 -1</clus>
<clus scale="  624.759">  1  5  2 -1</clus>
</clustering>
</event>
<event>
 9    2  0.6085395E-005  0.2484441E+03  0.7546771E-02  0.1137649E+00
          2   -1    0    0  502    0 -0.00000000000E+00  0.00000000000E+00  0.35574189381E+02  0.35574189381E+02  0.00000000000E+00 0. -1.
         21   -1    0    0  501  502  0.00000000000E+00 -0.00000000000E+00 -0.10936597512E+04  0.10936597512E+04  0.00000000000E+00 0.  1.
         23    2    1    2    0    0 -0.87871906428E+02 -0.31910377448E+02 -0.48448536691E+03  0.50414062988E+03  0.10340193331E+03 0.  0.
         24    2    1    2    0    0  0.27205721357E+02  0.11097519776E+03 -0.25136342446E+03  0.28779793859E+03  0.81169184483E+02 0.  0.
        -11    1    4    4    0    0 -0.59590998023E+01  0.10266102694E+03 -0.15948310848E+03  0.18976211216E+03  0.00000000000E+00 0.  1.
         12    1    4    4    0    0  0.33164821159E+02  0.83141708208E+01 -0.91880315982E+02  0.98035826431E+02  0.00000000000E+00 0. -1.
        -13    1    3    3    0    0 -0.67439995854E+02 -0.67582433759E+02 -0.38120845830E+03  0.39298273127E+03  0.00000000000E+00 0.  1.
         13    1    3    3    0    0 -0.20431910573E+02  0.35672056311E+02 -0.10327690861E+03  0.11115789861E+03  0.00000000000E+00 0. -1.
          1    1    1    2  501    0  0.60666185070E+02 -0.79064820310E+02 -0.32223677048E+03  0.33729537215E+03  0.00000000000E+00 0. -1.
<scales pt_clust_5="13000.00000" pt_clust_6="13000.00000" pt_clust_7="13000.00000" pt_clust_8="13000.00000" pt_clust_9="13000.00000"></scales>
<clustering>
<clus scale="   81.169">  5  6 -1 -1</clus>
<clus scale="   99.658">  5  9 -1 -1</clus>
<clus scale="  103.402">  7  8 -1 -1</clus>
<clus scale="  139.398">  1  7  2 -1</clus>
<clus scale="  248.444">  2  5  1 -1</clus>
</clustering>
</event>
<event>
 9    2  0.6085395E-005  0.2020182E+03  0.7546771E-02  0.1163998E+00
         21   -1    0    0  501  502  0.00000000000E+00  0.00000000000E+00  0.77888504676E+03  0.77888504676E+03  0.00000000000E+00 0. -1.
         -1   -1    0    0    0  501 -0.00000000000E+00 -0.00000000000E+00 -0.79815274301E+02  0.79815274301E+02  0.00000000000E+00 0.  1.
         23    2    1    2    0    0 -0.34432453773E+01 -0.10307607338E+03  0.63007798438E+03  0.64522611327E+03  0.93176917818E+02 0.  0.
         24    2    1    2    0    0  0.62119358121E+02  0.87475578964E+02  0.20365331227E+02  0.13568735839E+03  0.80532732122E+02 0.  0.
        -11    1    4    4    0    0  0.22422917955E+02  0.66956302217E+02 -0.22153813672E+02  0.74004899273E+02  0.00000000000E+00 0.  1.
         12    1    4    4    0    0  0.39696440166E+02  0.20519276747E+02  0.42519144899E+02  0.61682459119E+02  0.00000000000E+00 0. -1.
        -11    1    3    3    0    0  0.25031509137E+02 -0.10488300599E+03  0.54267412369E+03  0.55328313359E+03  0.00000000000E+00 0. -1.
         11    1    3    3    0    0 -0.28474754515E+02  0.18069326078E+01  0.87403860688E+02  0.91942979685E+02  0.00000000000E+00 0.  1.
         -2    1    1    2    0  502 -0.58676112744E+02  0.15600494415E+02  0.48626456860E+02  0.77786849400E+02  0.00000000000E+00 0.  1.
<scales pt_clust_5="13000.00000" pt_clust_6="13000.00000" pt_clust_7="13000.00000" pt_clust_8="13000.00000" pt_clust_9="13000.00000"></scales>
<clustering>
<clus scale="   80.533">  5  6 -1 -1</clus>
<clus scale="   60.715">  5  9 -1 -1</clus>
<clus scale="   93.177">  7  8 -1 -1</clus>
<clus scale="  138.991">  2  7  1 -1</clus>
<clus scale="  202.018">  1  5  2 -1</clus>
</clustering>
</event>
<event>
 9    2  0.6085395E-005  0.1470163E+04  0.7546771E-02  0.9229587E-01
         21   -1    0    0  501  502  0.00000000000E+00  0.00000000000E+00  0.69860451466E+03  0.69860451466E+03  0.00000000000E+00 0. -1.
          2   -1    0    0  502    0 -0.00000000000E+00 -0.00000000000E+00 -0.12834438050E+04  0.12834438050E+04  0.00000000000E+00 0. -1.
         23    2    1    2    0    0  0.32747903504E+03 -0.24769862042E+03 -0.17593802678E+03  0.45607989492E+03  0.91964973407E+02 0.  0.
         24    2    1    2    0    0 -0.14294955615E+03 -0.14082893080E+03 -0.86946321148E+03  0.89579218392E+03  0.78803536129E+02 0.  0.
        -13    1    4    4    0    0 -0.96501469424E+01 -0.49618273114E+02 -0.14550490042E+03  0.15403497787E+03  0.00000000000E+00 0.  1.
         14    1    4    4    0    0 -0.13329940920E+03 -0.91210657687E+02 -0.72395831107E+03  0.74175720605E+03  0.00000000000E+00 0. -1.
        -13    1    3    3    0    0  0.40099050536E+02 -0.74293333450E+02 -0.24907737120E+02  0.88021750820E+02  0.00000000000E+00 0.  1.
         13    1    3    3    0    0  0.28737998451E+03 -0.17340528697E+03 -0.15103028966E+03  0.36805814410E+03  0.00000000000E+00 0. -1.
          1    1    1    2  501    0 -0.18452947890E+03  0.38852755122E+03  0.46056194791E+03  0.63017624082E+03  0.00000000000E+00 0. -1.
<scales pt_clust_5="13000.00000" pt_clust_6="13000.00000" pt_clust_7="13000.00000" pt_clust_8="13000.00000" pt_clust_9="13000.00000"></scales>
<clustering>
<clus scale="   78.804">  5  6 -1 -1</clus>
<clus scale="   91.965">  7  8 -1 -1</clus>
<clus scale="  420.779">  2  7  1 -1</clus>
<clus scale="  398.539">  5  9 -1 -1</clus>
<clus scale=" 1470.163">  1  5  2 -1</clus>
</clustering>
</event>
<event>
 9    2  0.6085395E-005  0.2749950E+03  0.7546771E-02  0.1137911E+00
         21   -1    0    0  501  502  0.00000000000E+00  0.00000000000E+00  0.28108709119E+03  0.28108709119E+03  0.00000000000E+00 0.  1.
         -3   -1    0    0    0  501 -0.00000000000E+00 -0.00000000000E+00 -0.14062152259E+03  0.14062152259E+03  0.00000000000E+00 0.  1.
         23    2    1    2    0    0  0.17072145454E+02  0.24252254923E+02  0.10144449688E+03  0.14395893876E+03  0.97742314687E+02 0.  0.
         24    2    1    2    0    0  0.44518306942E+02 -0.82905770842E+02  0.11052488652E+03  0.16663525522E+03  0.81830992000E+02 0.  0.
        -13    1    4    4    0    0 -0.12781043744E+02 -0.51098402802E+02  0.76260907954E+02  0.92682943037E+02  0.00000000000E+00 0.  1.
         14    1    4    4    0    0  0.57299350686E+02 -0.31807368041E+02  0.34263978565E+02  0.73952312187E+02  0.00000000000E+00 0. -1.
        -13    1    3    3    0    0  0.54530448973E+02  0.22193619201E+02  0.84023022385E+02  0.10259627132E+03  0.00000000000E+00 0.  1.
         13    1    3    3    0    0 -0.37458303519E+02  0.20586357217E+01  0.17421474500E+02  0.41362667435E+02  0.00000000000E+00 0. -1.
         -4    1    1    2    0  502 -0.61590452395E+02  0.58653515919E+02 -0.71503814809E+02  0.11111441980E+03  0.00000000000E+00 0.  1.
<scales pt_clust_5="13000.00000" pt_clust_6="13000.00000" pt_clust_7="13000.00000" pt_clust_8="13000.00000" pt_clust_9="13000.00000"></scales>
<clustering>
<clus scale="   81.831">  5  6 -1 -1</clus>
<clus scale="   85.051">  5  9 -1 -1</clus>
<clus scale="   97.742">  7  8 -1 -1</clus>
<clus scale="  102.143">  2  7  1 -1</clus>
<clus scale="  274.995">  1  5  2 -1</clus>
</clustering>
</event>
<event>
 9    2  0.6085395E-005  0.3180908E+03  0.7546771E-02  0.1120595E+00
         21   -1    0    0  501  502  0.00000000000E+00  0.00000000000E+00  0.86149047955E+02  0.86149047955E+02  0.00000000000E+00 0. -1.
          2   -1    0    0  502    0 -0.00000000000E+00 -0.00000000000E+00 -0.52109412837E+03  0.52109412837E+03  0.00000000000E+00 0. -1.
         23    2    1    2    0    0  0.24642955664E+02  0.17458354327E+02 -0.68876684021E+02  0.12228149264E+03  0.96419377932E+02 0.  0.
         24    2    1    2    0    0  0.18515268353E+02 -0.36887153561E+02 -0.41024831055E+03  0.42021621778E+03  0.81083389885E+02 0.  0.
        -13    1    4    4    0    0 -0.25617108039E+02 -0.36611970264E+02 -0.16076361926E+03  0.16685806503E+03  0.00000000000E+00 0.  1.
         14    1    4    4    0    0  0.44132376392E+02 -0.27518329791E+00 -0.24948469130E+03  0.25335815275E+03  0.00000000000E+00 0. -1.
        -13    1    3    3    0    0 -0.33540185747E+02 -0.12210805739E+02 -0.25853143992E+02  0.44073040410E+02  0.00000000000E+00 0.  1.
         13    1    3    3    0    0  0.58183141411E+02  0.29669160066E+02 -0.43023540029E+02  0.78208452229E+02  0.00000000000E+00 0. -1.
          1    1    1    2  501    0 -0.43158224017E+02  0.19428799234E+02  0.44179914159E+02  0.64745465904E+02  0.00000000000E+00 0. -1.
<scales pt_clust_5="13000.00000" pt_clust_6="13000.00000" pt_clust_7="13000.00000" pt_clust_8="13000.00000" pt_clust_9="13000.00000"></scales>
<clustering>
<clus scale="   81.083">  5  6 -1 -1</clus>
<clus scale="   47.330">  5  9 -1 -1</clus>
<clus scale="   96.419">  7  8 -1 -1</clus>
<clus scale="  101.038">  2  7  1 -1</clus>
<clus scale="  318.091">  1  5  2 -1</clus>
</clustering>
</event>
<event>
 9    2  0.6085395E-005  0.1479523E+03  0.7546771E-02  0.1231469E+00
         21   -1    0    0  501  502  0.00000000000E+00  0.00000000000E+00  0.29296572919E+03  0.29296572919E+03  0.00000000000E+00 0.  1.
         -3   -1    0    0    0  501 -0.00000000000E+00 -0.00000000000E+00 -0.13114856536E+03  0.13114856536E+03  0.00000000000E+00 0.  1.
         23    2    1    2    0    0 -0.13682904165E+02 -0.61381185827E+01 -0.96701843573E+02  0.12625197410E+03  0.79771022598E+02 0.  0.
         24    2    1    2    0    0 -0.12289728666E+02 -0.32003406838E+02  0.22262881388E+03  0.23940327831E+03  0.81086900415E+02 0.  0.
        -13    1    4    4    0    0 -0.34977706277E+02 -0.47585290245E+02  0.17076245204E+03  0.18068650977E+03  0.00000000000E+00 0.  1.
         14    1    4    4    0    0  0.22687977611E+02  0.15581883407E+02  0.51866361834E+02  0.58716768546E+02  0.00000000000E+00 0. -1.
        -13    1    3    3    0    0 -0.43541601523E+02  0.20559918858E+01 -0.30601624128E+02  0.53259342515E+02  0.00000000000E+00 0.  1.
         13    1    3    3    0    0  0.29858697359E+02 -0.81941104685E+01 -0.66100219445E+02  0.72992631580E+02  0.00000000000E+00 0. -1.
         -4    1    1    2    0  502  0.25972632831E+02  0.38141525420E+02  0.35890193519E+02  0.58459042144E+02  0.00000000000E+00 0.  1.
<scales pt_clust_5="13000.00000" pt_clust_6="13000.00000" pt_clust_7="13000.00000" pt_clust_8="13000.00000" pt_clust_9="13000.00000"></scales>
<clustering>
<clus scale="   79.771">  7  8 -1 -1</clus>
<clus scale="   81.087">  5  6 -1 -1</clus>
<clus scale="   46.145">  5  9 -1 -1</clus>
<clus scale="   81.168">  2  7  1 -1</clus>
<clus scale="  147.952">  1  5  2 -1</clus>
</clustering>
</event>
<event>
 9    2  0.6085395E-005  0.2149127E+03  0.7546771E-02  0.1165474E+00
          2   -1    0    0  502    0 -0.00000000000E+00  0.00000000000E+00  0.25191520040E+03  0.25191520040E+03  0.00000000000E+00 0. -1.
         21   -1    0    0  501  502  0.00000000000E+00 -0.00000000000E+00 -0.11303644024E+03  0.11303644024E+03  0.00000000000E+00 0. -1.
         23    2    1    2    0    0 -0.74970459119E+02  0.70875175736E+01  0.48766710153E+01  0.11168493517E+03  0.82334319558E+02 0.  0.
         24    2    1    2    0    0  0.94946448524E+01 -0.59722911598E+01 -0.22332107680E+02  0.83771256928E+02  0.79956762761E+02 0.  0.
        -13    1    4    4    0    0 -0.35228580878E+02  0.18816244416E+01 -0.82564635735E+01  0.36232066074E+02  0.00000000000E+00 0.  1.
         14    1    4    4    0    0  0.44723225731E+02 -0.78539156014E+01 -0.14075644107E+02  0.47539190854E+02  0.00000000000E+00 0. -1.
        -11    1    3    3    0    0 -0.45893617925E+02  0.17079750708E+02 -0.35826057467E+02  0.60674940825E+02  0.00000000000E+00 0. -1.
         11    1    3    3    0    0 -0.29076841194E+02 -0.99922331342E+01  0.40702728482E+02  0.51009994341E+02  0.00000000000E+00 0.  1.
          1    1    1    2  501    0  0.65475814266E+02 -0.11152264138E+01  0.15633419682E+03  0.16949544855E+03  0.00000000000E+00 0. -1.
<scales pt_clust_5="13000.00000" pt_clust_6="13000.00000" pt_clust_7="13000.00000" pt_clust_8="13000.00000" pt_clust_9="13000.00000"></scales>
<clustering>
<clus scale="   79.957">  5  6 -1 -1</clus>
<clus scale="   65.485">  5  9 -1 -1</clus>
<clus scale="   82.334">  7  8 -1 -1</clus>
<clus scale="  111.578">  1  7  2 -1</clus>
<clus scale="  214.913">  2  5  1 -1</clus>
</clustering>
</event>
<event>
 9    2  0.6085395E-005  0.2013232E+03  0.7546771E-02  0.1163107E+00
         21   -1    0    0  501  502  0.00000000000E+00  0.00000000000E+00  0.21079290440E+03  0.21079290440E+03  0.00000000000E+00 0.  1.
         -3   -1    0    0    0  501 -0.00000000000E+00 -0.00000000000E+00 -0.15832206073E+03  0.15832206073E+03  0.00000000000E+00 0.  1.
         23    2    1    2    0    0  0.10776459401E+03 -0.23360008139E+02 -0.38128945374E+02  0.14834505729E+03  0.91616274995E+02 0.  0.
         24    2    1    2    0    0  0.17387638847E+00 -0.16441683983E+02  0.59272818492E+02  0.10153791897E+03  0.80785659448E+02 0.  0.
        -11    1    4    4    0    0  0.24501186219E+02  0.10640110942E+02  0.59404490260E+02  0.65133812648E+02  0.00000000000E+00 0.  1.
         12    1    4    4    0    0 -0.24327309831E+02 -0.27081794924E+02 -0.13167176854E+00  0.36404106326E+02  0.00000000000E+00 0. -1.
        -13    1    3    3    0    0  0.91103270405E+02 -0.55078954508E+02 -0.36271512685E+02  0.11246830549E+03  0.00000000000E+00 0.  1.
         13    1    3    3    0    0  0.16661323601E+02  0.31718946369E+02 -0.18574326892E+01  0.35876751791E+02  0.00000000000E+00 0. -1.
         -4    1    1    2    0  502 -0.10793847039E+03  0.39801692121E+02  0.31326970551E+02  0.11923198887E+03  0.00000000000E+00 0.  1.
<scales pt_clust_5="13000.00000" pt_clust_6="13000.00000" pt_clust_7="13000.00000" pt_clust_8="13000.00000" pt_clust_9="13000.00000"></scales>
<clustering>
<clus scale="   80.786">  5  6 -1 -1</clus>
<clus scale="   91.616">  7  8 -1 -1</clus>
<clus scale="  115.043">  5  9 -1 -1</clus>
<clus scale="  143.361">  2  7  1 -1</clus>
<clus scale="  201.323">  1  5  2 -1</clus>
</clustering>
</event>
<event>
 9    2  0.6085395E-005  0.1787954E+03  0.7546771E-02  0.1185547E+00
         21   -1    0    0  501  502  0.00000000000E+00  0.00000000000E+00  0.42012649092E+02  0.42012649092E+02  0.00000000000E+00 0. -1.
          2   -1    0    0  502    0 -0.00000000000E+00 -0.00000000000E+00 -0.60916987836E+03  0.60916987836E+03  0.00000000000E+00 0. -1.
         23    2    1    2    0    0 -0.25228194582E+02 -0.77316126155E+02 -0.13034353536E+03  0.17919312559E+03  0.92230655872E+02 0.  0.
         24    2    1    2    0    0  0.98886554298E+01 -0.15412819315E+02 -0.16249815568E+03  0.18201875972E+03  0.79936460930E+02 0.  0.
        -13    1    4    4    0    0 -0.32173156488E+02  0.48868834914E+01 -0.44626204508E+02  0.55231257070E+02  0.00000000000E+00 0.  1.
         14    1    4    4    0    0  0.42061811918E+02 -0.20299702807E+02 -0.11787195117E+03  0.12678750265E+03  0.00000000000E+00 0. -1.
        -13    1    3    3    0    0 -0.20302825694E+02 -0.13435730146E+02  0.88958540586E+01  0.25920258393E+02  0.00000000000E+00 0.  1.
         13    1    3    3    0    0 -0.49253688886E+01 -0.63880396009E+02 -0.13923938942E+03  0.15327286719E+03  0.00000000000E+00 0. -1.
          1    1    1    2  501    0  0.15339539153E+02  0.92728945470E+02 -0.27431553823E+03  0.28997064214E+03  0.00000000000E+00 0. -1.
<scales pt_clust_5="13000.00000" pt_clust_6="13000.00000" pt_clust_7="13000.00000" pt_clust_8="13000.00000" pt_clust_9="13000.00000"></scales>
<clustering>
<clus scale="   79.936">  5  6 -1 -1</clus>
<clus scale="   92.231">  7  8 -1 -1</clus>
<clus scale="   93.989">  5  9 -1 -1</clus>
<clus scale="  122.966">  2  7  1 -1</clus>
<clus scale="  178.795">  1  5  2 -1</clus>
</clustering>
</event>
<event>
 9    2  0.6085395E-005  0.2845978E+03  0.7546771E-02  0.1133058E+00
         21   -1    0    0  501  502  0.00000000000E+00  0.00000000000E+00  0.20497079504E+03  0.20497079504E+03  0.00000000000E+00 0.  1.
         -3   -1    0    0    0  501 -0.00000000000E+00 -0.00000000000E+00 -0.20410742817E+03  0.20410742817E+03  0.00000000000E+00 0.  1.
         23    2    1    2    0    0  0.26054993308E+02  0.42374576513E+02  0.57987362143E+02  0.11880411591E+03  0.90980307639E+02 0.  0.
         24    2    1    2    0    0 -0.79361791262E+02  0.79719952179E+02  0.14354143032E+02  0.13908610215E+03  0.80531594422E+02 0.  0.
        -13    1    4    4    0    0 -0.43637821671E+02  0.69917259633E+02  0.42341414527E+02  0.92657854815E+02  0.00000000000E+00 0.  1.
         14    1    4    4    0    0 -0.35723969591E+02  0.98026925452E+01 -0.27987271494E+02  0.46428247330E+02  0.00000000000E+00 0. -1.
        -13    1    3    3    0    0 -0.17389562401E+02  0.10856782690E+02 -0.16969288621E+02  0.26612466387E+02  0.00000000000E+00 0. -1.
         13    1    3    3    0    0  0.43444555708E+02  0.31517793823E+02  0.74956650764E+02  0.92191649524E+02  0.00000000000E+00 0.  1.
         -4    1    1    2    0  502  0.53306797954E+02 -0.12209452869E+03 -0.71478138308E+02  0.15118800515E+03  0.00000000000E+00 0.  1.
<scales pt_clust_5="13000.00000" pt_clust_6="13000.00000" pt_clust_7="13000.00000" pt_clust_8="13000.00000" pt_clust_9="13000.00000"></scales>
<clustering>
<clus scale="   80.532">  5  6 -1 -1</clus>
<clus scale="   90.980">  7  8 -1 -1</clus>
<clus scale="  103.691">  2  7  1 -1</clus>
<clus scale="  117.956">  5  9 -1 -1</clus>
<clus scale="  284.598">  1  5  2 -1</clus>
</clustering>
</event>
<event>
 9    2  0.6085395E-005  0.2470241E+03  0.7546771E-02  0.1135698E+00
         21   -1    0    0  501  502  0.00000000000E+00  0.00000000000E+00  0.12349269782E+03  0.12349269782E+03  0.00000000000E+00 0.  1.
          2   -1    0    0  502    0 -0.00000000000E+00 -0.00000000000E+00 -0.33307076857E+03  0.33307076857E+03  0.00000000000E+00 0. -1.
         23    2    1    2    0    0  0.99943866761E+01  0.11518181111E+03 -0.31356882386E+02  0.15195928264E+03  0.93496695836E+02 0.  0.
         24    2    1    2    0    0 -0.50508559441E+02  0.27549818941E+02 -0.61704066758E+02  0.11595117943E+03  0.79543554464E+02 0.  0.
        -11    1    4    4    0    0 -0.63384221093E+02  0.46735350740E+01 -0.63235605251E+02  0.89655692430E+02  0.00000000000E+00 0.  1.
         12    1    4    4    0    0  0.12875661651E+02  0.22876283867E+02  0.15315384931E+01  0.26295487002E+02  0.00000000000E+00 0. -1.
        -13    1    3    3    0    0  0.49953729094E+02  0.84944917527E+02 -0.19241732928E+02  0.10040546972E+03  0.00000000000E+00 0.  1.
         13    1    3    3    0    0 -0.39959342418E+02  0.30236893582E+02 -0.12115149458E+02  0.51553812918E+02  0.00000000000E+00 0. -1.
          1    1    1    2  501    0  0.40514172765E+02 -0.14273163005E+03 -0.11651712161E+03  0.18865300432E+03  0.00000000000E+00 0. -1.
<scales pt_clust_5="13000.00000" pt_clust_6="13000.00000" pt_clust_7="13000.00000" pt_clust_8="13000.00000" pt_clust_9="13000.00000"></scales>
<clustering>
<clus scale="   79.544">  5  6 -1 -1</clus>
<clus scale="   93.497">  7  8 -1 -1</clus>
<clus scale="  148.370">  5  9 -1 -1</clus>
<clus scale="  148.689">  2  7  1 -1</clus>
<clus scale="  247.024">  1  5  2 -1</clus>
</clustering>
</event>
<event>
 9    2  0.6085395E-005  0.3259562E+03  0.7546771E-02  0.1121734E+00
          2   -1    0    0  502    0 -0.00000000000E+00  0.00000000000E+00  0.16149477579E+03  0.16149477579E+03  0.00000000000E+00 0. -1.
         21   -1    0    0  501  502  0.00000000000E+00 -0.00000000000E+00 -0.32299450074E+03  0.32299450074E+03  0.00000000000E+00 0.  1.
         23    2    1    2    0    0 -0.10265722339E+02  0.55423227866E+01  0.41744501306E+02  0.10035950578E+03  0.90516985219E+02 0.  0.
         24    2    1    2    0    0 -0.83501937550E+01  0.36878732763E+02 -0.28202738818E+03  0.29273565230E+03  0.68738255551E+02 0.  0.
        -11    1    4    4    0    0 -0.36152692438E+02  0.27400756504E+02 -0.21196745212E+03  0.21676720090E+03  0.00000000000E+00 0.  1.
         12    1    4    4    0    0  0.27802498683E+02  0.94779762596E+01 -0.70059936059E+02  0.75968451397E+02  0.00000000000E+00 0. -1.
        -11    1    3    3    0    0 -0.36352069438E+02 -0.19623656857E+02 -0.45531751449E+01  0.41560705778E+02  0.00000000000E+00 0. -1.
         11    1    3    3    0    0  0.26086347099E+02  0.25165979643E+02  0.46297676451E+02  0.58798799997E+02  0.00000000000E+00 0.  1.
          1    1    1    2  501    0  0.18615916094E+02 -0.42421055550E+02  0.78783161925E+02  0.91394118459E+02  0.00000000000E+00 0. -1.
<scales pt_clust_5="13000.00000" pt_clust_6="13000.00000" pt_clust_7="13000.00000" pt_clust_8="13000.00000" pt_clust_9="13000.00000"></scales>
<clustering>
<clus scale="   68.738">  5  6 -1 -1</clus>
<clus scale="   46.326">  5  9 -1 -1</clus>
<clus scale="   90.517">  7  8 -1 -1</clus>
<clus scale="   91.266">  1  7  2 -1</clus>
<clus scale="  325.956">  2  5  1 -1</clus>
</clustering>
</event>
<event>
 9    2  0.6085395E-005  0.2750007E+03  0.7546771E-02  0.1134332E+00
         -1   -1    0    0    0  501 -0.00000000000E+00  0.00000000000E+00  0.97126259021E+02  0.97126259021E+02  0.00000000000E+00 0.  1.
         21   -1    0    0  501  502  0.00000000000E+00 -0.00000000000E+00 -0.44629542314E+03  0.44629542314E+03  0.00000000000E+00 0.  1.
         23    2    1    2    0    0  0.56650051201E+02  0.32366766310E+02 -0.17836388601E+02  0.11283282073E+03  0.90312085642E+02 0.  0.
         24    2    1    2    0    0 -0.13186371504E+03  0.33671694303E+02 -0.27031025727E+03  0.31336292044E+03  0.81282608082E+02 0.  0.
        -11    1    4    4    0    0 -0.12388736037E+03  0.67537910076E+01 -0.24871262917E+03  0.27794183503E+03  0.00000000000E+00 0.  1.
         12    1    4    4    0    0 -0.79763546751E+01  0.26917903295E+02 -0.21597628101E+02  0.35421085405E+02  0.00000000000E+00 0. -1.
        -11    1    3    3    0    0  0.61785884602E+02 -0.10580215104E+02 -0.27598784200E+02  0.68491819782E+02  0.00000000000E+00 0.  1.
         11    1    3    3    0    0 -0.51358334008E+01  0.42946981414E+02  0.97623955990E+01  0.44341000948E+02  0.00000000000E+00 0. -1.
         -2    1    1    2    0  502  0.75213663843E+02 -0.66038460613E+02 -0.61022518247E+02  0.11722594099E+03  0.00000000000E+00 0.  1.
<scales pt_clust_5="13000.00000" pt_clust_6="13000.00000" pt_clust_7="13000.00000" pt_clust_8="13000.00000" pt_clust_9="13000.00000"></scales>
<clustering>
<clus scale="   81.283">  5  6 -1 -1</clus>
<clus scale="   90.312">  7  8 -1 -1</clus>
<clus scale="  100.091">  5  9 -1 -1</clus>
<clus scale="  111.414">  1  7  2 -1</clus>
<clus scale="  275.001">  2  5  1 -1</clus>
</clustering>
</event>
<event>
 9    2  0.6085395E-005  0.5094065E+03  0.7546771E-02  0.1061614E+00
         21   -1    0    0  501  502  0.00000000000E+00  0.00000000000E+00  0.50004721064E+03  0.50004721064E+03  0.00000000000E+00 0. -1.
          2   -1    0    0  502    0 -0.00000000000E+00 -0.00000000000E+00 -0.23347639633E+03  0.23347639633E+03  0.00000000000E+00 0. -1.
         23    2    1    2    0    0  0.69229783670E+02 -0.13950468452E+02 -0.57136138781E+02  0.12996654773E+03  0.92948300987E+02 0.  0.
         24    2    1    2    0    0  0.20264218834E+03 -0.57559996338E+02  0.17383969257E+03  0.28498475738E+03  0.81357627495E+02 0.  0.
        -11    1    4    4    0    0  0.16090232085E+02 -0.15351574571E+02 -0.53713504542E+01  0.22878326338E+02  0.00000000000E+00 0.  1.
         12    1    4    4    0    0  0.18655195625E+03 -0.42208421768E+02  0.17921104303E+03  0.26210643104E+03  0.00000000000E+00 0. -1.
        -11    1    3    3    0    0  0.36889898514E+02  0.52783802258E+01 -0.78359014789E+02  0.86769010072E+02  0.00000000000E+00 0. -1.
         11    1    3    3    0    0  0.32339885156E+02 -0.19228848677E+02  0.21222876009E+02  0.43197537654E+02  0.00000000000E+00 0.  1.
          1    1    1    2  501    0 -0.27187197201E+03  0.71510464790E+02  0.14986726052E+03  0.31857230186E+03  0.00000000000E+00 0. -1.
<scales pt_clust_5="13000.00000" pt_clust_6="13000.00000" pt_clust_7="13000.00000" pt_clust_8="13000.00000" pt_clust_9="13000.00000"></scales>
<clustering>
<clus scale="   81.358">  5  6 -1 -1</clus>
<clus scale="   92.948">  7  8 -1 -1</clus>
<clus scale="  116.734">  2  7  1 -1</clus>
<clus scale="  238.631">  5  9 -1 -1</clus>
<clus scale="  509.406">  1  5  2 -1</clus>
</clustering>
</event>
<event>
 9    2  0.6085395E-005  0.2491047E+03  0.7546771E-02  0.1148190E+00
          2   -1    0    0  502    0 -0.00000000000E+00  0.00000000000E+00  0.49435495680E+03  0.49435495680E+03  0.00000000000E+00 0. -1.
         21   -1    0    0  501  502  0.00000000000E+00 -0.00000000000E+00 -0.86007936309E+02  0.86007936309E+02  0.00000000000E+00 0. -1.
         23    2    1    2    0    0  0.59002496055E+02 -0.87242290038E+01  0.28052951664E+03  0.30037992784E+03  0.89296610390E+02 0.  0.
         24    2    1    2    0    0  0.10430200862E+02 -0.85034768028E+02  0.11150785306E+03  0.16217951186E+03  0.80799083604E+02 0.  0.
        -11    1    4    4    0    0 -0.25577948478E+02 -0.23832582421E+00  0.26385080068E+02  0.36748614909E+02  0.00000000000E+00 0.  1.
         12    1    4    4    0    0  0.36008149340E+02 -0.84796442204E+02  0.85122772988E+02  0.12543089695E+03  0.00000000000E+00 0. -1.
        -11    1    3    3    0    0  0.12057187377E+02  0.38409650240E+02  0.12154693124E+03  0.12804035884E+03  0.00000000000E+00 0.  1.
         11    1    3    3    0    0  0.46945308677E+02 -0.47133879244E+02  0.15898258540E+03  0.17233956899E+03  0.00000000000E+00 0. -1.
          1    1    1    2  501    0 -0.69432696916E+02  0.93758997032E+02  0.16309650787E+02  0.11780345341E+03  0.00000000000E+00 0. -1.
<scales pt_clust_5="13000.00000" pt_clust_6="13000.00000" pt_clust_7="13000.00000" pt_clust_8="13000.00000" pt_clust_9="13000.00000"></scales>
<clustering>
<clus scale="   80.799">  5  6 -1 -1</clus>
<clus scale="   89.297">  7  8 -1 -1</clus>
<clus scale="  107.384">  1  7  2 -1</clus>
<clus scale="  103.749">  5  9 -1 -1</clus>
<clus scale="  249.105">  2  5  1 -1</clus>
</clustering>
</event>
<event>
 9    2  0.6085395E-005  0.3414313E+03  0.7546771E-02  0.1105544E+00
          2   -1    0    0  502    0 -0.00000000000E+00  0.00000000000E+00  0.82683238294E+03  0.82683238294E+03  0.00000000000E+00 0. -1.
         21   -1    0    0  501  502  0.00000000000E+00 -0.00000000000E+00 -0.10596595036E+03  0.10596595036E+03  0.00000000000E+00 0. -1.
         23    2    1    2    0    0  0.66565634441E+02  0.41603225667E+02 -0.15990326537E+02  0.12068181379E+03  0.90258504101E+02 0.  0.
         24    2    1    2    0    0 -0.82510608502E+02 -0.61575528149E+01  0.75845170356E+03  0.76765328135E+03  0.84833117125E+02 0.  0.
        -11    1    4    4    0    0 -0.32850916373E+02  0.31907357832E+02  0.17638402901E+03  0.18223223612E+03  0.00000000000E+00 0.  1.
         12    1    4    4    0    0 -0.49659692129E+02 -0.38064910647E+02  0.58206767455E+03  0.58542104523E+03  0.00000000000E+00 0. -1.
        -13    1    3    3    0    0  0.33460071200E+02 -0.27214373586E+02 -0.83852492139E+01  0.43937579573E+02  0.00000000000E+00 0.  1.
         13    1    3    3    0    0  0.33105563241E+02  0.68817599253E+02 -0.76050773227E+01  0.76744234217E+02  0.00000000000E+00 0. -1.
          1    1    1    2  501    0  0.15944974061E+02 -0.35445672852E+02 -0.21594944448E+02  0.44463238157E+02  0.00000000000E+00 0. -1.
<scales pt_clust_5="13000.00000" pt_clust_6="13000.00000" pt_clust_7="13000.00000" pt_clust_8="13000.00000" pt_clust_9="13000.00000"></scales>
<clustering>
<clus scale="   84.833">  5  6 -1 -1</clus>
<clus scale="   38.867">  5  9 -1 -1</clus>
<clus scale="   90.259">  7  8 -1 -1</clus>
<clus scale="  119.618">  1  7  2 -1</clus>
<clus scale="  341.431">  2  5  1 -1</clus>
</clustering>
</event>
<event>
 9    2  0.6820733E-005  0.3085159E+03  0.7546771E-02  0.1103583E+00
         21   -1    0    0  501  502  0.00000000000E+00  0.00000000000E+00  0.30398769855E+03  0.30398769855E+03  0.00000000000E+00 0.  1.
         -1   -1    0    0    0  501 -0.00000000000E+00 -0.00000000000E+00 -0.65394567686E+03  0.65394567686E+03  0.00000000000E+00 0.  1.
         23    2    1    2    0    0 -0.14281741348E+03  0.11719165213E+02 -0.55955025193E+03  0.58495754980E+03  0.92437536770E+02 0.  0.
         24    2    1    2    0    0  0.28098329453E+02  0.65021448002E+02 -0.16270854269E+02  0.10828025992E+03  0.80265616377E+02 0.  0.
        -13    1    4    4    0    0 -0.24879042414E+02  0.23926613937E+01 -0.48249844312E+01  0.25455295220E+02  0.00000000000E+00 0.  1.
         14    1    4    4    0    0  0.52977371867E+02  0.62628786608E+02 -0.11445869838E+02  0.82824964704E+02  0.00000000000E+00 0. -1.
        -13    1    3    3    0    0 -0.12607983768E+03  0.31645162643E+02 -0.52942086125E+03  0.54514584298E+03  0.00000000000E+00 0.  1.
         13    1    3    3    0    0 -0.16737575799E+02 -0.19925997429E+02 -0.30129390677E+02  0.39811706818E+02  0.00000000000E+00 0. -1.
         -2    1    1    2    0  502  0.11471908402E+03 -0.76740613215E+02  0.22586312789E+03  0.26469556569E+03  0.00000000000E+00 0.  1.
<scales pt_clust_5="13000.00000" pt_clust_6="13000.00000" pt_clust_7="13000.00000" pt_clust_8="13000.00000" pt_clust_9="13000.00000"></scales>
<clustering>
<clus scale="   80.266">  5  6 -1 -1</clus>
<clus scale="   92.438">  7  8 -1 -1</clus>
<clus scale="  138.020">  5  9 -1 -1</clus>
<clus scale="  170.525">  2  7  1 -1</clus>
<clus scale="  308.516">  1  5  2 -1</clus>
</clustering>
</event>
<event>
 9    2  0.6085395E-005  0.2688010E+03  0.7546771E-02  0.1132118E+00
         -1   -1    0    0    0  501 -0.00000000000E+00  0.00000000000E+00  0.66106894767E+02  0.66106894767E+02  0.00000000000E+00 0.  1.
         21   -1    0    0  501  502  0.00000000000E+00 -0.00000000000E+00 -0.67775286436E+03  0.67775286436E+03  0.00000000000E+00 0.  1.
         23    2    1    2    0    0  0.73672177772E+02  0.23996830019E+02 -0.83059001729E+02  0.15085204021E+03  0.99267832843E+02 0.  0.
         24    2    1    2    0    0 -0.33001239743E+02  0.84919178027E+02 -0.40715272977E+03  0.42489140148E+03  0.80367960474E+02 0.  0.
        -11    1    4    4    0    0 -0.43773319210E+02  0.61918356713E+02 -0.38085809022E+03  0.38833345369E+03  0.00000000000E+00 0.  1.
         12    1    4    4    0    0  0.10772079467E+02  0.23000821314E+02 -0.26294639551E+02  0.36557947786E+02  0.00000000000E+00 0. -1.
        -11    1    3    3    0    0 -0.24538351260E+02  0.10364323838E+02 -0.20518325871E+02  0.33623676000E+02  0.00000000000E+00 0. -1.
         11    1    3    3    0    0  0.98210529032E+02  0.13632506181E+02 -0.62540675858E+02  0.11722836421E+03  0.00000000000E+00 0.  1.
         -2    1    1    2    0  502 -0.40670938030E+02 -0.10891600805E+03 -0.12143423810E+03  0.16811631744E+03  0.00000000000E+00 0.  1.
<scales pt_clust_5="13000.00000" pt_clust_6="13000.00000" pt_clust_7="13000.00000" pt_clust_8="13000.00000" pt_clust_9="13000.00000"></scales>
<clustering>
<clus scale="   80.368">  5  6 -1 -1</clus>
<clus scale="   99.268">  7  8 -1 -1</clus>
<clus scale="  116.262">  5  9 -1 -1</clus>
<clus scale="  125.927">  1  7  2 -1</clus>
<clus scale="  268.801">  2  5  1 -1</clus>
</clustering>
</event>
<event>
 9    2  0.6085395E-005  0.8284425E+03  0.7546771E-02  0.9812295E-01
         21   -1    0    0  501  502  0.00000000000E+00  0.00000000000E+00  0.37200018131E+03  0.37200018131E+03  0.00000000000E+00 0. -1.
          2   -1    0    0  502    0 -0.00000000000E+00 -0.00000000000E+00 -0.14893399032E+04  0.14893399032E+04  0.00000000000E+00 0. -1.
         23    2    1    2    0    0  0.29067677143E+03 -0.45751606785E+02 -0.97265882252E+03  0.10203587952E+04  0.92090667033E+02 0.  0.
         24    2    1    2    0    0  0.18496363907E+03 -0.19990245818E+03 -0.11124799554E+03  0.30460690623E+03  0.78972844993E+02 0.  0.
        -11    1    4    4    0    0  0.65592400093E+02 -0.70244918767E+02 -0.81211984569E+02  0.12582566511E+03  0.00000000000E+00 0.  1.
         12    1    4    4    0    0  0.11937123898E+03 -0.12965753941E+03 -0.30036010974E+02  0.17878124112E+03  0.00000000000E+00 0. -1.
        -11    1    3    3    0    0  0.20388331065E+03 -0.64994248519E+02 -0.59298204067E+03  0.63041284668E+03  0.00000000000E+00 0. -1.
         11    1    3    3    0    0  0.86793460778E+02  0.19242641734E+02 -0.37967678186E+03  0.38994594853E+03  0.00000000000E+00 0.  1.
          1    1    1    2  501    0 -0.47564041050E+03  0.24565406496E+03 -0.33432903785E+02  0.53637438304E+03  0.00000000000E+00 0. -1.
<scales pt_clust_5="13000.00000" pt_clust_6="13000.00000" pt_clust_7="13000.00000" pt_clust_8="13000.00000" pt_clust_9="13000.00000"></scales>
<clustering>
<clus scale="   78.973">  5  6 -1 -1</clus>
<clus scale="   92.091">  7  8 -1 -1</clus>
<clus scale="  308.329">  2  7  1 -1</clus>
<clus scale="  377.716">  5  9 -1 -1</clus>
<clus scale="  828.442">  1  5  2 -1</clus>
</clustering>
</event>
<event>
 9    2  0.6085395E-005  0.1509585E+03  0.7546771E-02  0.1217465E+00
         -1   -1    0    0    0  501 -0.00000000000E+00  0.00000000000E+00  0.10181830976E+03  0.10181830976E+03  0.00000000000E+00 0.  1.
         21   -1    0    0  501  502  0.00000000000E+00 -0.00000000000E+00 -0.23609197778E+03  0.23609197778E+03  0.00000000000E+00 0. -1.
         23    2    1    2    0    0 -0.26450798052E+02 -0.45201504930E+02  0.37737513445E+02  0.10905157930E+03  0.87893721404E+02 0.  0.
         24    2    1    2    0    0  0.57238934084E+02  0.63928798733E+02 -0.14112151525E+03  0.18139511870E+03  0.75004800770E+02 0.  0.
        -11    1    4    4    0    0  0.23204163496E+02  0.16316938845E+02 -0.11292111547E+03  0.11642960971E+03  0.00000000000E+00 0.  1.
         12    1    4    4    0    0  0.34034770589E+02  0.47611859888E+02 -0.28200399779E+02  0.64965508993E+02  0.00000000000E+00 0. -1.
        -11    1    3    3    0    0 -0.52685245748E+02 -0.36047574335E+01  0.23888067949E+02  0.57960065442E+02  0.00000000000E+00 0.  1.
         11    1    3    3    0    0  0.26234447696E+02 -0.41596747497E+02  0.13849445496E+02  0.51091513863E+02  0.00000000000E+00 0. -1.
         -2    1    1    2    0  502 -0.30788136032E+02 -0.18727293803E+02 -0.30889666215E+02  0.47463589544E+02  0.00000000000E+00 0.  1.
<scales pt_clust_5="13000.00000" pt_clust_6="13000.00000" pt_clust_7="13000.00000" pt_clust_8="13000.00000" pt_clust_9="13000.00000"></scales>
<clustering>
<clus scale="   75.005">  5  6 -1 -1</clus>
<clus scale="   36.036">  5  9 -1 -1</clus>
<clus scale="   87.894">  7  8 -1 -1</clus>
<clus scale="  102.314">  1  7  2 -1</clus>
<clus scale="  150.958">  2  5  1 -1</clus>
</clustering>
</event>
<event>
 9    2  0.6085395E-005  0.4116152E+03  0.7546771E-02  0.1042869E+00
          2   -1    0    0  502    0 -0.00000000000E+00  0.00000000000E+00  0.40882308449E+03  0.40882308449E+03  0.00000000000E+00 0. -1.
         21   -1    0    0  501  502  0.00000000000E+00 -0.00000000000E+00 -0.43595518951E+03  0.43595518951E+03  0.00000000000E+00 0.  1.
         23    2    1    2    0    0 -0.13513045799E+03  0.33520143360E+03 -0.16399345791E+03  0.41100629820E+03  0.10682734277E+03 0.  0.
         24    2    1    2    0    0  0.61344438691E+02 -0.82722878107E+02  0.10758103708E+03  0.16910778381E+03  0.80109601693E+02 0.  0.
        -11    1    4    4    0    0 -0.35914038756E+01 -0.61119404189E+02  0.60258781325E+02  0.85904601024E+02  0.00000000000E+00 0.  1.
         12    1    4    4    0    0  0.64935842567E+02 -0.21603473918E+02  0.47322255759E+02  0.83203182783E+02  0.00000000000E+00 0. -1.
        -13    1    3    3    0    0 -0.41114559006E+01  0.12576747608E+03 -0.84171890604E+02  0.15139111360E+03  0.00000000000E+00 0. -1.
         13    1    3    3    0    0 -0.13101900209E+03  0.20943395752E+03 -0.79821567308E+02  0.25961518461E+03  0.00000000000E+00 0.  1.
          1    1    1    2  501    0  0.73786019295E+02 -0.25247855549E+03  0.29280315809E+02  0.26466419199E+03  0.00000000000E+00 0. -1.
<scales pt_clust_5="13000.00000" pt_clust_6="13000.00000" pt_clust_7="13000.00000" pt_clust_8="13000.00000" pt_clust_9="13000.00000"></scales>
<clustering>
<clus scale="   80.110">  5  6 -1 -1</clus>
<clus scale="  106.827">  7  8 -1 -1</clus>
<clus scale="  263.040">  5  9 -1 -1</clus>
<clus scale="  376.872">  1  7  2 -1</clus>
<clus scale="  411.615">  2  5  1 -1</clus>
</clustering>
</event>
<event>
 9    2  0.6085395E-005  0.4847370E+03  0.7546771E-02  0.1071776E+00
          2   -1    0    0  502    0 -0.00000000000E+00  0.00000000000E+00  0.23328685288E+03  0.23328685288E+03  0.00000000000E+00 0. -1.
         21   -1    0    0  501  502  0.00000000000E+00 -0.00000000000E+00 -0.68187712729E+03  0.68187712729E+03  0.00000000000E+00 0. -1.
         23    2    1    2    0    0 -0.43963484521E+02 -0.17690071789E+02  0.12671848937E+03  0.16286743629E+03  0.90677999784E+02 0.  0.
         24    2    1    2    0    0 -0.86653284915E+02  0.12364308919E+03 -0.18191072867E+02  0.17034559760E+03  0.76748304206E+02 0.  0.
        -13    1    4    4    0    0 -0.40478469531E+02  0.94462318889E+02  0.18665951355E+02  0.10445120356E+03  0.00000000000E+00 0.  1.
         14    1    4    4    0    0 -0.46174815384E+02  0.29180770300E+02 -0.36857024222E+02  0.65894394037E+02  0.00000000000E+00 0. -1.
        -11    1    3    3    0    0 -0.66580408058E+02 -0.36497431240E+01  0.55228955874E+02  0.86582382324E+02  0.00000000000E+00 0. -1.
         11    1    3    3    0    0  0.22616923537E+02 -0.14040328665E+02  0.71489533492E+02  0.76285053964E+02  0.00000000000E+00 0.  1.
          1    1    1    2  501    0  0.13061676944E+03 -0.10595301740E+03 -0.55711769091E+03  0.58195094628E+03  0.00000000000E+00 0. -1.
<scales pt_clust_5="13000.00000" pt_clust_6="13000.00000" pt_clust_7="13000.00000" pt_clust_8="13000.00000" pt_clust_9="13000.00000"></scales>
<clustering>
<clus scale="   76.748">  5  6 -1 -1</clus>
<clus scale="   90.678">  7  8 -1 -1</clus>
<clus scale="  102.314">  1  7  2 -1</clus>
<clus scale="  165.062">  5  9 -1 -1</clus>
<clus scale="  484.737">  2  5  1 -1</clus>
</clustering>
</event>
<event>
 9    2  0.6085395E-005  0.1919478E+03  0.7546771E-02  0.1186620E+00
          2   -1    0    0  502    0 -0.00000000000E+00  0.00000000000E+00  0.22708636687E+03  0.22708636687E+03  0.00000000000E+00 0. -1.
         21   -1    0    0  501  502  0.00000000000E+00 -0.00000000000E+00 -0.92576079964E+02  0.92576079964E+02  0.00000000000E+00 0. -1.
         23    2    1    2    0    0  0.56144606760E+01 -0.33262713198E+02  0.32787876683E+02  0.10242659900E+03  0.90984795805E+02 0.  0.
         24    2    1    2    0    0  0.52040858509E+02 -0.24694340993E+02  0.18301717658E+02  0.10043615644E+03  0.80214756875E+02 0.  0.
        -13    1    4    4    0    0  0.54368219159E+02 -0.13327690882E+02  0.44677467544E+02  0.71621272713E+02  0.00000000000E+00 0.  1.
         14    1    4    4    0    0 -0.23273606507E+01 -0.11366650111E+02 -0.26375749886E+02  0.28814883731E+02  0.00000000000E+00 0. -1.
        -11    1    3    3    0    0  0.45028214587E+02 -0.35513829777E+02  0.22725012159E+02  0.61686290146E+02  0.00000000000E+00 0. -1.
         11    1    3    3    0    0 -0.39413753911E+02  0.22511165783E+01  0.10062864524E+02  0.40740308856E+02  0.00000000000E+00 0.  1.
          1    1    1    2  501    0 -0.57655319185E+02  0.57957054192E+02  0.83420692569E+02  0.11679969139E+03  0.00000000000E+00 0. -1.
<scales pt_clust_5="13000.00000" pt_clust_6="13000.00000" pt_clust_7="13000.00000" pt_clust_8="13000.00000" pt_clust_9="13000.00000"></scales>
<clustering>
<clus scale="   80.215">  5  6 -1 -1</clus>
<clus scale="   81.751">  5  9 -1 -1</clus>
<clus scale="   90.985">  7  8 -1 -1</clus>
<clus scale="   97.037">  1  7  2 -1</clus>
<clus scale="  191.948">  2  5  1 -1</clus>
</clustering>
</event>
<event>
 9    2  0.6085395E-005  0.1611154E+03  0.7546771E-02  0.1209202E+00
          2   -1    0    0  502    0 -0.00000000000E+00  0.00000000000E+00  0.93596523338E+02  0.93596523338E+02  0.00000000000E+00 0. -1.
         21   -1    0    0  501  502  0.00000000000E+00 -0.00000000000E+00 -0.22353818427E+03  0.22353818427E+03  0.00000000000E+00 0. -1.
         23    2    1    2    0    0  0.21685711686E+02 -0.32050494512E+02 -0.11902728384E+03  0.15565001399E+03  0.92530688250E+02 0.  0.
         24    2    1    2    0    0 -0.52893944532E+02 -0.14508291181E+02  0.16608536519E+02  0.99041238423E+02  0.80777865421E+02 0.  0.
        -13    1    4    4    0    0  0.91229435387E+01  0.22448380339E+02 -0.25049753026E+01  0.24360475774E+02  0.00000000000E+00 0.  1.
         14    1    4    4    0    0 -0.62016888070E+02 -0.36956671519E+02  0.19113511821E+02  0.74680762649E+02  0.00000000000E+00 0. -1.
        -13    1    3    3    0    0  0.52454382615E+02 -0.42572672349E+02 -0.75409369455E+02  0.10124459338E+03  0.00000000000E+00 0. -1.
         13    1    3    3    0    0 -0.30768670930E+02  0.10522177836E+02 -0.43617914385E+02  0.54405420617E+02  0.00000000000E+00 0.  1.
          1    1    1    2  501    0  0.31208232846E+02  0.46558785693E+02 -0.27522913610E+02  0.62443455191E+02  0.00000000000E+00 0. -1.
<scales pt_clust_5="13000.00000" pt_clust_6="13000.00000" pt_clust_7="13000.00000" pt_clust_8="13000.00000" pt_clust_9="13000.00000"></scales>
<clustering>
<clus scale="   80.778">  5  6 -1 -1</clus>
<clus scale="   56.051">  5  9 -1 -1</clus>
<clus scale="   92.531">  7  8 -1 -1</clus>
<clus scale="  100.297">  1  7  2 -1</clus>
<clus scale="  161.115">  2  5  1 -1</clus>
</clustering>
</event>
<event>
 9    2  0.6085395E-005  0.6530407E+03  0.7546771E-02  0.1036987E+00
         21   -1    0    0  501  502  0.00000000000E+00  0.00000000000E+00  0.22782380185E+03  0.22782380185E+03  0.00000000000E+00 0. -1.
          2   -1    0    0  502    0 -0.00000000000E+00 -0.00000000000E+00 -0.64614630770E+03  0.64614630770E+03  0.00000000000E+00 0. -1.
         23    2    1    2    0    0 -0.54098356832E+02  0.36753676253E+02 -0.38041402294E+02  0.11827445840E+03  0.90907834050E+02 0.  0.
         24    2    1    2    0    0 -0.75863495515E+02 -0.16669371906E+03 -0.49831579757E+03  0.53727704667E+03  0.82498029331E+02 0.  0.
        -11    1    4    4    0    0  0.16615904545E+02 -0.17260544095E+02 -0.42991999459E+02  0.49217138111E+02  0.00000000000E+00 0.  1.
         12    1    4    4    0    0 -0.92479400060E+02 -0.14943317497E+03 -0.45532379811E+03  0.48805990856E+03  0.00000000000E+00 0. -1.
        -13    1    3    3    0    0  0.21553065465E+02 -0.91302134958E+01 -0.59059907050E+01  0.24140757147E+02  0.00000000000E+00 0.  1.
         13    1    3    3    0    0 -0.75651422297E+02  0.45883889749E+02 -0.32135411589E+02  0.94133701255E+02  0.00000000000E+00 0. -1.
          1    1    1    2  501    0  0.12996185235E+03  0.12994004281E+03  0.11803469401E+03  0.21841860448E+03  0.00000000000E+00 0. -1.
<scales pt_clust_5="13000.00000" pt_clust_6="13000.00000" pt_clust_7="13000.00000" pt_clust_8="13000.00000" pt_clust_9="13000.00000"></scales>
<clustering>
<clus scale="   82.498">  5  6 -1 -1</clus>
<clus scale="   90.908">  7  8 -1 -1</clus>
<clus scale="  111.990">  2  7  1 -1</clus>
<clus scale="  182.782">  5  9 -1 -1</clus>
<clus scale="  653.041">  1  5  2 -1</clus>
</clustering>
</event>
<event>
 9    2  0.6085395E-005  0.1929275E+03  0.7546771E-02  0.1183507E+00
         21   -1    0    0  501  502  0.00000000000E+00  0.00000000000E+00  0.61787573066E+02  0.61787573066E+02  0.00000000000E+00 0. -1.
          2   -1    0    0  502    0 -0.00000000000E+00 -0.00000000000E+00 -0.35400379681E+03  0.35400379681E+03  0.00000000000E+00 0. -1.
         23    2    1    2    0    0  0.40327760789E+02 -0.13575766235E+02 -0.90787375022E+02  0.13687451252E+03  0.93175399082E+02 0.  0.
         24    2    1    2    0    0  0.44155982419E+02  0.93615003143E+01 -0.50553916395E+02  0.10594718340E+03  0.81435365393E+02 0.  0.
        -11    1    4    4    0    0  0.51560023892E+02  0.29883373008E+02 -0.57739426167E+02  0.82977667961E+02  0.00000000000E+00 0.  1.
         12    1    4    4    0    0 -0.74040414726E+01 -0.20521872694E+02  0.71855097724E+01  0.22969515443E+02  0.00000000000E+00 0. -1.
        -11    1    3    3    0    0  0.64192081912E+02  0.66513424343E+01 -0.36297387882E+02  0.74042988213E+02  0.00000000000E+00 0. -1.
         11    1    3    3    0    0 -0.23864321123E+02 -0.20227108669E+02 -0.54489987140E+02  0.62831524304E+02  0.00000000000E+00 0.  1.
          1    1    1    2  501    0 -0.84483743209E+02  0.42142659207E+01 -0.15087493232E+03  0.17296967395E+03  0.00000000000E+00 0. -1.
<scales pt_clust_5="13000.00000" pt_clust_6="13000.00000" pt_clust_7="13000.00000" pt_clust_8="13000.00000" pt_clust_9="13000.00000"></scales>
<clustering>
<clus scale="   81.435">  5  6 -1 -1</clus>
<clus scale="   84.589">  5  9 -1 -1</clus>
<clus scale="   93.175">  7  8 -1 -1</clus>
<clus scale="  102.432">  2  7  1 -1</clus>
<clus scale="  192.928">  1  5  2 -1</clus>
</clustering>
</event>
<event>
 9    2  0.6085395E-005  0.2090986E+03  0.7546771E-02  0.1176710E+00
         21   -1    0    0  501  502  0.00000000000E+00  0.00000000000E+00  0.93844417213E+02  0.93844417213E+02  0.00000000000E+00 0. -1.
          2   -1    0    0  502    0 -0.00000000000E+00 -0.00000000000E+00 -0.36921272035E+03  0.36921272035E+03  0.00000000000E+00 0. -1.
         23    2    1    2    0    0  0.24727704217E+02 -0.25482356029E+01 -0.23101324063E+03  0.24930588960E+03  0.90378959839E+02 0.  0.
         24    2    1    2    0    0  0.65091809162E+02  0.40176554082E+02 -0.16871748207E+02  0.11256445090E+03  0.80839350572E+02 0.  0.
        -13    1    4    4    0    0  0.44428544342E+02 -0.14978656400E+02 -0.24955684665E+02  0.53113481311E+02  0.00000000000E+00 0.  1.
         14    1    4    4    0    0  0.20663264819E+02  0.55155210482E+02  0.80839364579E+01  0.59450969588E+02  0.00000000000E+00 0. -1.
        -11    1    3    3    0    0  0.22533525189E+02 -0.45237800616E+02 -0.11290482833E+03  0.12370011569E+03  0.00000000000E+00 0.  1.
         11    1    3    3    0    0  0.21941790284E+01  0.42689565013E+02 -0.11810841230E+03  0.12560577391E+03  0.00000000000E+00 0. -1.
          1    1    1    2  501    0 -0.89819513379E+02 -0.37628318479E+02 -0.27483314299E+02  0.10118679706E+03  0.00000000000E+00 0. -1.
<scales pt_clust_5="13000.00000" pt_clust_6="13000.00000" pt_clust_7="13000.00000" pt_clust_8="13000.00000" pt_clust_9="13000.00000"></scales>
<clustering>
<clus scale="   80.839">  5  6 -1 -1</clus>
<clus scale="   90.379">  7  8 -1 -1</clus>
<clus scale="   93.735">  2  7  1 -1</clus>
<clus scale="   86.707">  5  9 -1 -1</clus>
<clus scale="  209.099">  1  5  2 -1</clus>
</clustering>
</event>
<event>
 9    2  0.6085395E-005  0.2814525E+03  0.7546771E-02  0.1119496E+00
          2   -1    0    0  502    0 -0.00000000000E+00  0.00000000000E+00  0.38961023975E+03  0.38961023975E+03  0.00000000000E+00 0. -1.
         21   -1    0    0  501  502  0.00000000000E+00 -0.00000000000E+00 -0.20751249073E+03  0.20751249073E+03  0.00000000000E+00 0. -1.
         23    2    1    2    0    0 -0.38038748872E+02 -0.11209387097E+03  0.26434552992E+03  0.30389890885E+03  0.92000028705E+02 0.  0.
         24    2    1    2    0    0  0.57174998005E+02 -0.32322462273E+02  0.31486791055E+02  0.10840546162E+03  0.80290747500E+02 0.  0.
        -11    1    4    4    0    0  0.30257126323E+02  0.24423763878E+02  0.22593680295E+02  0.44972083836E+02  0.00000000000E+00 0.  1.
         12    1    4    4    0    0  0.26917871682E+02 -0.56746226151E+02  0.88931107609E+01  0.63433377785E+02  0.00000000000E+00 0. -1.
        -13    1    3    3    0    0 -0.30754162110E+02 -0.95017209885E+01  0.17849760290E+02  0.36806455021E+02  0.00000000000E+00 0.  1.
         13    1    3    3    0    0 -0.72845867620E+01 -0.10259214999E+03  0.24649576963E+03  0.26709245383E+03  0.00000000000E+00 0. -1.
          1    1    1    2  501    0 -0.19136249134E+02  0.14441633325E+03 -0.11373457196E+03  0.18481836002E+03  0.00000000000E+00 0. -1.
<scales pt_clust_5="13000.00000" pt_clust_6="13000.00000" pt_clust_7="13000.00000" pt_clust_8="13000.00000" pt_clust_9="13000.00000"></scales>
<clustering>
<clus scale="   80.291">  5  6 -1 -1</clus>
<clus scale="   92.000">  7  8 -1 -1</clus>
<clus scale="  145.679">  5  9 -1 -1</clus>
<clus scale="  149.920">  1  7  2 -1</clus>
<clus scale="  281.453">  2  5  1 -1</clus>
</clustering>
</event>
<event>
 9    2  0.6085395E-005  0.3861431E+03  0.7546771E-02  0.1056216E+00
         21   -1    0    0  501  502  0.00000000000E+00  0.00000000000E+00  0.30973817118E+03  0.30973817118E+03  0.00000000000E+00 0.  1.
         -3   -1    0    0    0  501 -0.00000000000E+00 -0.00000000000E+00 -0.41074236882E+03  0.41074236882E+03  0.00000000000E+00 0.  1.
         23    2    1    2    0    0 -0.29542404967E+03  0.41809256017E+02 -0.11942308990E+03  0.33389835927E+03  0.90569624627E+02 0.  0.
         24    2    1    2    0    0  0.69686887833E+02 -0.37712915845E+02 -0.82294343317E+02  0.13936324526E+03  0.79819977637E+02 0.  0.
        -13    1    4    4    0    0  0.43487582582E+02 -0.54376867285E+02 -0.24602329151E+02  0.73846381998E+02  0.00000000000E+00 0.  1.
         14    1    4    4    0    0  0.26199305251E+02  0.16663951439E+02 -0.57692014166E+02  0.65516863262E+02  0.00000000000E+00 0. -1.
        -13    1    3    3    0    0 -0.81627577316E+02  0.52895967765E+02 -0.28973292849E+02  0.10149136162E+03  0.00000000000E+00 0. -1.
         13    1    3    3    0    0 -0.21379647236E+03 -0.11086711748E+02 -0.90449797055E+02  0.23240699765E+03  0.00000000000E+00 0.  1.
         -4    1    1    2    0  502  0.22573716184E+03 -0.40963401717E+01  0.10071323558E+03  0.24721893548E+03  0.00000000000E+00 0.  1.
<scales pt_clust_5="13000.00000" pt_clust_6="13000.00000" pt_clust_7="13000.00000" pt_clust_8="13000.00000" pt_clust_9="13000.00000"></scales>
<clustering>
<clus scale="   79.820">  5  6 -1 -1</clus>
<clus scale="   90.570">  7  8 -1 -1</clus>
<clus scale="  225.774">  5  9 -1 -1</clus>
<clus scale="  311.811">  2  7  1 -1</clus>
<clus scale="  386.143">  1  5  2 -1</clus>
</clustering>
</event>
<event>
 9    2  0.6085395E-005  0.2301708E+03  0.7546771E-02  0.1134091E+00
         21   -1    0    0  501  502  0.00000000000E+00  0.00000000000E+00  0.84476674925E+02  0.84476674925E+02  0.00000000000E+00 0. -1.
         -1   -1    0    0    0  501 -0.00000000000E+00 -0.00000000000E+00 -0.52604959565E+03  0.52604959565E+03  0.00000000000E+00 0.  1.
         23    2    1    2    0    0  0.15952941832E+03 -0.22472263986E+02 -0.18881135342E+03  0.26866809382E+03  0.10285027711E+03 0.  0.
         24    2    1    2    0    0 -0.78997347694E+02  0.63521318226E+02 -0.19838133900E+03  0.23637050693E+03  0.78995709203E+02 0.  0.
        -13    1    4    4    0    0 -0.22585743554E+02  0.68109272488E+02 -0.11672542275E+03  0.13701756503E+03  0.00000000000E+00 0.  1.
         14    1    4    4    0    0 -0.56411604140E+02 -0.45879542626E+01 -0.81655916245E+02  0.99352941898E+02  0.00000000000E+00 0. -1.
        -11    1    3    3    0    0  0.47622263875E+02 -0.25621320988E+02 -0.61452221893E+01  0.54425139977E+02  0.00000000000E+00 0.  1.
         11    1    3    3    0    0  0.11190715444E+03  0.31490570022E+01 -0.18266613123E+03  0.21424295385E+03  0.00000000000E+00 0. -1.
         -2    1    1    2    0  502 -0.80532070624E+02 -0.41049054239E+02 -0.54380228311E+02  0.10548766982E+03  0.00000000000E+00 0.  1.
<scales pt_clust_5="13000.00000" pt_clust_6="13000.00000" pt_clust_7="13000.00000" pt_clust_8="13000.00000" pt_clust_9="13000.00000"></scales>
<clustering>
<clus scale="   78.996">  5  6 -1 -1</clus>
<clus scale="   90.391">  5  9 -1 -1</clus>
<clus scale="  102.850">  7  8 -1 -1</clus>
<clus scale="  191.136">  2  7  1 -1</clus>
<clus scale="  230.171">  1  5  2 -1</clus>
</clustering>
</event>
<event>
 9    2  0.6085395E-005  0.3050947E+03  0.7546771E-02  0.1114391E+00
         21   -1    0    0  501  502  0.00000000000E+00  0.00000000000E+00  0.11105405146E+03  0.11105405146E+03  0.00000000000E+00 0. -1.
          2   -1    0    0  502    0 -0.00000000000E+00 -0.00000000000E+00 -0.43617833183E+03  0.43617833183E+03  0.00000000000E+00 0. -1.
         23    2    1    2    0    0 -0.47734126698E+02  0.84623298285E+02 -0.11857883083E+03  0.17879814296E+03  0.92022754477E+02 0.  0.
         24    2    1    2    0    0 -0.49371442944E+02  0.45816182663E+01 -0.21727720580E+03  0.23613843773E+03  0.78060534257E+02 0.  0.
        -11    1    4    4    0    0 -0.42400884470E+01  0.29789408156E+02 -0.32604941724E+02  0.44367436405E+02  0.00000000000E+00 0.  1.
         12    1    4    4    0    0 -0.45131354497E+02 -0.25207789890E+02 -0.18467226408E+03  0.19177100133E+03  0.00000000000E+00 0. -1.
        -11    1    3    3    0    0 -0.42680477370E+02  0.47110458952E+02 -0.12516032275E+03  0.14037850577E+03  0.00000000000E+00 0. -1.
         11    1    3    3    0    0 -0.50536493275E+01  0.37512839334E+02  0.65814919163E+01  0.38419637196E+02  0.00000000000E+00 0.  1.
          1    1    1    2  501    0  0.97105569641E+02 -0.89204916552E+02  0.10731756261E+02  0.13229580260E+03  0.00000000000E+00 0. -1.
<scales pt_clust_5="13000.00000" pt_clust_6="13000.00000" pt_clust_7="13000.00000" pt_clust_8="13000.00000" pt_clust_9="13000.00000"></scales>
<clustering>
<clus scale="   78.061">  5  6 -1 -1</clus>
<clus scale="   92.023">  7  8 -1 -1</clus>
<clus scale="  131.860">  5  9 -1 -1</clus>
<clus scale="  133.820">  2  7  1 -1</clus>
<clus scale="  305.095">  1  5  2 -1</clus>
</clustering>
</event>
<event>
 9    2  0.6085395E-005  0.1100982E+03  0.7546771E-02  0.1265896E+00
         -1   -1    0    0    0  501 -0.00000000000E+00  0.00000000000E+00  0.57808770797E+02  0.57808770797E+02  0.00000000000E+00 0.  1.
         21   -1    0    0  501  502  0.00000000000E+00 -0.00000000000E+00 -0.24457898761E+03  0.24457898761E+03  0.00000000000E+00 0.  1.
         23    2    1    2    0    0 -0.39284676421E+02 -0.10117164291E+01 -0.17396942789E+02  0.10037557753E+03  0.90709941986E+02 0.  0.
         24    2    1    2    0    0  0.20506844980E+02  0.12887266600E+02 -0.15289294350E+03  0.17434926455E+03  0.80217214765E+02 0.  0.
        -11    1    4    4    0    0  0.21609050652E+02  0.26814976275E+02 -0.15623360743E+03  0.15998416832E+03  0.00000000000E+00 0.  1.
         12    1    4    4    0    0 -0.11022056720E+01 -0.13927709675E+02  0.33406639291E+01  0.14365096227E+02  0.00000000000E+00 0. -1.
        -13    1    3    3    0    0 -0.63214896463E+02  0.15038407201E+02  0.30390322191E+01  0.65050077192E+02  0.00000000000E+00 0.  1.
         13    1    3    3    0    0  0.23930220042E+02 -0.16050123630E+02 -0.20435975008E+02  0.35325500340E+02  0.00000000000E+00 0. -1.
         -2    1    1    2    0  502  0.18777831440E+02 -0.11875550171E+02 -0.16480330521E+02  0.27662916324E+02  0.00000000000E+00 0.  1.
<scales pt_clust_5="13000.00000" pt_clust_6="13000.00000" pt_clust_7="13000.00000" pt_clust_8="13000.00000" pt_clust_9="13000.00000"></scales>
<clustering>
<clus scale="   80.217">  5  6 -1 -1</clus>
<clus scale="   22.218">  5  9 -1 -1</clus>
<clus scale="   90.710">  7  8 -1 -1</clus>
<clus scale="   98.856">  1  7  2 -1</clus>
<clus scale="  110.098">  2  5  1 -1</clus>
</clustering>
</event>
<event>
 9    2  0.6085395E-005  0.2108525E+03  0.7546771E-02  0.1170272E+00
         21   -1    0    0  501  502  0.00000000000E+00  0.00000000000E+00  0.59628634565E+02  0.59628634565E+02  0.00000000000E+00 0. -1.
          4   -1    0    0  502    0 -0.00000000000E+00 -0.00000000000E+00 -0.42485466553E+03  0.42485466553E+03  0.00000000000E+00 0. -1.
         23    2    1    2    0    0 -0.57932021471E+02 -0.11065943202E+02 -0.99406571167E+02  0.14519176008E+03  0.87865844290E+02 0.  0.
         24    2    1    2    0    0  0.74826407736E+02  0.27919461583E+00 -0.28848953034E+03  0.30903090006E+03  0.81699564432E+02 0.  0.
        -11    1    4    4    0    0  0.96439270416E+01  0.33287300776E+02 -0.12949388987E+03  0.13405117394E+03  0.00000000000E+00 0.  1.
         12    1    4    4    0    0  0.65182480694E+02 -0.33008106160E+02 -0.15899564047E+03  0.17497972611E+03  0.00000000000E+00 0. -1.
        -13    1    3    3    0    0 -0.55844786579E+02  0.30730837982E+02 -0.55237233878E+02  0.84345578412E+02  0.00000000000E+00 0. -1.
         13    1    3    3    0    0 -0.20872348920E+01 -0.41796781184E+02 -0.44169337288E+02  0.60846181666E+02  0.00000000000E+00 0.  1.
          3    1    1    2  501    0 -0.16894386265E+02  0.10786748586E+02  0.22670070544E+02  0.30260639960E+02  0.00000000000E+00 0. -1.
<scales pt_clust_5="13000.00000" pt_clust_6="13000.00000" pt_clust_7="13000.00000" pt_clust_8="13000.00000" pt_clust_9="13000.00000"></scales>
<clustering>
<clus scale="   81.700">  5  6 -1 -1</clus>
<clus scale="   20.044">  5  9 -1 -1</clus>
<clus scale="   87.866">  7  8 -1 -1</clus>
<clus scale="  105.825">  2  7  1 -1</clus>
<clus scale="  210.852">  1  5  2 -1</clus>
</clustering>
</event>
<event>
 9    2  0.6085395E-005  0.8777121E+03  0.7546771E-02  0.1001373E+00
          2   -1    0    0  502    0 -0.00000000000E+00  0.00000000000E+00  0.12309929571E+04  0.12309929571E+04  0.00000000000E+00 0. -1.
         21   -1    0    0  501  502  0.00000000000E+00 -0.00000000000E+00 -0.20863959512E+03  0.20863959512E+03  0.00000000000E+00 0. -1.
         23    2    1    2    0    0 -0.47856993132E+02 -0.88308535662E+02  0.13414028848E+03  0.19091277970E+03  0.91462468786E+02 0.  0.
         24    2    1    2    0    0  0.98235909850E+02  0.21772715938E+03  0.10238177224E+04  0.10546171291E+04  0.83421521323E+02 0.  0.
        -11    1    4    4    0    0  0.10296843524E+02  0.10373398597E+03  0.33213743172E+03  0.34811210606E+03  0.00000000000E+00 0.  1.
         12    1    4    4    0    0  0.87939066326E+02  0.11399317342E+03  0.69168029071E+03  0.70650502300E+03  0.00000000000E+00 0. -1.
        -11    1    3    3    0    0 -0.70025089946E+02 -0.37893028600E+02  0.66888585459E+02  0.10398787287E+03  0.00000000000E+00 0.  1.
         11    1    3    3    0    0  0.22168096814E+02 -0.50415507061E+02  0.67251703023E+02  0.86924906834E+02  0.00000000000E+00 0. -1.
          1    1    1    2  501    0 -0.50378916718E+02 -0.12941862372E+03 -0.13560464889E+03  0.19410264351E+03  0.00000000000E+00 0. -1.
<scales pt_clust_5="13000.00000" pt_clust_6="13000.00000" pt_clust_7="13000.00000" pt_clust_8="13000.00000" pt_clust_9="13000.00000"></scales>
<clustering>
<clus scale="   83.422">  5  6 -1 -1</clus>
<clus scale="   91.462">  7  8 -1 -1</clus>
<clus scale="  135.846">  1  7  2 -1</clus>
<clus scale="  141.607">  5  9 -1 -1</clus>
<clus scale="  877.712">  2  5  1 -1</clus>
</clustering>
</event>
<event>
 9    2  0.6085395E-005  0.5861948E+03  0.7546771E-02  0.1051132E+00
         21   -1    0    0  501  502  0.00000000000E+00  0.00000000000E+00  0.17366769936E+03  0.17366769936E+03  0.00000000000E+00 0.  1.
          2   -1    0    0  502    0 -0.00000000000E+00 -0.00000000000E+00 -0.69148086152E+03  0.69148086152E+03  0.00000000000E+00 0. -1.
         23    2    1    2    0    0 -0.44688256319E+02 -0.11830799000E+02 -0.11244096675E+03  0.15244174376E+03  0.91970137435E+02 0.  0.
         24    2    1    2    0    0 -0.67540415640E+02  0.20248570821E+03  0.24420592189E+02  0.22931628196E+03  0.80171204772E+02 0.  0.
        -13    1    4    4    0    0 -0.36995953895E+02  0.51898503327E+02 -0.24167685476E+02  0.68163276575E+02  0.00000000000E+00 0.  1.
         14    1    4    4    0    0 -0.30544461745E+02  0.15058720488E+03  0.48588277666E+02  0.16115300538E+03  0.00000000000E+00 0. -1.
        -11    1    3    3    0    0 -0.20862895353E+02 -0.48290017481E+02 -0.33744548609E+02  0.62497045943E+02  0.00000000000E+00 0. -1.
         11    1    3    3    0    0 -0.23825360965E+02  0.36459218481E+02 -0.78696418142E+02  0.89944697820E+02  0.00000000000E+00 0.  1.
          1    1    1    2  501    0  0.11222867196E+03 -0.19065490921E+03 -0.42979278760E+03  0.48339053516E+03  0.00000000000E+00 0. -1.
<scales pt_clust_5="13000.00000" pt_clust_6="13000.00000" pt_clust_7="13000.00000" pt_clust_8="13000.00000" pt_clust_9="13000.00000"></scales>
<clustering>
<clus scale="   80.171">  5  6 -1 -1</clus>
<clus scale="   91.970">  7  8 -1 -1</clus>
<clus scale="  102.935">  2  7  1 -1</clus>
<clus scale="  214.155">  5  9 -1 -1</clus>
<clus scale="  586.195">  1  5  2 -1</clus>
</clustering>
</event>
<event>
 9    2  0.7775488E-005  0.3520972E+03  0.7546771E-02  0.1074830E+00
         21   -1    0    0  501  502  0.00000000000E+00  0.00000000000E+00  0.33471150988E+03  0.33471150988E+03  0.00000000000E+00 0. -1.
         -1   -1    0    0    0  501 -0.00000000000E+00 -0.00000000000E+00 -0.32831491025E+03  0.32831491025E+03  0.00000000000E+00 0.  1.
         23    2    1    2    0    0 -0.12077553273E+03 -0.19440300970E+03  0.14430393841E+03  0.28488507808E+03  0.89199896785E+02 0.  0.
         24    2    1    2    0    0 -0.39014851884E+01 -0.12337703167E+00 -0.12848544199E+03  0.14689764793E+03  0.71099742315E+02 0.  0.
        -13    1    4    4    0    0 -0.35394439309E+02 -0.10399301015E+02 -0.54232568056E+02  0.65590267826E+02  0.00000000000E+00 0.  1.
         14    1    4    4    0    0  0.31492954120E+02  0.10275923984E+02 -0.74252873931E+02  0.81307380107E+02  0.00000000000E+00 0. -1.
        -11    1    3    3    0    0 -0.68795996692E+02 -0.16184641195E+03  0.13738373421E+03  0.22316236387E+03  0.00000000000E+00 0. -1.
         11    1    3    3    0    0 -0.51979536037E+02 -0.32556597744E+02  0.69202042034E+01  0.61722714210E+02  0.00000000000E+00 0.  1.
         -2    1    1    2    0  502  0.12467701792E+03  0.19452638673E+03 -0.94218967922E+01  0.23124369412E+03  0.00000000000E+00 0.  1.
<scales pt_clust_5="13000.00000" pt_clust_6="13000.00000" pt_clust_7="13000.00000" pt_clust_8="13000.00000" pt_clust_9="13000.00000"></scales>
<clustering>
<clus scale="   71.100">  5  6 -1 -1</clus>
<clus scale="   89.200">  7  8 -1 -1</clus>
<clus scale="  231.052">  5  9 -1 -1</clus>
<clus scale="  245.634">  2  7  1 -1</clus>
<clus scale="  352.097">  1  5  2 -1</clus>
</clustering>
</event>
<event>
 9    2  0.6085395E-005  0.1244645E+03  0.7546771E-02  0.1248355E+00
         21   -1    0    0  501  502  0.00000000000E+00  0.00000000000E+00  0.67363547238E+03  0.67363547238E+03  0.00000000000E+00 0. -1.
          2   -1    0    0  502    0 -0.00000000000E+00 -0.00000000000E+00 -0.32364736541E+02  0.32364736541E+02  0.00000000000E+00 0. -1.
         23    2    1    2    0    0 -0.26674863214E+02 -0.16284042531E+02  0.65272916158E+02  0.11670833791E+03  0.91561805279E+02 0.  0.
         24    2    1    2    0    0  0.21370623083E+02 -0.44223216670E+01  0.54712797904E+03  0.55337034292E+03  0.79959055241E+02 0.  0.
        -13    1    4    4    0    0  0.24767996348E+02  0.17292163547E+02  0.76769761804E+02  0.82498902361E+02  0.00000000000E+00 0.  1.
         14    1    4    4    0    0 -0.33973732643E+01 -0.21714485215E+02  0.47035821723E+03  0.47087144056E+03  0.00000000000E+00 0. -1.
        -11    1    3    3    0    0 -0.58086719800E+02 -0.84654687358E+01  0.59950386481E+02  0.83903396935E+02  0.00000000000E+00 0. -1.
         11    1    3    3    0    0  0.31411856587E+02 -0.78185737948E+01  0.53225296780E+01  0.32804940978E+02  0.00000000000E+00 0.  1.
          1    1    1    2  501    0  0.53042401306E+01  0.20706364198E+02  0.28869840643E+02  0.35921528091E+02  0.00000000000E+00 0. -1.
<scales pt_clust_5="13000.00000" pt_clust_6="13000.00000" pt_clust_7="13000.00000" pt_clust_8="13000.00000" pt_clust_9="13000.00000"></scales>
<clustering>
<clus scale="   79.959">  5  6 -1 -1</clus>
<clus scale="   21.375">  5  9 -1 -1</clus>
<clus scale="   91.562">  7  8 -1 -1</clus>
<clus scale="   96.749">  2  7  1 -1</clus>
<clus scale="  124.465">  1  5  2 -1</clus>
</clustering>
</event>
<event>
 9    2  0.6085395E-005  0.1515462E+03  0.7546771E-02  0.1217658E+00
         21   -1    0    0  501  502  0.00000000000E+00  0.00000000000E+00  0.46353343787E+02  0.46353343787E+02  0.00000000000E+00 0. -1.
          2   -1    0    0  502    0 -0.00000000000E+00 -0.00000000000E+00 -0.47467162670E+03  0.47467162670E+03  0.00000000000E+00 0. -1.
         23    2    1    2    0    0  0.35335977095E+01 -0.27802435155E+02 -0.47887842159E+02  0.11152090275E+03  0.96737813752E+02 0.  0.
         24    2    1    2    0    0 -0.40008537313E+02  0.36129614866E+02 -0.18873321981E+03  0.21418999334E+03  0.85738514440E+02 0.  0.
        -11    1    4    4    0    0 -0.34483668855E+02 -0.13238622207E+02 -0.13927924282E+03  0.14409403880E+03  0.00000000000E+00 0.  1.
         12    1    4    4    0    0 -0.55248684577E+01  0.49368237072E+02 -0.49453976983E+02  0.70095954538E+02  0.00000000000E+00 0. -1.
        -11    1    3    3    0    0  0.40013884645E+02 -0.21944576389E+02 -0.57436302018E+02  0.73359417846E+02  0.00000000000E+00 0.  1.
         11    1    3    3    0    0 -0.36480286935E+02 -0.58578587664E+01  0.95484598584E+01  0.38161484901E+02  0.00000000000E+00 0. -1.
          1    1    1    2  501    0  0.36474939603E+02 -0.83271797104E+01 -0.19169722095E+03  0.19531407441E+03  0.00000000000E+00 0. -1.
<scales pt_clust_5="13000.00000" pt_clust_6="13000.00000" pt_clust_7="13000.00000" pt_clust_8="13000.00000" pt_clust_9="13000.00000"></scales>
<clustering>
<clus scale="   85.739">  5  6 -1 -1</clus>
<clus scale="   37.413">  5  9 -1 -1</clus>
<clus scale="   96.738">  7  8 -1 -1</clus>
<clus scale="  100.716">  2  7  1 -1</clus>
<clus scale="  151.546">  1  5  2 -1</clus>
</clustering>
</event>
<event>
 9    2  0.6085395E-005  0.2012263E+03  0.7546771E-02  0.1175621E+00
         21   -1    0    0  501  502  0.00000000000E+00  0.00000000000E+00  0.27231896786E+03  0.27231896786E+03  0.00000000000E+00 0. -1.
         -1   -1    0    0    0  501 -0.00000000000E+00 -0.00000000000E+00 -0.92882631657E+02  0.92882631657E+02  0.00000000000E+00 0.  1.
         23    2    1    2    0    0 -0.56890072590E+02 -0.16010680541E+00  0.10547223194E+03  0.15081243885E+03  0.91561422054E+02 0.  0.
         24    2    1    2    0    0  0.64939848601E+02  0.20702501717E+02 -0.16805883622E+02  0.12097620876E+03  0.98524250055E+02 0.  0.
        -13    1    4    4    0    0  0.28095305269E+02 -0.33439325167E+02 -0.31511119775E+02  0.53856153921E+02  0.00000000000E+00 0.  1.
         14    1    4    4    0    0  0.36844543333E+02  0.54141826884E+02  0.14705236153E+02  0.67120054842E+02  0.00000000000E+00 0. -1.
        -13    1    3    3    0    0 -0.44138147676E+00 -0.37420922374E+02  0.22127790190E+02  0.43475962872E+02  0.00000000000E+00 0.  1.
         13    1    3    3    0    0 -0.56448691114E+02  0.37260815569E+02  0.83344441753E+02  0.10733647598E+03  0.00000000000E+00 0. -1.
         -2    1    1    2    0  502 -0.80497760108E+01 -0.20542394911E+02  0.90769987877E+02  0.93412951895E+02  0.00000000000E+00 0.  1.
<scales pt_clust_5="13000.00000" pt_clust_6="13000.00000" pt_clust_7="13000.00000" pt_clust_8="13000.00000" pt_clust_9="13000.00000"></scales>
<clustering>
<clus scale="   91.561">  7  8 -1 -1</clus>
<clus scale="   98.524">  5  6 -1 -1</clus>
<clus scale="   22.063">  5  9 -1 -1</clus>
<clus scale="  107.796">  2  7  1 -1</clus>
<clus scale="  201.226">  1  5  2 -1</clus>
</clustering>
</event>
<event>
 9    2  0.6085395E-005  0.1487952E+03  0.7546771E-02  0.1223731E+00
         -1   -1    0    0    0  501 -0.00000000000E+00  0.00000000000E+00  0.27768822148E+03  0.27768822148E+03  0.00000000000E+00 0.  1.
         21   -1    0    0  501  502  0.00000000000E+00 -0.00000000000E+00 -0.55423728350E+02  0.55423728350E+02  0.00000000000E+00 0.  1.
         23    2    1    2    0    0  0.79650003470E+01 -0.10554434593E+02  0.52580586903E+02  0.10742931106E+03  0.92744279797E+02 0.  0.
         24    2    1    2    0    0 -0.31387182520E+02  0.46109370411E+01  0.42516411308E+02  0.96239618317E+02  0.80299457883E+02 0.  0.
        -11    1    4    4    0    0 -0.47944837796E+02  0.10610143751E+02 -0.11892664993E+01  0.49119211888E+02  0.00000000000E+00 0.  1.
         12    1    4    4    0    0  0.16557655276E+02 -0.59992067097E+01  0.43705677808E+02  0.47120406429E+02  0.00000000000E+00 0. -1.
        -11    1    3    3    0    0  0.36133056414E+02 -0.36515503732E+02  0.14415288563E+02  0.53355227701E+02  0.00000000000E+00 0.  1.
         11    1    3    3    0    0 -0.28168056067E+02  0.25961069139E+02  0.38165298340E+02  0.54074083356E+02  0.00000000000E+00 0. -1.
         -2    1    1    2    0  502  0.23422182173E+02  0.59434975518E+01  0.12716749492E+03  0.12944302046E+03  0.00000000000E+00 0.  1.
<scales pt_clust_5="13000.00000" pt_clust_6="13000.00000" pt_clust_7="13000.00000" pt_clust_8="13000.00000" pt_clust_9="13000.00000"></scales>
<clustering>
<clus scale="   80.299">  5  6 -1 -1</clus>
<clus scale="   24.165">  5  9 -1 -1</clus>
<clus scale="   92.744">  7  8 -1 -1</clus>
<clus scale="   93.682">  1  7  2 -1</clus>
<clus scale="  148.795">  2  5  1 -1</clus>
</clustering>
</event>
<event>
 9    2  0.6085395E-005  0.1965835E+03  0.7546771E-02  0.1179474E+00
         -3   -1    0    0    0  501 -0.00000000000E+00  0.00000000000E+00  0.94316837620E+02  0.94316837620E+02  0.00000000000E+00 0.  1.
         21   -1    0    0  501  502  0.00000000000E+00 -0.00000000000E+00 -0.25865560714E+03  0.25865560714E+03  0.00000000000E+00 0.  1.
         23    2    1    2    0    0  0.46481655277E+02 -0.30464924695E+02 -0.17084658219E+02  0.10735311992E+03  0.90244949425E+02 0.  0.
         24    2    1    2    0    0  0.46560191387E+02  0.16229485430E+02 -0.12109342072E+03  0.14792687532E+03  0.69191735636E+02 0.  0.
        -11    1    4    4    0    0  0.52745573900E+02  0.36249105414E+02 -0.90287553880E+02  0.11067039168E+03  0.00000000000E+00 0.  1.
         12    1    4    4    0    0 -0.61853825133E+01 -0.20019619984E+02 -0.30805866838E+02  0.37256483634E+02  0.00000000000E+00 0. -1.
        -13    1    3    3    0    0  0.72176644227E+02 -0.32784730002E+02 -0.18881225136E+02  0.81491147715E+02  0.00000000000E+00 0.  1.
         13    1    3    3    0    0 -0.25694988950E+02  0.23198053075E+01  0.17965669176E+01  0.25861972208E+02  0.00000000000E+00 0. -1.
         -4    1    1    2    0  502 -0.93041846664E+02  0.14235439265E+02 -0.26160690582E+02  0.97692449521E+02  0.00000000000E+00 0.  1.
<scales pt_clust_5="13000.00000" pt_clust_6="13000.00000" pt_clust_7="13000.00000" pt_clust_8="13000.00000" pt_clust_9="13000.00000"></scales>
<clustering>
<clus scale="   69.192">  5  6 -1 -1</clus>
<clus scale="   90.245">  7  8 -1 -1</clus>
<clus scale="   94.125">  5  9 -1 -1</clus>
<clus scale="  105.985">  1  7  2 -1</clus>
<clus scale="  196.584">  2  5  1 -1</clus>
</clustering>
</event>
<event>
 9    2  0.6085395E-005  0.3696219E+03  0.7546771E-02  0.1086750E+00
          4   -1    0    0  502    0 -0.00000000000E+00  0.00000000000E+00  0.26612087453E+03  0.26612087453E+03  0.00000000000E+00 0. -1.
         21   -1    0    0  501  502  0.00000000000E+00 -0.00000000000E+00 -0.38266124921E+03  0.38266124921E+03  0.00000000000E+00 0. -1.
         23    2    1    2    0    0  0.12242556712E+02 -0.12414006178E+03  0.13239415976E+03  0.20314914116E+03  0.90447359727E+02 0.  0.
         24    2    1    2    0    0  0.10264096435E+03 -0.41781282079E+02 -0.18066500366E+02  0.13899285978E+03  0.81925414480E+02 0.  0.
        -13    1    4    4    0    0  0.67973285118E+02  0.16537520617E+02 -0.82285548609E+01  0.70438385792E+02  0.00000000000E+00 0.  1.
         14    1    4    4    0    0  0.34667679237E+02 -0.58318802696E+02 -0.98379455052E+01  0.68554473985E+02  0.00000000000E+00 0. -1.
        -13    1    3    3    0    0 -0.23152824306E+02 -0.70066954956E+02  0.11427393503E+03  0.13602927508E+03  0.00000000000E+00 0. -1.
         13    1    3    3    0    0  0.35395381018E+02 -0.54073106820E+02  0.18120224731E+02  0.67119866082E+02  0.00000000000E+00 0.  1.
          3    1    1    2  501    0 -0.11488352107E+03  0.16592134386E+03 -0.23086803408E+03  0.30664012281E+03  0.00000000000E+00 0. -1.
<scales pt_clust_5="13000.00000" pt_clust_6="13000.00000" pt_clust_7="13000.00000" pt_clust_8="13000.00000" pt_clust_9="13000.00000"></scales>
<clustering>
<clus scale="   81.925">  5  6 -1 -1</clus>
<clus scale="   90.447">  7  8 -1 -1</clus>
<clus scale="  154.082">  1  7  2 -1</clus>
<clus scale="  161.507">  5  9 -1 -1</clus>
<clus scale="  369.622">  2  5  1 -1</clus>
</clustering>
</event>
<event>
 9    2  0.6085395E-005  0.1835896E+03  0.7546771E-02  0.1191378E+00
         -3   -1    0    0    0  501 -0.00000000000E+00  0.00000000000E+00  0.64612828022E+03  0.64612828022E+03  0.00000000000E+00 0.  1.
         21   -1    0    0  501  502  0.00000000000E+00 -0.00000000000E+00 -0.32745474913E+02  0.32745474913E+02  0.00000000000E+00 0.  1.
         23    2    1    2    0    0 -0.10998755379E+02 -0.38043978153E+02  0.14728729452E+03  0.17792450667E+03  0.91625684464E+02 0.  0.
         24    2    1    2    0    0  0.70670334759E+02  0.48118422927E+02  0.22951974857E+03  0.25675612183E+03  0.77037083771E+02 0.  0.
        -13    1    4    4    0    0  0.72724206026E+02  0.21855229033E+02  0.21181598179E+03  0.22501660232E+03  0.00000000000E+00 0.  1.
         14    1    4    4    0    0 -0.20538712676E+01  0.26263193894E+02  0.17703766778E+02  0.31739519512E+02  0.00000000000E+00 0. -1.
        -13    1    3    3    0    0 -0.28071498539E+02 -0.21267378198E+02  0.73781351856E+01  0.35982596967E+02  0.00000000000E+00 0.  1.
         13    1    3    3    0    0  0.17072743160E+02 -0.16776599955E+02  0.13990915933E+03  0.14194190970E+03  0.00000000000E+00 0. -1.
         -4    1    1    2    0  502 -0.59671579380E+02 -0.10074444774E+02  0.23657576223E+03  0.24419312664E+03  0.00000000000E+00 0.  1.
<scales pt_clust_5="13000.00000" pt_clust_6="13000.00000" pt_clust_7="13000.00000" pt_clust_8="13000.00000" pt_clust_9="13000.00000"></scales>
<clustering>
<clus scale="   77.037">  5  6 -1 -1</clus>
<clus scale="   60.516">  5  9 -1 -1</clus>
<clus scale="   91.626">  7  8 -1 -1</clus>
<clus scale="   99.818">  1  7  2 -1</clus>
<clus scale="  183.590">  2  5  1 -1</clus>
</clustering>
</event>
<event>
 9    2  0.6085395E-005  0.5246754E+03  0.7546771E-02  0.1063520E+00
          2   -1    0    0  502    0 -0.00000000000E+00  0.00000000000E+00  0.37660829829E+03  0.37660829829E+03  0.00000000000E+00 0. -1.
         21   -1    0    0  501  502  0.00000000000E+00 -0.00000000000E+00 -0.15084619614E+04  0.15084619614E+04  0.00000000000E+00 0. -1.
         23    2    1    2    0    0 -0.40826580488E+02  0.69555438516E+00  0.32299088970E+03  0.33850732262E+03  0.92718925624E+02 0.  0.
         24    2    1    2    0    0  0.27191746241E+03 -0.45224154688E+02 -0.84156686722E+03  0.88967990972E+03  0.85505667873E+02 0.  0.
        -11    1    4    4    0    0  0.41299532821E+02 -0.46966913636E+01 -0.54624565968E+02  0.68640757049E+02  0.00000000000E+00 0.  1.
         12    1    4    4    0    0  0.23061792959E+03 -0.40527463324E+02 -0.78694230125E+03  0.82103915267E+03  0.00000000000E+00 0. -1.
        -11    1    3    3    0    0 -0.26939241308E+01  0.39538221408E+02  0.20178865101E+03  0.20564335111E+03  0.00000000000E+00 0.  1.
         11    1    3    3    0    0 -0.38132656358E+02 -0.38842667023E+02  0.12120223870E+03  0.13286397152E+03  0.00000000000E+00 0. -1.
          1    1    1    2  501    0 -0.23109088193E+03  0.44528600303E+02 -0.61327768562E+03  0.65688302736E+03  0.00000000000E+00 0. -1.
<scales pt_clust_5="13000.00000" pt_clust_6="13000.00000" pt_clust_7="13000.00000" pt_clust_8="13000.00000" pt_clust_9="13000.00000"></scales>
<clustering>
<clus scale="   85.506">  5  6 -1 -1</clus>
<clus scale="   92.719">  7  8 -1 -1</clus>
<clus scale="  101.312">  1  7  2 -1</clus>
<clus scale="  254.486">  5  9 -1 -1</clus>
<clus scale="  524.675">  2  5  1 -1</clus>
</clustering>
</event>
<event>
 9    2  0.6085395E-005  0.2523834E+03  0.7546771E-02  0.1142153E+00
          2   -1    0    0  502    0 -0.00000000000E+00  0.00000000000E+00  0.73435087155E+03  0.73435087155E+03  0.00000000000E+00 0. -1.
         21   -1    0    0  501  502  0.00000000000E+00 -0.00000000000E+00 -0.53529349930E+02  0.53529349930E+02  0.00000000000E+00 0. -1.
         23    2    1    2    0    0 -0.75481893350E+02  0.16862432171E+02  0.36265535302E+03  0.38176802471E+03  0.90807828832E+02 0.  0.
         24    2    1    2    0    0 -0.30679227794E+02  0.58213138224E+02  0.21955780633E+03  0.24292477684E+03  0.80478769883E+02 0.  0.
        -13    1    4    4    0    0 -0.25203515297E+02 -0.42859259376E+00  0.14853379472E+03  0.15065752238E+03  0.00000000000E+00 0.  1.
         14    1    4    4    0    0 -0.54757124974E+01  0.58641730818E+02  0.71024011610E+02  0.92267254462E+02  0.00000000000E+00 0. -1.
        -13    1    3    3    0    0 -0.36240508143E+02 -0.24651654933E+02  0.63190546917E+02  0.76903340247E+02  0.00000000000E+00 0. -1.
         13    1    3    3    0    0 -0.39241385206E+02  0.41514087104E+02  0.29946480610E+03  0.30486468447E+03  0.00000000000E+00 0.  1.
          1    1    1    2  501    0  0.10616112114E+03 -0.75075570395E+02  0.98608362268E+02  0.16318741993E+03  0.00000000000E+00 0. -1.
<scales pt_clust_5="13000.00000" pt_clust_6="13000.00000" pt_clust_7="13000.00000" pt_clust_8="13000.00000" pt_clust_9="13000.00000"></scales>
<clustering>
<clus scale="   80.479">  5  6 -1 -1</clus>
<clus scale="   90.808">  7  8 -1 -1</clus>
<clus scale="  119.281">  1  7  2 -1</clus>
<clus scale="  104.786">  5  9 -1 -1</clus>
<clus scale="  252.383">  2  5  1 -1</clus>
</clustering>
</event>
<event>
 9    2  0.6085395E-005  0.3659618E+03  0.7546771E-02  0.1058397E+00
          2   -1    0    0  502    0 -0.00000000000E+00  0.00000000000E+00  0.53693713740E+03  0.53693713740E+03  0.00000000000E+00 0. -1.
         21   -1    0    0  501  502  0.00000000000E+00 -0.00000000000E+00 -0.40655759226E+03  0.40655759226E+03  0.00000000000E+00 0. -1.
         23    2    1    2    0    0 -0.30127320693E+03  0.14265370518E+03  0.37040440212E+03  0.50584191653E+03  0.86954002759E+02 0.  0.
         24    2    1    2    0    0  0.17873846120E+03 -0.14445068077E+03 -0.15831694341E+03  0.29036338319E+03  0.80207250553E+02 0.  0.
        -11    1    4    4    0    0  0.39035553467E+02 -0.43487177006E+02 -0.84770997358E+02  0.10296130823E+03  0.00000000000E+00 0.  1.
         12    1    4    4    0    0  0.13970290773E+03 -0.10096350376E+03 -0.73545946054E+02  0.18740207497E+03  0.00000000000E+00 0. -1.
        -13    1    3    3    0    0 -0.60675890715E+02  0.70080005372E+02  0.88049651487E+02  0.12784956783E+03  0.00000000000E+00 0.  1.
         13    1    3    3    0    0 -0.24059731621E+03  0.72573699811E+02  0.28235475064E+03  0.37799234871E+03  0.00000000000E+00 0. -1.
          1    1    1    2  501    0  0.12253474573E+03  0.17969755857E+01 -0.81707913568E+02  0.14728942994E+03  0.00000000000E+00 0. -1.
<scales pt_clust_5="13000.00000" pt_clust_6="13000.00000" pt_clust_7="13000.00000" pt_clust_8="13000.00000" pt_clust_9="13000.00000"></scales>
<clustering>
<clus scale="   80.207">  5  6 -1 -1</clus>
<clus scale="   86.954">  7  8 -1 -1</clus>
<clus scale="  122.548">  5  9 -1 -1</clus>
<clus scale="  344.495">  1  7  2 -1</clus>
<clus scale="  365.962">  2  5  1 -1</clus>
</clustering>
</event>
<event>
 9    2  0.6085395E-005  0.2997045E+03  0.7546771E-02  0.1105988E+00
         21   -1    0    0  501  502  0.00000000000E+00  0.00000000000E+00  0.62458183269E+02  0.62458183269E+02  0.00000000000E+00 0.  1.
          2   -1    0    0  502    0 -0.00000000000E+00 -0.00000000000E+00 -0.92564932235E+03  0.92564932235E+03  0.00000000000E+00 0. -1.
         23    2    1    2    0    0 -0.14973425308E+03 -0.42646765914E+01 -0.24383447880E+03  0.30004831647E+03  0.90195372102E+02 0.  0.
         24    2    1    2    0    0  0.75041383287E+02  0.10440679096E+03 -0.20373547146E+03  0.25406789839E+03  0.80686848095E+02 0.  0.
        -11    1    4    4    0    0  0.23316799880E+02  0.91650718879E+02 -0.10114486506E+03  0.13846953151E+03  0.00000000000E+00 0.  1.
         12    1    4    4    0    0  0.51724583407E+02  0.12756072078E+02 -0.10259060640E+03  0.11559836688E+03  0.00000000000E+00 0. -1.
        -13    1    3    3    0    0 -0.13270433300E+03  0.10852559019E+02 -0.24320632532E+03  0.27726798356E+03  0.00000000000E+00 0. -1.
         13    1    3    3    0    0 -0.17029920079E+02 -0.15117235610E+02 -0.62815348655E+00  0.22780332904E+02  0.00000000000E+00 0.  1.
          1    1    1    2  501    0  0.74692869793E+02 -0.10014211437E+03 -0.41562118882E+03  0.43399129077E+03  0.00000000000E+00 0. -1.
<scales pt_clust_5="13000.00000" pt_clust_6="13000.00000" pt_clust_7="13000.00000" pt_clust_8="13000.00000" pt_clust_9="13000.00000"></scales>
<clustering>
<clus scale="   80.687">  5  6 -1 -1</clus>
<clus scale="   90.195">  7  8 -1 -1</clus>
<clus scale="  124.930">  5  9 -1 -1</clus>
<clus scale="  174.854">  2  7  1 -1</clus>
<clus scale="  299.704">  1  5  2 -1</clus>
</clustering>
</event>
<event>
 9    2  0.6085395E-005  0.2021244E+03  0.7546771E-02  0.1155006E+00
         21   -1    0    0  501  502  0.00000000000E+00  0.00000000000E+00  0.17076539696E+03  0.17076539696E+03  0.00000000000E+00 0. -1.
          2   -1    0    0  502    0 -0.00000000000E+00 -0.00000000000E+00 -0.27140457772E+03  0.27140457772E+03  0.00000000000E+00 0. -1.
         23    2    1    2    0    0  0.94684622836E+02  0.10929096926E+03 -0.15711330119E+03  0.23230432376E+03  0.91493254728E+02 0.  0.
         24    2    1    2    0    0 -0.10529034157E+02 -0.61900493810E+02  0.12348815522E+02  0.10368155228E+03  0.81577198684E+02 0.  0.
        -13    1    4    4    0    0 -0.29005396045E+02 -0.55283747238E+02 -0.20248481025E+02  0.65632360099E+02  0.00000000000E+00 0.  1.
         14    1    4    4    0    0  0.18476361888E+02 -0.66167465722E+01  0.32597296546E+02  0.38049192185E+02  0.00000000000E+00 0. -1.
        -13    1    3    3    0    0  0.21063514898E+02  0.93399331321E+02 -0.85026472615E+02  0.12804923973E+03  0.00000000000E+00 0. -1.
         13    1    3    3    0    0  0.73621107938E+02  0.15891637944E+02 -0.72086828575E+02  0.10425508402E+03  0.00000000000E+00 0.  1.
          1    1    1    2  501    0 -0.84155588679E+02 -0.47390475455E+02  0.44125304912E+02  0.10618409864E+03  0.00000000000E+00 0. -1.
<scales pt_clust_5="13000.00000" pt_clust_6="13000.00000" pt_clust_7="13000.00000" pt_clust_8="13000.00000" pt_clust_9="13000.00000"></scales>
<clustering>
<clus scale="   81.577">  5  6 -1 -1</clus>
<clus scale="   91.493">  7  8 -1 -1</clus>
<clus scale="   96.582">  5  9 -1 -1</clus>
<clus scale="  171.116">  2  7  1 -1</clus>
<clus scale="  202.124">  1  5  2 -1</clus>
</clustering>
</event>
<event>
 9    2  0.6085395E-005  0.4570671E+03  0.7546771E-02  0.1076653E+00
          2   -1    0    0  502    0 -0.00000000000E+00  0.00000000000E+00  0.12517943754E+04  0.12517943754E+04  0.00000000000E+00 0. -1.
         21   -1    0    0  501  502  0.00000000000E+00 -0.00000000000E+00 -0.63614596769E+02  0.63614596769E+02  0.00000000000E+00 0. -1.
         23    2    1    2    0    0 -0.27125933403E+02  0.52468347007E+02  0.24643284271E+03  0.26860543893E+03  0.89056118003E+02 0.  0.
         24    2    1    2    0    0 -0.44728782901E+02 -0.10598105723E+03  0.94666566446E+03  0.95707670167E+03  0.81162085369E+02 0.  0.
        -13    1    4    4    0    0  0.20101522425E+02 -0.48514791141E+02  0.28938880352E+03  0.29411500432E+03  0.00000000000E+00 0.  1.
         14    1    4    4    0    0 -0.64830305326E+02 -0.57466266088E+02  0.65727686094E+03  0.66296169735E+03  0.00000000000E+00 0. -1.
        -11    1    3    3    0    0  0.33170470156E+01  0.65216590224E+02  0.20767205142E+03  0.21769677853E+03  0.00000000000E+00 0.  1.
         11    1    3    3    0    0 -0.30442980419E+02 -0.12748243217E+02  0.38760791293E+02  0.50908660399E+02  0.00000000000E+00 0. -1.
          1    1    1    2  501    0  0.71854716304E+02  0.53512710222E+02 -0.49187285557E+01  0.89726831556E+02  0.00000000000E+00 0. -1.
<scales pt_clust_5="13000.00000" pt_clust_6="13000.00000" pt_clust_7="13000.00000" pt_clust_8="13000.00000" pt_clust_9="13000.00000"></scales>
<clustering>
<clus scale="   81.162">  5  6 -1 -1</clus>
<clus scale="   89.056">  7  8 -1 -1</clus>
<clus scale="   89.592">  5  9 -1 -1</clus>
<clus scale="  106.863">  1  7  2 -1</clus>
<clus scale="  457.067">  2  5  1 -1</clus>
</clustering>
</event>
<event>
 9    2  0.6085395E-005  0.1534677E+03  0.7546771E-02  0.1218752E+00
         -1   -1    0    0    0  501 -0.00000000000E+00  0.00000000000E+00  0.18706231029E+03  0.18706231029E+03  0.00000000000E+00 0.  1.
         21   -1    0    0  501  502  0.00000000000E+00 -0.00000000000E+00 -0.26478882102E+03  0.26478882102E+03  0.00000000000E+00 0.  1.
         23    2    1    2    0    0 -0.14654099156E+02  0.13783406112E+02  0.14988555387E+03  0.17733413707E+03  0.92612051069E+02 0.  0.
         24    2    1    2    0    0 -0.45102467002E+02 -0.72555693360E+01 -0.15363802381E+03  0.17919848312E+03  0.80128510389E+02 0.  0.
        -11    1    4    4    0    0 -0.57889812818E+02 -0.21304408616E+02 -0.14640773884E+03  0.15887206881E+03  0.00000000000E+00 0.  1.
         12    1    4    4    0    0  0.12787345816E+02  0.14048839280E+02 -0.72302849664E+01  0.20326414313E+02  0.00000000000E+00 0. -1.
        -13    1    3    3    0    0 -0.31282667383E+02  0.47627673316E+02  0.93754856429E+02  0.10971314255E+03  0.00000000000E+00 0.  1.
         13    1    3    3    0    0  0.16628568227E+02 -0.33844267204E+02  0.56130697444E+02  0.67620994516E+02  0.00000000000E+00 0. -1.
         -2    1    1    2    0  502  0.59756566158E+02 -0.65278367758E+01 -0.73974040799E+02  0.95318511130E+02  0.00000000000E+00 0.  1.
<scales pt_clust_5="13000.00000" pt_clust_6="13000.00000" pt_clust_7="13000.00000" pt_clust_8="13000.00000" pt_clust_9="13000.00000"></scales>
<clustering>
<clus scale="   80.129">  5  6 -1 -1</clus>
<clus scale="   60.112">  5  9 -1 -1</clus>
<clus scale="   92.612">  7  8 -1 -1</clus>
<clus scale="   94.772">  1  7  2 -1</clus>
<clus scale="  153.468">  2  5  1 -1</clus>
</clustering>
</event>
<event>
 9    2  0.6085395E-005  0.5112242E+03  0.7546771E-02  0.1032476E+00
         21   -1    0    0  501  502  0.00000000000E+00  0.00000000000E+00  0.17578431696E+03  0.17578431696E+03  0.00000000000E+00 0.  1.
          2   -1    0    0  502    0 -0.00000000000E+00 -0.00000000000E+00 -0.95037458482E+03  0.95037458482E+03  0.00000000000E+00 0. -1.
         23    2    1    2    0    0 -0.68753286241E+02 -0.24146168437E+03 -0.11160128110E+03  0.28895849009E+03  0.89506444824E+02 0.  0.
         24    2    1    2    0    0  0.17161477769E+03 -0.47825963993E+02 -0.18877112406E+03  0.27226642330E+03  0.82191929191E+02 0.  0.
        -13    1    4    4    0    0  0.10919436538E+02 -0.32216679846E+02 -0.42239280123E+02  0.54233802558E+02  0.00000000000E+00 0.  1.
         14    1    4    4    0    0  0.16069534116E+03 -0.15609284147E+02 -0.14653184394E+03  0.21803262074E+03  0.00000000000E+00 0. -1.
        -13    1    3    3    0    0 -0.48565309975E+02 -0.64010986579E+02 -0.39897888901E+01  0.80448207881E+02  0.00000000000E+00 0.  1.
         13    1    3    3    0    0 -0.20187976266E+02 -0.17745069779E+03 -0.10761149221E+03  0.20851028221E+03  0.00000000000E+00 0. -1.
          1    1    1    2  501    0 -0.10286149145E+03  0.28928764836E+03 -0.47421786271E+03  0.56493398838E+03  0.00000000000E+00 0. -1.
<scales pt_clust_5="13000.00000" pt_clust_6="13000.00000" pt_clust_7="13000.00000" pt_clust_8="13000.00000" pt_clust_9="13000.00000"></scales>
<clustering>
<clus scale="   82.192">  5  6 -1 -1</clus>
<clus scale="   89.506">  7  8 -1 -1</clus>
<clus scale="  266.537">  2  7  1 -1</clus>
<clus scale="  193.747">  5  9 -1 -1</clus>
<clus scale="  511.224">  1  5  2 -1</clus>
</clustering>
</event>
<event>
 9    2  0.6085395E-005  0.1608866E+03  0.7546771E-02  0.1207082E+00
         21   -1    0    0  501  502  0.00000000000E+00  0.00000000000E+00  0.12320580975E+03  0.12320580975E+03  0.00000000000E+00 0.  1.
         -1   -1    0    0    0  501 -0.00000000000E+00 -0.00000000000E+00 -0.14841241406E+03  0.14841241406E+03  0.00000000000E+00 0.  1.
         23    2    1    2    0    0  0.48466302216E+02  0.22333011756E+02 -0.33260539064E+02  0.11053017218E+03  0.90900548067E+02 0.  0.
         24    2    1    2    0    0 -0.32062948846E+02  0.21653278832E+02  0.47271182358E+02  0.99917337464E+02  0.79069668467E+02 0.  0.
        -11    1    4    4    0    0 -0.42667662939E+02  0.13008006546E+02  0.64184626409E+02  0.78162676273E+02  0.00000000000E+00 0.  1.
         12    1    4    4    0    0  0.10604714093E+02  0.86452722857E+01 -0.16913444050E+02  0.21754661191E+02  0.00000000000E+00 0. -1.
        -11    1    3    3    0    0  0.19493568871E+02  0.55831400168E+02 -0.29486243851E+02  0.66080125972E+02  0.00000000000E+00 0.  1.
         11    1    3    3    0    0  0.28972733345E+02 -0.33498388411E+02 -0.37742952134E+01  0.44450046209E+02  0.00000000000E+00 0. -1.
         -2    1    1    2    0  502 -0.16403353369E+02 -0.43986290588E+02 -0.39217247611E+02  0.61170714166E+02  0.00000000000E+00 0.  1.
<scales pt_clust_5="13000.00000" pt_clust_6="13000.00000" pt_clust_7="13000.00000" pt_clust_8="13000.00000" pt_clust_9="13000.00000"></scales>
<clustering>
<clus scale="   79.070">  5  6 -1 -1</clus>
<clus scale="   46.945">  5  9 -1 -1</clus>
<clus scale="   90.901">  7  8 -1 -1</clus>
<clus scale="  105.407">  2  7  1 -1</clus>
<clus scale="  160.887">  1  5  2 -1</clus>
</clustering>
</event>
<event>
 9    2  0.6085395E-005  0.2930534E+03  0.7546771E-02  0.1123503E+00
         21   -1    0    0  501  502  0.00000000000E+00  0.00000000000E+00  0.68407392544E+03  0.68407392544E+03  0.00000000000E+00 0.  1.
         -3   -1    0    0    0  501 -0.00000000000E+00 -0.00000000000E+00 -0.65407331646E+02  0.65407331646E+02  0.00000000000E+00 0.  1.
         23    2    1    2    0    0 -0.67604830209E+02  0.40296170488E+02  0.25912633161E+03  0.28563914868E+03  0.90824408077E+02 0.  0.
         24    2    1    2    0    0 -0.77332499956E+02  0.47266490639E+02  0.17069375155E+03  0.21019460915E+03  0.82649744174E+02 0.  0.
        -11    1    4    4    0    0 -0.43855757019E+02  0.68397382854E+02  0.13087900243E+03  0.15404818299E+03  0.00000000000E+00 0.  1.
         12    1    4    4    0    0 -0.33476742937E+02 -0.21130892215E+02  0.39814749112E+02  0.56146426158E+02  0.00000000000E+00 0. -1.
        -11    1    3    3    0    0 -0.14844806212E+02  0.58723080281E+02  0.16971043006E+03  0.18019544528E+03  0.00000000000E+00 0. -1.
         11    1    3    3    0    0 -0.52760023997E+02 -0.18426909793E+02  0.89415901550E+02  0.10544370340E+03  0.00000000000E+00 0.  1.
         -4    1    1    2    0  502  0.14493733016E+03 -0.87562661127E+02  0.18884651065E+03  0.25364749926E+03  0.00000000000E+00 0.  1.
<scales pt_clust_5="13000.00000" pt_clust_6="13000.00000" pt_clust_7="13000.00000" pt_clust_8="13000.00000" pt_clust_9="13000.00000"></scales>
<clustering>
<clus scale="   82.650">  5  6 -1 -1</clus>
<clus scale="   90.824">  7  8 -1 -1</clus>
<clus scale="  120.180">  2  7  1 -1</clus>
<clus scale="  120.438">  5  9 -1 -1</clus>
<clus scale="  293.053">  1  5  2 -1</clus>
</clustering>
</event>
<event>
 9    2  0.8174223E-005  0.4330017E+03  0.7546771E-02  0.1082076E+00
         21   -1    0    0  501  502  0.00000000000E+00  0.00000000000E+00  0.29642243017E+03  0.29642243017E+03  0.00000000000E+00 0. -1.
         -1   -1    0    0    0  501 -0.00000000000E+00 -0.00000000000E+00 -0.33693703896E+03  0.33693703896E+03  0.00000000000E+00 0.  1.
         23    2    1    2    0    0 -0.54332904687E+02  0.93468485415E+01  0.12876862410E+03  0.16844299501E+03  0.93553492205E+02 0.  0.
         24    2    1    2    0    0 -0.69770710418E+02  0.54892575774E+01  0.11308725744E+03  0.15612056882E+03  0.81772979851E+02 0.  0.
        -13    1    4    4    0    0 -0.35877874838E+02 -0.37898583078E+02  0.61671718357E+02  0.80789388828E+02  0.00000000000E+00 0.  1.
         14    1    4    4    0    0 -0.33892835580E+02  0.43387840655E+02  0.51415539082E+02  0.75331179995E+02  0.00000000000E+00 0. -1.
        -11    1    3    3    0    0 -0.41553454983E+02 -0.30202233719E+02  0.11274918041E+03  0.12390013005E+03  0.00000000000E+00 0. -1.
         11    1    3    3    0    0 -0.12779449704E+02  0.39549082261E+02  0.16019443691E+02  0.44542864957E+02  0.00000000000E+00 0.  1.
         -2    1    1    2    0  502  0.12410361510E+03 -0.14836106119E+02 -0.28237049032E+03  0.30879590530E+03  0.00000000000E+00 0.  1.
<scales pt_clust_5="13000.00000" pt_clust_6="13000.00000" pt_clust_7="13000.00000" pt_clust_8="13000.00000" pt_clust_9="13000.00000"></scales>
<clustering>
<clus scale="   81.773">  5  6 -1 -1</clus>
<clus scale="   93.553">  7  8 -1 -1</clus>
<clus scale="  108.590">  2  7  1 -1</clus>
<clus scale="   73.712">  5  9 -1 -1</clus>
<clus scale="  433.002">  1  5  2 -1</clus>
</clustering>
</event>
<event>
 9    2  0.6085395E-005  0.2380912E+03  0.7546771E-02  0.1137340E+00
         -1   -1    0    0    0  501 -0.00000000000E+00  0.00000000000E+00  0.15134609801E+03  0.15134609801E+03  0.00000000000E+00 0.  1.
         21   -1    0    0  501  502  0.00000000000E+00 -0.00000000000E+00 -0.28093790898E+03  0.28093790898E+03  0.00000000000E+00 0. -1.
         23    2    1    2    0    0 -0.63817915038E+02 -0.11537913464E+03 -0.10911923412E+03  0.19331423856E+03  0.89879455849E+02 0.  0.
         24    2    1    2    0    0  0.54586223675E+02 -0.20628076027E+02 -0.22009252768E+02  0.10264094958E+03  0.81520451341E+02 0.  0.
        -11    1    4    4    0    0  0.35463677534E+02  0.94307326163E+01 -0.46628146110E+02  0.59336288657E+02  0.00000000000E+00 0.  1.
         12    1    4    4    0    0  0.19122546141E+02 -0.30058808643E+02  0.24618893342E+02  0.43304660919E+02  0.00000000000E+00 0. -1.
        -11    1    3    3    0    0 -0.95143811494E+01 -0.46911749935E+02  0.65845436959E+01  0.48317615280E+02  0.00000000000E+00 0.  1.
         11    1    3    3    0    0 -0.54303533888E+02 -0.68467384708E+02 -0.11570377781E+03  0.14499662328E+03  0.00000000000E+00 0. -1.
         -2    1    1    2    0  502  0.92316913625E+01  0.13600721067E+03  0.15366759109E+01  0.13632881886E+03  0.00000000000E+00 0.  1.
<scales pt_clust_5="13000.00000" pt_clust_6="13000.00000" pt_clust_7="13000.00000" pt_clust_8="13000.00000" pt_clust_9="13000.00000"></scales>
<clustering>
<clus scale="   81.520">  5  6 -1 -1</clus>
<clus scale="   89.879">  7  8 -1 -1</clus>
<clus scale="  136.320">  5  9 -1 -1</clus>
<clus scale="  159.573">  1  7  2 -1</clus>
<clus scale="  238.091">  2  5  1 -1</clus>
</clustering>
</event>
<event>
 9    2  0.6085395E-005  0.3106648E+03  0.7546771E-02  0.1104339E+00
         21   -1    0    0  501  502  0.00000000000E+00  0.00000000000E+00  0.24409130098E+03  0.24409130098E+03  0.00000000000E+00 0.  1.
         -1   -1    0    0    0  501 -0.00000000000E+00 -0.00000000000E+00 -0.48645078115E+03  0.48645078115E+03  0.00000000000E+00 0.  1.
         23    2    1    2    0    0 -0.13144164987E+03 -0.30483993030E+02 -0.36224151502E+03  0.39754913512E+03  0.92845131693E+02 0.  0.
         24    2    1    2    0    0 -0.35360434004E+02  0.28338601498E+01 -0.34557064289E+02  0.10399753139E+03  0.91448919001E+02 0.  0.
        -11    1    4    4    0    0 -0.14423268775E+02 -0.37264100928E+02  0.92634900456E+01  0.41017754058E+02  0.00000000000E+00 0.  1.
         12    1    4    4    0    0 -0.20937165230E+02  0.40097961078E+02 -0.43820554335E+02  0.62979777331E+02  0.00000000000E+00 0. -1.
        -13    1    3    3    0    0 -0.23217056623E+02  0.18471615244E+02 -0.21339881223E+02  0.36546173788E+02  0.00000000000E+00 0. -1.
         13    1    3    3    0    0 -0.10822459325E+03 -0.48955608273E+02 -0.34090163379E+03  0.36100296133E+03  0.00000000000E+00 0.  1.
         -2    1    1    2    0  502  0.16680208388E+03  0.27650132880E+02  0.15443909914E+03  0.22899541563E+03  0.00000000000E+00 0.  1.
<scales pt_clust_5="13000.00000" pt_clust_6="13000.00000" pt_clust_7="13000.00000" pt_clust_8="13000.00000" pt_clust_9="13000.00000"></scales>
<clustering>
<clus scale="   91.449">  5  6 -1 -1</clus>
<clus scale="   92.845">  7  8 -1 -1</clus>
<clus scale="  163.788">  2  7  1 -1</clus>
<clus scale="  122.006">  5  9 -1 -1</clus>
<clus scale="  310.665">  1  5  2 -1</clus>
</clustering>
</event>
<event>
 9    2  0.6085395E-005  0.1195633E+03  0.7546771E-02  0.1251010E+00
         -3   -1    0    0    0  501 -0.00000000000E+00  0.00000000000E+00  0.67539679928E+03  0.67539679928E+03  0.00000000000E+00 0.  1.
         21   -1    0    0  501  502  0.00000000000E+00 -0.00000000000E+00 -0.19492718772E+02  0.19492718772E+02  0.00000000000E+00 0.  1.
         23    2    1    2    0    0  0.37278129822E+02  0.31646502662E+02  0.22425274583E+03  0.24698521392E+03  0.91220840772E+02 0.  0.
         24    2    1    2    0    0 -0.12484633863E+02 -0.24567675492E+02  0.24441667952E+03  0.25890260220E+03  0.80818360792E+02 0.  0.
        -13    1    4    4    0    0 -0.88365907844E+01 -0.24983778981E+02  0.17061468962E+02  0.31517745351E+02  0.00000000000E+00 0.  1.
         14    1    4    4    0    0 -0.36480430786E+01  0.41610348940E+00  0.22735521055E+03  0.22738485685E+03  0.00000000000E+00 0. -1.
        -11    1    3    3    0    0  0.70074488535E+01 -0.32139901831E+02  0.71808140158E+02  0.78984090943E+02  0.00000000000E+00 0. -1.
         11    1    3    3    0    0  0.30270680969E+02  0.63786404494E+02  0.15244460567E+03  0.16800112298E+03  0.00000000000E+00 0.  1.
         -4    1    1    2    0  502 -0.24793495959E+02 -0.70788271704E+01  0.18723465517E+03  0.18900170193E+03  0.00000000000E+00 0.  1.
<scales pt_clust_5="13000.00000" pt_clust_6="13000.00000" pt_clust_7="13000.00000" pt_clust_8="13000.00000" pt_clust_9="13000.00000"></scales>
<clustering>
<clus scale="   80.818">  5  6 -1 -1</clus>
<clus scale="   25.784">  5  9 -1 -1</clus>
<clus scale="   91.221">  7  8 -1 -1</clus>
<clus scale="  103.501">  1  7  2 -1</clus>
<clus scale="  119.563">  2  5  1 -1</clus>
</clustering>
</event>
<event>
 9    2  0.6085395E-005  0.2627570E+03  0.7546771E-02  0.1138471E+00
          4   -1    0    0  502    0 -0.00000000000E+00  0.00000000000E+00  0.19322341067E+03  0.19322341067E+03  0.00000000000E+00 0. -1.
         21   -1    0    0  501  502  0.00000000000E+00 -0.00000000000E+00 -0.18707048429E+03  0.18707048429E+03  0.00000000000E+00 0. -1.
         23    2    1    2    0    0  0.35104666365E+02 -0.57672267822E+02  0.19725869213E+02  0.11718654628E+03  0.93729123739E+02 0.  0.
         24    2    1    2    0    0 -0.24471750363E+02 -0.31260031502E+02  0.89766017154E+02  0.12635591938E+03  0.79572761613E+02 0.  0.
        -11    1    4    4    0    0  0.29131551643E+02 -0.10590358875E+02  0.37855585146E+02  0.48926969342E+02  0.00000000000E+00 0.  1.
         12    1    4    4    0    0 -0.53603302005E+02 -0.20669672627E+02  0.51910432008E+02  0.77428950036E+02  0.00000000000E+00 0. -1.
        -13    1    3    3    0    0 -0.26649813408E+02 -0.38036493111E+02  0.23936415163E+02  0.52248821362E+02  0.00000000000E+00 0.  1.
         13    1    3    3    0    0  0.61754479773E+02 -0.19635774711E+02 -0.42105459503E+01  0.64937724920E+02  0.00000000000E+00 0. -1.
          3    1    1    2  501    0 -0.10632916003E+02  0.88932299324E+02 -0.10333895999E+03  0.13675142931E+03  0.00000000000E+00 0. -1.
<scales pt_clust_5="13000.00000" pt_clust_6="13000.00000" pt_clust_7="13000.00000" pt_clust_8="13000.00000" pt_clust_9="13000.00000"></scales>
<clustering>
<clus scale="   79.573">  5  6 -1 -1</clus>
<clus scale="   89.566">  5  9 -1 -1</clus>
<clus scale="   93.729">  7  8 -1 -1</clus>
<clus scale="  115.514">  1  7  2 -1</clus>
<clus scale="  262.757">  2  5  1 -1</clus>
</clustering>
</event>
<event>
 9    2  0.6085395E-005  0.4835508E+03  0.7546771E-02  0.1058204E+00
         21   -1    0    0  501  502  0.00000000000E+00  0.00000000000E+00  0.82991978076E+02  0.82991978076E+02  0.00000000000E+00 0.  1.
         -3   -1    0    0    0  501 -0.00000000000E+00 -0.00000000000E+00 -0.12145248109E+04  0.12145248109E+04  0.00000000000E+00 0.  1.
         23    2    1    2    0    0  0.68472245542E+02  0.95808127907E+02 -0.30420006016E+03  0.33923663277E+03  0.93145964097E+02 0.  0.
         24    2    1    2    0    0 -0.16899604077E+03  0.12476205384E+03 -0.27458442251E+03  0.35471824797E+03  0.79392685340E+02 0.  0.
        -13    1    4    4    0    0 -0.14959145291E+03  0.70387369991E+02 -0.18463319375E+03  0.24783341355E+03  0.00000000000E+00 0.  1.
         14    1    4    4    0    0 -0.19404587856E+02  0.54374683850E+02 -0.89951228763E+02  0.10688483442E+03  0.00000000000E+00 0. -1.
        -13    1    3    3    0    0  0.12867787729E+02  0.77609580257E+02 -0.10242215829E+03  0.12914768840E+03  0.00000000000E+00 0.  1.
         13    1    3    3    0    0  0.55604457813E+02  0.18198547651E+02 -0.20177790187E+03  0.21008894437E+03  0.00000000000E+00 0. -1.
         -4    1    1    2    0  502  0.10052379522E+03 -0.22057018175E+03 -0.55274835018E+03  0.60356190827E+03  0.00000000000E+00 0.  1.
<scales pt_clust_5="13000.00000" pt_clust_6="13000.00000" pt_clust_7="13000.00000" pt_clust_8="13000.00000" pt_clust_9="13000.00000"></scales>
<clustering>
<clus scale="   79.393">  5  6 -1 -1</clus>
<clus scale="   93.146">  7  8 -1 -1</clus>
<clus scale="  150.146">  2  7  1 -1</clus>
<clus scale="  214.748">  5  9 -1 -1</clus>
<clus scale="  483.551">  1  5  2 -1</clus>
</clustering>
</event>
<event>
 9    2  0.6085395E-005  0.4424876E+03  0.7546771E-02  0.1071932E+00
         21   -1    0    0  501  502  0.00000000000E+00  0.00000000000E+00  0.24855442778E+03  0.24855442778E+03  0.00000000000E+00 0. -1.
          2   -1    0    0  502    0 -0.00000000000E+00 -0.00000000000E+00 -0.33685689935E+03  0.33685689935E+03  0.00000000000E+00 0. -1.
         23    2    1    2    0    0  0.65119462602E+02  0.74692039767E+02  0.12985781279E+01  0.13394301178E+03  0.90108816916E+02 0.  0.
         24    2    1    2    0    0  0.48208966723E+02 -0.22117509747E+03  0.11893055397E+02  0.24027723491E+03  0.79681720828E+02 0.  0.
        -13    1    4    4    0    0  0.15670636710E+02 -0.25314866491E+02  0.28272862231E+02  0.41058081532E+02  0.00000000000E+00 0.  1.
         14    1    4    4    0    0  0.32538330014E+02 -0.19586023098E+03 -0.16379806834E+02  0.19921915338E+03  0.00000000000E+00 0. -1.
        -13    1    3    3    0    0 -0.87781856689E+01  0.56425299250E+02 -0.62632605635E+01  0.57446491381E+02  0.00000000000E+00 0.  1.
         13    1    3    3    0    0  0.73897648271E+02  0.18266740517E+02  0.75618386914E+01  0.76496520402E+02  0.00000000000E+00 0. -1.
          1    1    1    2  501    0 -0.11332842933E+03  0.14648305770E+03 -0.10149410509E+03  0.21119108044E+03  0.00000000000E+00 0. -1.
<scales pt_clust_5="13000.00000" pt_clust_6="13000.00000" pt_clust_7="13000.00000" pt_clust_8="13000.00000" pt_clust_9="13000.00000"></scales>
<clustering>
<clus scale="   79.682">  5  6 -1 -1</clus>
<clus scale="   90.109">  7  8 -1 -1</clus>
<clus scale="  133.937">  2  7  1 -1</clus>
<clus scale="  204.196">  5  9 -1 -1</clus>
<clus scale="  442.488">  1  5  2 -1</clus>
</clustering>
</event>
<event>
 9    2  0.6085395E-005  0.3539562E+03  0.7546771E-02  0.1063732E+00
         -1   -1    0    0    0  501 -0.00000000000E+00  0.00000000000E+00  0.10255390502E+04  0.10255390502E+04  0.00000000000E+00 0.  1.
         21   -1    0    0  501  502  0.00000000000E+00 -0.00000000000E+00 -0.11349822331E+03  0.11349822331E+03  0.00000000000E+00 0.  1.
         23    2    1    2    0    0  0.20882947669E+03  0.23611018809E+03  0.45675951017E+03  0.56235186906E+03  0.90843839948E+02 0.  0.
         24    2    1    2    0    0 -0.22231599822E+03 -0.18809507620E+03  0.38751287331E+03  0.49254326783E+03  0.87341186987E+02 0.  0.
        -13    1    4    4    0    0 -0.22545302774E+03 -0.17420294054E+03  0.38348821707E+03  0.47774359738E+03  0.00000000000E+00 0.  1.
         14    1    4    4    0    0  0.31370295162E+01 -0.13892135666E+02  0.40246562457E+01  0.14799670450E+02  0.00000000000E+00 0. -1.
        -13    1    3    3    0    0  0.18643679279E+03  0.15241367726E+03  0.32061709123E+03  0.40097871005E+03  0.00000000000E+00 0.  1.
         13    1    3    3    0    0  0.22392683901E+02  0.83696510822E+02  0.13614241894E+03  0.16137315901E+03  0.00000000000E+00 0. -1.
         -2    1    1    2    0  502  0.13486521531E+02 -0.48015111882E+02  0.67768443396E+02  0.84142136604E+02  0.00000000000E+00 0.  1.
<scales pt_clust_5="13000.00000" pt_clust_6="13000.00000" pt_clust_7="13000.00000" pt_clust_8="13000.00000" pt_clust_9="13000.00000"></scales>
<clustering>
<clus scale="   87.341">  5  6 -1 -1</clus>
<clus scale="   49.873">  5  9 -1 -1</clus>
<clus scale="   90.844">  7  8 -1 -1</clus>
<clus scale="  328.040">  1  7  2 -1</clus>
<clus scale="  353.956">  2  5  1 -1</clus>
</clustering>
</event>
<event>
 9    2  0.6085395E-005  0.6245043E+03  0.7546771E-02  0.1028090E+00
         21   -1    0    0  501  502  0.00000000000E+00  0.00000000000E+00  0.56244730109E+03  0.56244730109E+03  0.00000000000E+00 0.  1.
          4   -1    0    0  502    0 -0.00000000000E+00 -0.00000000000E+00 -0.27998960744E+03  0.27998960744E+03  0.00000000000E+00 0. -1.
         23    2    1    2    0    0 -0.13662425068E+03 -0.29376638040E+02  0.31956557575E+02  0.16956512350E+03  0.90564544940E+02 0.  0.
         24    2    1    2    0    0 -0.23623058026E+03 -0.15171441509E+02  0.91171044478E+02  0.26496084569E+03  0.76531240082E+02 0.  0.
        -13    1    4    4    0    0 -0.16299256343E+03  0.15311651475E+02  0.87312673805E+02  0.18553847420E+03  0.00000000000E+00 0.  1.
         14    1    4    4    0    0 -0.73238016832E+02 -0.30483092984E+02  0.38583706727E+01  0.79422371481E+02  0.00000000000E+00 0. -1.
        -13    1    3    3    0    0  0.16198901188E+01 -0.26382423896E+02  0.14620091198E+02  0.30206015978E+02  0.00000000000E+00 0.  1.
         13    1    3    3    0    0 -0.13824414080E+03 -0.29942141442E+01  0.17336466376E+02  0.13935910753E+03  0.00000000000E+00 0. -1.
          3    1    1    2  501    0  0.37285483094E+03  0.44548079550E+02  0.15933009159E+03  0.40791093934E+03  0.00000000000E+00 0. -1.
<scales pt_clust_5="13000.00000" pt_clust_6="13000.00000" pt_clust_7="13000.00000" pt_clust_8="13000.00000" pt_clust_9="13000.00000"></scales>
<clustering>
<clus scale="   76.531">  5  6 -1 -1</clus>
<clus scale="   90.565">  7  8 -1 -1</clus>
<clus scale="  166.527">  2  7  1 -1</clus>
<clus scale="  293.714">  5  9 -1 -1</clus>
<clus scale="  624.504">  1  5  2 -1</clus>
</clustering>
</event>
<event>
 9    2  0.6085395E-005  0.3158301E+03  0.7546771E-02  0.1107545E+00
         21   -1    0    0  501  502  0.00000000000E+00  0.00000000000E+00  0.38472893977E+02  0.38472893977E+02  0.00000000000E+00 0. -1.
          2   -1    0    0  502    0 -0.00000000000E+00 -0.00000000000E+00 -0.14171741322E+04  0.14171741322E+04  0.00000000000E+00 0. -1.
         23    2    1    2    0    0  0.75889956297E+02  0.79934324875E+02 -0.31766218142E+03  0.34860027066E+03  0.92000573033E+02 0.  0.
         24    2    1    2    0    0  0.86787824197E+02 -0.69860450515E+02 -0.31188433795E+03  0.34036668144E+03  0.78517696099E+02 0.  0.
        -13    1    4    4    0    0  0.61604117041E+01 -0.52421617528E+02 -0.14254479496E+03  0.15200327373E+03  0.00000000000E+00 0.  1.
         14    1    4    4    0    0  0.80627412493E+02 -0.17438832987E+02 -0.16933954300E+03  0.18836340771E+03  0.00000000000E+00 0. -1.
        -11    1    3    3    0    0  0.49690436227E+02  0.98763628510E+02 -0.23009678756E+03  0.25528009209E+03  0.00000000000E+00 0.  1.
         11    1    3    3    0    0  0.26199520070E+02 -0.18829303635E+02 -0.87565393857E+02  0.93320178571E+02  0.00000000000E+00 0. -1.
          1    1    1    2  501    0 -0.16267778049E+03 -0.10073874360E+02 -0.74915471890E+03  0.76668007413E+03  0.00000000000E+00 0. -1.
<scales pt_clust_5="13000.00000" pt_clust_6="13000.00000" pt_clust_7="13000.00000" pt_clust_8="13000.00000" pt_clust_9="13000.00000"></scales>
<clustering>
<clus scale="   78.518">  5  6 -1 -1</clus>
<clus scale="   92.001">  7  8 -1 -1</clus>
<clus scale="  143.572">  2  7  1 -1</clus>
<clus scale="  118.807">  5  9 -1 -1</clus>
<clus scale="  315.830">  1  5  2 -1</clus>
</clustering>
</event>
<event>
 9    2  0.6085395E-005  0.2297164E+03  0.7546771E-02  0.1134649E+00
          2   -1    0    0  502    0 -0.00000000000E+00  0.00000000000E+00  0.48685536949E+03  0.48685536949E+03  0.00000000000E+00 0. -1.
         21   -1    0    0  501  502  0.00000000000E+00 -0.00000000000E+00 -0.18208416000E+03  0.18208416000E+03  0.00000000000E+00 0. -1.
         23    2    1    2    0    0  0.16171718768E+03 -0.30792776045E+02  0.38207520254E+03  0.42656477546E+03  0.94209359496E+02 0.  0.
         24    2    1    2    0    0 -0.59332097862E+02  0.39883223264E+02  0.83327854516E+01  0.10858760712E+03  0.81307218451E+02 0.  0.
        -11    1    4    4    0    0 -0.58210818479E+02  0.11808009481E+02  0.35753710655E+02  0.69327168567E+02  0.00000000000E+00 0.  1.
         12    1    4    4    0    0 -0.11212793824E+01  0.28075213784E+02 -0.27420925203E+02  0.39260438554E+02  0.00000000000E+00 0. -1.
        -11    1    3    3    0    0  0.14837073115E+03  0.73849298366E+01  0.28475844036E+03  0.32117873592E+03  0.00000000000E+00 0. -1.
         11    1    3    3    0    0  0.13346456532E+02 -0.38177705881E+02  0.97316762177E+02  0.10538603953E+03  0.00000000000E+00 0.  1.
          1    1    1    2  501    0 -0.10238508982E+03 -0.90904472195E+01 -0.85636778499E+02  0.13378714691E+03  0.00000000000E+00 0. -1.
<scales pt_clust_5="13000.00000" pt_clust_6="13000.00000" pt_clust_7="13000.00000" pt_clust_8="13000.00000" pt_clust_9="13000.00000"></scales>
<clustering>
<clus scale="   81.307">  5  6 -1 -1</clus>
<clus scale="   94.209">  7  8 -1 -1</clus>
<clus scale="  102.788">  5  9 -1 -1</clus>
<clus scale="  189.674">  1  7  2 -1</clus>
<clus scale="  229.716">  2  5  1 -1</clus>
</clustering>
</event>
<event>
 9    2  0.6085395E-005  0.2071044E+03  0.7546771E-02  0.1159608E+00
         21   -1    0    0  501  502  0.00000000000E+00  0.00000000000E+00  0.22655684454E+03  0.22655684454E+03  0.00000000000E+00 0. -1.
          2   -1    0    0  502    0 -0.00000000000E+00 -0.00000000000E+00 -0.64092609659E+03  0.64092609659E+03  0.00000000000E+00 0. -1.
         23    2    1    2    0    0 -0.32950261624E+02  0.10502395858E+03 -0.58310412701E+03  0.60034314602E+03  0.91025921693E+02 0.  0.
         24    2    1    2    0    0  0.40780814605E+02 -0.75600081793E+02  0.25142988718E+02  0.12035521868E+03  0.80465903184E+02 0.  0.
        -11    1    4    4    0    0  0.84729118005E+01 -0.76566045991E+02  0.37594413602E+02  0.85717498605E+02  0.00000000000E+00 0.  1.
         12    1    4    4    0    0  0.32307902804E+02  0.96596419786E+00 -0.12451424884E+02  0.34637720076E+02  0.00000000000E+00 0. -1.
        -11    1    3    3    0    0  0.15386807128E+02  0.82778397040E+02 -0.43240308004E+03  0.44052405210E+03  0.00000000000E+00 0.  1.
         11    1    3    3    0    0 -0.48337068752E+02  0.22245561544E+02 -0.15070104697E+03  0.15981909392E+03  0.00000000000E+00 0. -1.
          1    1    1    2  501    0 -0.78305529810E+01 -0.29423876791E+02  0.14359188623E+03  0.14678457643E+03  0.00000000000E+00 0. -1.
<scales pt_clust_5="13000.00000" pt_clust_6="13000.00000" pt_clust_7="13000.00000" pt_clust_8="13000.00000" pt_clust_9="13000.00000"></scales>
<clustering>
<clus scale="   80.466">  5  6 -1 -1</clus>
<clus scale="   30.448">  5  9 -1 -1</clus>
<clus scale="   91.026">  7  8 -1 -1</clus>
<clus scale="  142.834">  2  7  1 -1</clus>
<clus scale="  207.104">  1  5  2 -1</clus>
</clustering>
</event>
<event>
 9    2  0.6085395E-005  0.4477523E+03  0.7546771E-02  0.1070201E+00
         21   -1    0    0  501  502  0.00000000000E+00  0.00000000000E+00  0.77251794840E+02  0.77251794840E+02  0.00000000000E+00 0. -1.
          2   -1    0    0  502    0 -0.00000000000E+00 -0.00000000000E+00 -0.11152535227E+04  0.11152535227E+04  0.00000000000E+00 0. -1.
         23    2    1    2    0    0  0.56607714950E+02  0.71401381878E+02 -0.18778531939E+03  0.23159427120E+03  0.10034933754E+03 0.  0.
         24    2    1    2    0    0  0.16582456182E+03  0.45812928211E+02 -0.44778120415E+03  0.48639086140E+03  0.80445345249E+02 0.  0.
        -11    1    4    4    0    0  0.41244142723E+02 -0.18750439264E+02 -0.69894931177E+02  0.83294415694E+02  0.00000000000E+00 0.  1.
         12    1    4    4    0    0  0.12458041910E+03  0.64563367476E+02 -0.37788627297E+03  0.40309644571E+03  0.00000000000E+00 0. -1.
        -13    1    3    3    0    0  0.28800421164E+02  0.53010984236E+02 -0.24789328585E+02  0.65223764998E+02  0.00000000000E+00 0. -1.
         13    1    3    3    0    0  0.27807293787E+02  0.18390397642E+02 -0.16299599081E+03  0.16637050620E+03  0.00000000000E+00 0.  1.
          1    1    1    2  501    0 -0.22243227677E+03 -0.11721431009E+03 -0.40243520432E+03  0.47452018494E+03  0.00000000000E+00 0. -1.
<scales pt_clust_5="13000.00000" pt_clust_6="13000.00000" pt_clust_7="13000.00000" pt_clust_8="13000.00000" pt_clust_9="13000.00000"></scales>
<clustering>
<clus scale="   80.445">  5  6 -1 -1</clus>
<clus scale="  100.349">  7  8 -1 -1</clus>
<clus scale="  135.546">  2  7  1 -1</clus>
<clus scale="  211.810">  5  9 -1 -1</clus>
<clus scale="  447.752">  1  5  2 -1</clus>
</clustering>
</event>
<event>
 9    2  0.6085395E-005  0.2460956E+03  0.7546771E-02  0.1141612E+00
         21   -1    0    0  501  502  0.00000000000E+00  0.00000000000E+00  0.37422850282E+02  0.37422850282E+02  0.00000000000E+00 0.  1.
         -3   -1    0    0    0  501 -0.00000000000E+00 -0.00000000000E+00 -0.95083709423E+03  0.95083709423E+03  0.00000000000E+00 0.  1.
         23    2    1    2    0    0  0.95435040076E+02  0.57042833621E+01 -0.28569537671E+03  0.31402405755E+03  0.88593875234E+02 0.  0.
         24    2    1    2    0    0 -0.98701209173E+02  0.79082556640E+02 -0.49125982014E+03  0.51354815365E+03  0.79996973570E+02 0.  0.
        -11    1    4    4    0    0 -0.10850922074E+03  0.71926869229E+02 -0.38111233103E+03  0.40273357740E+03  0.00000000000E+00 0.  1.
         12    1    4    4    0    0  0.98080115640E+01  0.71556874112E+01 -0.11014748911E+03  0.11081457625E+03  0.00000000000E+00 0. -1.
        -13    1    3    3    0    0  0.27532650464E+02 -0.21854288601E+02 -0.19139995115E+03  0.19460112557E+03  0.00000000000E+00 0. -1.
         13    1    3    3    0    0  0.67902389612E+02  0.27558571963E+02 -0.94295425555E+02  0.11942293199E+03  0.00000000000E+00 0.  1.
         -4    1    1    2    0  502  0.32661690969E+01 -0.84786840002E+02 -0.13645904710E+03  0.16068773330E+03  0.00000000000E+00 0.  1.
<scales pt_clust_5="13000.00000" pt_clust_6="13000.00000" pt_clust_7="13000.00000" pt_clust_8="13000.00000" pt_clust_9="13000.00000"></scales>
<clustering>
<clus scale="   79.997">  5  6 -1 -1</clus>
<clus scale="   84.850">  5  9 -1 -1</clus>
<clus scale="   88.594">  7  8 -1 -1</clus>
<clus scale="  130.343">  2  7  1 -1</clus>
<clus scale="  246.096">  1  5  2 -1</clus>
</clustering>
</event>
<event>
 9    2  0.6085395E-005  0.4004652E+03  0.7546771E-02  0.1058478E+00
          2   -1    0    0  502    0 -0.00000000000E+00  0.00000000000E+00  0.28227557545E+03  0.28227557545E+03  0.00000000000E+00 0. -1.
         21   -1    0    0  501  502  0.00000000000E+00 -0.00000000000E+00 -0.44844449431E+03  0.44844449431E+03  0.00000000000E+00 0. -1.
         23    2    1    2    0    0  0.24318404092E+03  0.41352683621E+02 -0.19851141029E+03  0.32895092014E+03  0.89181868377E+02 0.  0.
         24    2    1    2    0    0  0.55753006242E+02  0.38547764532E+01  0.28225793197E+02  0.99405097825E+02  0.77210239383E+02 0.  0.
        -11    1    4    4    0    0  0.85321678517E+01 -0.20500276575E+02  0.39292894162E+02  0.45133034017E+02  0.00000000000E+00 0.  1.
         12    1    4    4    0    0  0.47220838390E+02  0.24355053028E+02 -0.11067100965E+02  0.54272063809E+02  0.00000000000E+00 0. -1.
        -13    1    3    3    0    0  0.11545866376E+03  0.36040720911E+01 -0.14506909474E+03  0.18544199800E+03  0.00000000000E+00 0. -1.
         13    1    3    3    0    0  0.12772537716E+03  0.37748611530E+02 -0.53442315543E+02  0.14350892214E+03  0.00000000000E+00 0.  1.
          1    1    1    2  501    0 -0.29893704716E+03 -0.45207460074E+02  0.41166982219E+01  0.30236405179E+03  0.00000000000E+00 0. -1.
<scales pt_clust_5="13000.00000" pt_clust_6="13000.00000" pt_clust_7="13000.00000" pt_clust_8="13000.00000" pt_clust_9="13000.00000"></scales>
<clustering>
<clus scale="   77.210">  5  6 -1 -1</clus>
<clus scale="   89.182">  7  8 -1 -1</clus>
<clus scale="  262.301">  1  7  2 -1</clus>
<clus scale="  128.254">  5  9 -1 -1</clus>
<clus scale="  400.465">  2  5  1 -1</clus>
</clustering>
</event>
<event>
 9    2  0.6085395E-005  0.1584311E+03  0.7546771E-02  0.1202430E+00
         21   -1    0    0  501  502  0.00000000000E+00  0.00000000000E+00  0.35909348012E+02  0.35909348012E+02  0.00000000000E+00 0. -1.
          2   -1    0    0  502    0 -0.00000000000E+00 -0.00000000000E+00 -0.55309090582E+03  0.55309090582E+03  0.00000000000E+00 0. -1.
         23    2    1    2    0    0  0.67327760126E+02 -0.34738398196E+02 -0.25451195297E+03  0.28224998509E+03  0.95650072076E+02 0.  0.
         24    2    1    2    0    0 -0.14387794550E+02  0.13347162692E+02 -0.77439204197E+02  0.11291908901E+03  0.79804354098E+02 0.  0.
        -11    1    4    4    0    0 -0.24780590613E+02 -0.26762271150E+02 -0.54443321164E+02  0.65531458458E+02  0.00000000000E+00 0.  1.
         12    1    4    4    0    0  0.10392796064E+02  0.40109433842E+02 -0.22995883033E+02  0.47387630555E+02  0.00000000000E+00 0. -1.
        -11    1    3    3    0    0  0.62735018077E+02  0.12229002264E+02 -0.20092224479E+03  0.21084349513E+03  0.00000000000E+00 0.  1.
         11    1    3    3    0    0  0.45927420491E+01 -0.46967400460E+02 -0.53589708184E+02  0.71406489962E+02  0.00000000000E+00 0. -1.
          1    1    1    2  501    0 -0.52939965576E+02  0.21391235504E+02 -0.18523040064E+03  0.19383117972E+03  0.00000000000E+00 0. -1.
<scales pt_clust_5="13000.00000" pt_clust_6="13000.00000" pt_clust_7="13000.00000" pt_clust_8="13000.00000" pt_clust_9="13000.00000"></scales>
<clustering>
<clus scale="   79.804">  5  6 -1 -1</clus>
<clus scale="   57.098">  5  9 -1 -1</clus>
<clus scale="   95.650">  7  8 -1 -1</clus>
<clus scale="  122.019">  2  7  1 -1</clus>
<clus scale="  158.431">  1  5  2 -1</clus>
</clustering>
</event>
<event>
 9    2  0.6085395E-005  0.4559040E+03  0.7546771E-02  0.1043419E+00
         -1   -1    0    0    0  501 -0.00000000000E+00  0.00000000000E+00  0.43379175404E+03  0.43379175404E+03  0.00000000000E+00 0.  1.
         21   -1    0    0  501  502  0.00000000000E+00 -0.00000000000E+00 -0.46252349162E+03  0.46252349162E+03  0.00000000000E+00 0.  1.
         23    2    1    2    0    0  0.63591580616E+02 -0.24943289983E+03  0.24308566713E+03  0.36552981020E+03  0.90888612815E+02 0.  0.
         24    2    1    2    0    0  0.21445794524E+02 -0.80414888405E+02 -0.78988572415E+02  0.13935999282E+03  0.79091950585E+02 0.  0.
        -11    1    4    4    0    0  0.26201129495E+02 -0.68753191323E+02 -0.94253144312E+02  0.11957071429E+03  0.00000000000E+00 0.  1.
         12    1    4    4    0    0 -0.47553349711E+01 -0.11661697081E+02  0.15264571897E+02  0.19789278529E+02  0.00000000000E+00 0. -1.
        -13    1    3    3    0    0  0.67827065987E+02 -0.16150711016E+03  0.11298997106E+03  0.20845093205E+03  0.00000000000E+00 0.  1.
         13    1    3    3    0    0 -0.42354853711E+01 -0.87925789669E+02  0.13009569607E+03  0.15707887815E+03  0.00000000000E+00 0. -1.
         -2    1    1    2    0  502 -0.85037375140E+02  0.32984778824E+03 -0.19282883229E+03  0.39142544263E+03  0.00000000000E+00 0.  1.
<scales pt_clust_5="13000.00000" pt_clust_6="13000.00000" pt_clust_7="13000.00000" pt_clust_8="13000.00000" pt_clust_9="13000.00000"></scales>
<clustering>
<clus scale="   79.092">  5  6 -1 -1</clus>
<clus scale="   90.889">  7  8 -1 -1</clus>
<clus scale="  272.986">  1  7  2 -1</clus>
<clus scale="  143.232">  5  9 -1 -1</clus>
<clus scale="  455.904">  2  5  1 -1</clus>
</clustering>
</event>
<event>
 9    2  0.6085395E-005  0.3219913E+03  0.7546771E-02  0.1098364E+00
         21   -1    0    0  501  502  0.00000000000E+00  0.00000000000E+00  0.15052459452E+03  0.15052459452E+03  0.00000000000E+00 0.  1.
         -3   -1    0    0    0  501 -0.00000000000E+00 -0.00000000000E+00 -0.51687940018E+03  0.51687940018E+03  0.00000000000E+00 0.  1.
         23    2    1    2    0    0  0.11113479646E+03  0.89685424864E+02  0.10129416156E+02  0.17200639785E+03  0.95337177493E+02 0.  0.
         24    2    1    2    0    0  0.49008504000E+01 -0.73350670139E+02 -0.36149811083E+03  0.37726343975E+03  0.79009364587E+02 0.  0.
        -11    1    4    4    0    0 -0.20293909540E+02 -0.70138352468E+02 -0.18400498775E+03  0.19796228622E+03  0.00000000000E+00 0.  1.
         12    1    4    4    0    0  0.25194759940E+02 -0.32123176708E+01 -0.17749312308E+03  0.17930115352E+03  0.00000000000E+00 0. -1.
        -13    1    3    3    0    0  0.44193626528E+02  0.94473413638E+02  0.12268341885E+01  0.10430631636E+03  0.00000000000E+00 0.  1.
         13    1    3    3    0    0  0.66941169930E+02 -0.47879887736E+01  0.89025819675E+01  0.67700081490E+02  0.00000000000E+00 0. -1.
         -4    1    1    2    0  502 -0.11603564686E+03 -0.16334754726E+02 -0.14986110985E+02  0.11813415711E+03  0.00000000000E+00 0.  1.
<scales pt_clust_5="13000.00000" pt_clust_6="13000.00000" pt_clust_7="13000.00000" pt_clust_8="13000.00000" pt_clust_9="13000.00000"></scales>
<clustering>
<clus scale="   79.009">  5  6 -1 -1</clus>
<clus scale="   95.337">  7  8 -1 -1</clus>
<clus scale="  117.180">  5  9 -1 -1</clus>
<clus scale="  171.708">  2  7  1 -1</clus>
<clus scale="  321.991">  1  5  2 -1</clus>
</clustering>
</event>
<event>
 9    2  0.6085395E-005  0.3585788E+03  0.7546771E-02  0.1109458E+00
         21   -1    0    0  501  502  0.00000000000E+00  0.00000000000E+00  0.36553192658E+03  0.36553192658E+03  0.00000000000E+00 0.  1.
         -1   -1    0    0    0  501 -0.00000000000E+00 -0.00000000000E+00 -0.14014429538E+03  0.14014429538E+03  0.00000000000E+00 0.  1.
         23    2    1    2    0    0 -0.22902596266E+02 -0.18883025218E+01  0.57898108670E+02  0.10990922726E+03  0.90552485589E+02 0.  0.
         24    2    1    2    0    0 -0.47937311625E+02 -0.14354174376E+03  0.15846343530E+03  0.23374952293E+03  0.81400006732E+02 0.  0.
        -11    1    4    4    0    0 -0.16292592224E+02 -0.11190459947E+03  0.65767696816E+02  0.13081849215E+03  0.00000000000E+00 0.  1.
         12    1    4    4    0    0 -0.31644719401E+02 -0.31637144290E+02  0.92695738481E+02  0.10293103078E+03  0.00000000000E+00 0. -1.
        -13    1    3    3    0    0 -0.45187773566E+02  0.29436043205E+02  0.41798306549E+02  0.68231326748E+02  0.00000000000E+00 0.  1.
         13    1    3    3    0    0  0.22285177300E+02 -0.31324345726E+02  0.16099802121E+02  0.41677900509E+02  0.00000000000E+00 0. -1.
         -2    1    1    2    0  502  0.70839907891E+02  0.14543004628E+03  0.90260872388E+01  0.16201747178E+03  0.00000000000E+00 0.  1.
<scales pt_clust_5="13000.00000" pt_clust_6="13000.00000" pt_clust_7="13000.00000" pt_clust_8="13000.00000" pt_clust_9="13000.00000"></scales>
<clustering>
<clus scale="   81.400">  5  6 -1 -1</clus>
<clus scale="   90.552">  7  8 -1 -1</clus>
<clus scale="   93.423">  2  7  1 -1</clus>
<clus scale="  154.475">  5  9 -1 -1</clus>
<clus scale="  358.579">  1  5  2 -1</clus>
</clustering>
</event>
<event>
 9    2  0.6085395E-005  0.4477684E+03  0.7546771E-02  0.1067713E+00
          2   -1    0    0  502    0 -0.00000000000E+00  0.00000000000E+00  0.13994706575E+04  0.13994706575E+04  0.00000000000E+00 0. -1.
         21   -1    0    0  501  502  0.00000000000E+00 -0.00000000000E+00 -0.68441076685E+02  0.68441076685E+02  0.00000000000E+00 0. -1.
         23    2    1    2    0    0 -0.78080743638E+02 -0.82211235475E+02  0.53768500255E+03  0.55692755801E+03  0.90597202682E+02 0.  0.
         24    2    1    2    0    0  0.45140622633E+02  0.24491636438E+03  0.34657888941E+03  0.43437365250E+03  0.80881654555E+02 0.  0.
        -13    1    4    4    0    0 -0.14801813462E+02  0.67811611203E+02  0.13654796428E+03  0.15317589512E+03  0.00000000000E+00 0.  1.
         14    1    4    4    0    0  0.59942436096E+02  0.17710475318E+03  0.21003092513E+03  0.28119775738E+03  0.00000000000E+00 0. -1.
        -13    1    3    3    0    0 -0.21481834139E+01 -0.62490824354E+02  0.30592171026E+03  0.31224639410E+03  0.00000000000E+00 0.  1.
         13    1    3    3    0    0 -0.75932560224E+02 -0.19720411122E+02  0.23176329229E+03  0.24468116390E+03  0.00000000000E+00 0. -1.
          1    1    1    2  501    0  0.32940121004E+02 -0.16270512891E+03  0.44676568881E+03  0.47661052364E+03  0.00000000000E+00 0. -1.
<scales pt_clust_5="13000.00000" pt_clust_6="13000.00000" pt_clust_7="13000.00000" pt_clust_8="13000.00000" pt_clust_9="13000.00000"></scales>
<clustering>
<clus scale="   80.882">  5  6 -1 -1</clus>
<clus scale="   90.597">  7  8 -1 -1</clus>
<clus scale="  145.131">  1  7  2 -1</clus>
<clus scale="  207.457">  5  9 -1 -1</clus>
<clus scale="  447.768">  2  5  1 -1</clus>
</clustering>
</event>
<event>
 9    2  0.6085395E-005  0.1247532E+04  0.7546771E-02  0.9798296E-01
         21   -1    0    0  501  502  0.00000000000E+00  0.00000000000E+00  0.44106604809E+03  0.44106604809E+03  0.00000000000E+00 0.  1.
         -3   -1    0    0    0  501 -0.00000000000E+00 -0.00000000000E+00 -0.12709203983E+04  0.12709203983E+04  0.00000000000E+00 0.  1.
         23    2    1    2    0    0  0.58477147619E-01 -0.29065762359E+02 -0.37082380351E+03  0.38268409738E+03  0.89955562215E+02 0.  0.
         24    2    1    2    0    0 -0.34595571865E+03  0.37416773086E+03 -0.62760733610E+03  0.81242866593E+03  0.80389793011E+02 0.  0.
        -11    1    4    4    0    0 -0.17462074313E+03  0.24704641197E+03 -0.36426028554E+03  0.47350806669E+03  0.00000000000E+00 0.  1.
         12    1    4    4    0    0 -0.17133497552E+03  0.12712131889E+03 -0.26334705055E+03  0.33892059924E+03  0.00000000000E+00 0. -1.
        -11    1    3    3    0    0  0.40726445205E+02  0.52488036987E+01 -0.17573965054E+03  0.18047331672E+03  0.00000000000E+00 0.  1.
         11    1    3    3    0    0 -0.40667968057E+02 -0.34314566058E+02 -0.19508415298E+03  0.20221078065E+03  0.00000000000E+00 0. -1.
         -4    1    1    2    0  502  0.34589724150E+03 -0.34510196850E+03  0.16857678940E+03  0.51687368308E+03  0.00000000000E+00 0.  1.
<scales pt_clust_5="13000.00000" pt_clust_6="13000.00000" pt_clust_7="13000.00000" pt_clust_8="13000.00000" pt_clust_9="13000.00000"></scales>
<clustering>
<clus scale="   80.390">  5  6 -1 -1</clus>
<clus scale="   89.956">  7  8 -1 -1</clus>
<clus scale="   94.535">  2  7  1 -1</clus>
<clus scale="  492.633">  5  9 -1 -1</clus>
<clus scale=" 1247.532">  1  5  2 -1</clus>
</clustering>
</event>
<event>
 9    2  0.6085395E-005  0.5960618E+03  0.7546771E-02  0.1044654E+00
         21   -1    0    0  501  502  0.00000000000E+00  0.00000000000E+00  0.10481048170E+03  0.10481048170E+03  0.00000000000E+00 0. -1.
          2   -1    0    0  502    0 -0.00000000000E+00 -0.00000000000E+00 -0.18495178284E+04  0.18495178284E+04  0.00000000000E+00 0. -1.
         23    2    1    2    0    0  0.38137715134E+02  0.33371006802E+02 -0.79591461224E+01  0.11814095133E+03  0.10642286862E+03 0.  0.
         24    2    1    2    0    0 -0.29151537956E+03  0.86514740094E+02 -0.96538033301E+03  0.10154674186E+04  0.82151530848E+02 0.  0.
        -13    1    4    4    0    0 -0.10376251664E+03  0.15282271456E+02 -0.22342941840E+03  0.24682162119E+03  0.00000000000E+00 0.  1.
         14    1    4    4    0    0 -0.18775286292E+03  0.71232468639E+02 -0.74195091461E+03  0.76864579737E+03  0.00000000000E+00 0. -1.
        -11    1    3    3    0    0  0.94009043214E+01 -0.21343848632E+02 -0.41662413430E+02  0.47746136695E+02  0.00000000000E+00 0.  1.
         11    1    3    3    0    0  0.28736810812E+02  0.54714855434E+02  0.33703267307E+02  0.70394814639E+02  0.00000000000E+00 0. -1.
          1    1    1    2  501    0  0.25337766443E+03 -0.11988574690E+03 -0.77136786753E+03  0.82071994017E+03  0.00000000000E+00 0. -1.
<scales pt_clust_5="13000.00000" pt_clust_6="13000.00000" pt_clust_7="13000.00000" pt_clust_8="13000.00000" pt_clust_9="13000.00000"></scales>
<clustering>
<clus scale="   82.152">  5  6 -1 -1</clus>
<clus scale="  106.423">  7  8 -1 -1</clus>
<clus scale="  117.873">  2  7  1 -1</clus>
<clus scale="  290.050">  5  9 -1 -1</clus>
<clus scale="  596.062">  1  5  2 -1</clus>
</clustering>
</event>
<event>
 9    2  0.6085395E-005  0.3026418E+03  0.7546771E-02  0.1096935E+00
          2   -1    0    0  502    0 -0.00000000000E+00  0.00000000000E+00  0.86241695947E+03  0.86241695947E+03  0.00000000000E+00 0. -1.
         21   -1    0    0  501  502  0.00000000000E+00 -0.00000000000E+00 -0.49206471815E+03  0.49206471815E+03  0.00000000000E+00 0.  1.
         23    2    1    2    0    0  0.94390113047E+02  0.17050618927E+03  0.80036555873E+03  0.82864564524E+03  0.89926212817E+02 0.  0.
         24    2    1    2    0    0 -0.73027376724E+02  0.71344449286E+01 -0.87749160711E+02  0.13962713246E+03  0.80074483189E+02 0.  0.
        -13    1    4    4    0    0 -0.85096057271E+02  0.68318250453E+01 -0.93192905560E+02  0.12638405929E+03  0.00000000000E+00 0.  1.
         14    1    4    4    0    0  0.12068680547E+02  0.30261988326E+00  0.54437448488E+01  0.13243073168E+02  0.00000000000E+00 0. -1.
        -13    1    3    3    0    0 -0.17310319407E+02  0.34058563658E+02  0.13340621742E+03  0.13876905909E+03  0.00000000000E+00 0.  1.
         13    1    3    3    0    0  0.11170043245E+03  0.13644762561E+03  0.66695934131E+03  0.68987658614E+03  0.00000000000E+00 0. -1.
          1    1    1    2  501    0 -0.21362736323E+02 -0.17764063420E+03 -0.34226415670E+03  0.38620889993E+03  0.00000000000E+00 0. -1.
<scales pt_clust_5="13000.00000" pt_clust_6="13000.00000" pt_clust_7="13000.00000" pt_clust_8="13000.00000" pt_clust_9="13000.00000"></scales>
<clustering>
<clus scale="   80.074">  5  6 -1 -1</clus>
<clus scale="   89.926">  7  8 -1 -1</clus>
<clus scale="  178.921">  5  9 -1 -1</clus>
<clus scale="  214.636">  1  7  2 -1</clus>
<clus scale="  302.642">  2  5  1 -1</clus>
</clustering>
</event>
<event>
 9    2  0.6085395E-005  0.2245687E+03  0.7546771E-02  0.1167228E+00
         21   -1    0    0  501  502  0.00000000000E+00  0.00000000000E+00  0.42131151305E+02  0.42131151305E+02  0.00000000000E+00 0. -1.
         -1   -1    0    0    0  501 -0.00000000000E+00 -0.00000000000E+00 -0.70341169349E+03  0.70341169349E+03  0.00000000000E+00 0.  1.
         23    2    1    2    0    0  0.29099428343E+02  0.47635854436E+01 -0.34558917033E+03  0.35812554684E+03  0.89177150523E+02 0.  0.
         24    2    1    2    0    0  0.18124366797E+02 -0.92657696778E+02 -0.18869298477E+03  0.22591171924E+03  0.80728687232E+02 0.  0.
        -11    1    4    4    0    0 -0.17651499747E+02 -0.48787194022E+02 -0.14618882334E+03  0.15512233177E+03  0.00000000000E+00 0.  1.
         12    1    4    4    0    0  0.35775866544E+02 -0.43870502756E+02 -0.42504161433E+02  0.70789387469E+02  0.00000000000E+00 0. -1.
        -11    1    3    3    0    0  0.52284742331E+02 -0.22119525512E+02 -0.17864733512E+03  0.18745089500E+03  0.00000000000E+00 0. -1.
         11    1    3    3    0    0 -0.23185313988E+02  0.26883110956E+02 -0.16694183521E+03  0.17067465184E+03  0.00000000000E+00 0.  1.
         -2    1    1    2    0  502 -0.47223795140E+02  0.87894111334E+02 -0.12699838708E+03  0.16150557871E+03  0.00000000000E+00 0.  1.
<scales pt_clust_5="13000.00000" pt_clust_6="13000.00000" pt_clust_7="13000.00000" pt_clust_8="13000.00000" pt_clust_9="13000.00000"></scales>
<clustering>
<clus scale="   80.729">  5  6 -1 -1</clus>
<clus scale="   89.177">  7  8 -1 -1</clus>
<clus scale="   93.926">  2  7  1 -1</clus>
<clus scale="   96.528">  5  9 -1 -1</clus>
<clus scale="  224.569">  1  5  2 -1</clus>
</clustering>
</event>
<event>
 9    2  0.6085395E-005  0.1421467E+03  0.7546771E-02  0.1218889E+00
         21   -1    0    0  501  502  0.00000000000E+00  0.00000000000E+00  0.42327339309E+02  0.42327339309E+02  0.00000000000E+00 0.  1.
          2   -1    0    0  502    0 -0.00000000000E+00 -0.00000000000E+00 -0.57314775402E+03  0.57314775402E+03  0.00000000000E+00 0. -1.
         23    2    1    2    0    0 -0.24363656402E+02 -0.71875853870E+02 -0.41624849693E+03  0.43290343403E+03  0.91557882667E+02 0.  0.
         24    2    1    2    0    0  0.41484134219E+02  0.48928327300E+02 -0.51652635679E+02  0.11344470510E+03  0.78017893704E+02 0.  0.
        -13    1    4    4    0    0  0.52085562373E+02  0.12318165770E+02 -0.52977095220E+02  0.75307473955E+02  0.00000000000E+00 0.  1.
         14    1    4    4    0    0 -0.10601428154E+02  0.36610161530E+02  0.13244595408E+01  0.38137231143E+02  0.00000000000E+00 0. -1.
        -11    1    3    3    0    0 -0.46881936696E+02 -0.69489026467E+01 -0.12568575980E+03  0.13432465691E+03  0.00000000000E+00 0.  1.
         11    1    3    3    0    0  0.22518280294E+02 -0.64926951223E+02 -0.29056273713E+03  0.29857877712E+03  0.00000000000E+00 0. -1.
          1    1    1    2  501    0 -0.17120477817E+02  0.22947526570E+02 -0.62919282099E+02  0.69126954194E+02  0.00000000000E+00 0. -1.
<scales pt_clust_5="13000.00000" pt_clust_6="13000.00000" pt_clust_7="13000.00000" pt_clust_8="13000.00000" pt_clust_9="13000.00000"></scales>
<clustering>
<clus scale="   78.018">  5  6 -1 -1</clus>
<clus scale="   28.630">  5  9 -1 -1</clus>
<clus scale="   91.558">  7  8 -1 -1</clus>
<clus scale="  118.923">  2  7  1 -1</clus>
<clus scale="  142.147">  1  5  2 -1</clus>
</clustering>
</event>
<event>
 9    2  0.6085395E-005  0.4218395E+03  0.7546771E-02  0.1061724E+00
         21   -1    0    0  501  502  0.00000000000E+00  0.00000000000E+00  0.16748864194E+03  0.16748864194E+03  0.00000000000E+00 0. -1.
          2   -1    0    0  502    0 -0.00000000000E+00 -0.00000000000E+00 -0.63007269322E+03  0.63007269322E+03  0.00000000000E+00 0. -1.
         23    2    1    2    0    0 -0.48669057315E+02 -0.17783926562E+03 -0.25579012266E+03  0.32776106826E+03  0.89460882422E+02 0.  0.
         24    2    1    2    0    0 -0.31622923400E+02 -0.39297287116E+02 -0.21814154810E+03  0.23801620107E+03  0.80756986713E+02 0.  0.
        -11    1    4    4    0    0 -0.54776553546E+01 -0.38919718379E+02 -0.20503355616E+03  0.20876663608E+03  0.00000000000E+00 0.  1.
         12    1    4    4    0    0 -0.26145268046E+02 -0.37756873676E+00 -0.13107991939E+02  0.29249564988E+02  0.00000000000E+00 0. -1.
        -11    1    3    3    0    0  0.25408940955E+02 -0.45787863861E+02 -0.51190199787E+02  0.73229634108E+02  0.00000000000E+00 0.  1.
         11    1    3    3    0    0 -0.74077998270E+02 -0.13205140176E+03 -0.20459992287E+03  0.25453143416E+03  0.00000000000E+00 0. -1.
          1    1    1    2  501    0  0.80291980715E+02  0.21713655273E+03  0.11347619483E+02  0.23178406582E+03  0.00000000000E+00 0. -1.
<scales pt_clust_5="13000.00000" pt_clust_6="13000.00000" pt_clust_7="13000.00000" pt_clust_8="13000.00000" pt_clust_9="13000.00000"></scales>
<clustering>
<clus scale="   80.757">  5  6 -1 -1</clus>
<clus scale="   89.461">  7  8 -1 -1</clus>
<clus scale="  204.936">  2  7  1 -1</clus>
<clus scale="  171.742">  5  9 -1 -1</clus>
<clus scale="  421.839">  1  5  2 -1</clus>
</clustering>
</event>
<event>
 9    2  0.6085395E-005  0.5464519E+03  0.7546771E-02  0.1060148E+00
         21   -1    0    0  501  502  0.00000000000E+00  0.00000000000E+00  0.54860763466E+02  0.54860763466E+02  0.00000000000E+00 0.  1.
          2   -1    0    0  502    0 -0.00000000000E+00 -0.00000000000E+00 -0.19747612956E+04  0.19747612956E+04  0.00000000000E+00 0. -1.
         23    2    1    2    0    0  0.22557599048E+02  0.14768727332E+02 -0.17112903367E+03  0.19746173157E+03  0.94757736820E+02 0.  0.
         24    2    1    2    0    0 -0.42764669611E+02  0.23367874959E+03 -0.50873576578E+03  0.56731919407E+03  0.81267543322E+02 0.  0.
        -11    1    4    4    0    0 -0.50108574036E+02  0.13495487652E+03 -0.36885183448E+03  0.39594868820E+03  0.00000000000E+00 0.  1.
         12    1    4    4    0    0  0.73439044250E+01  0.98723873062E+02 -0.13988393131E+03  0.17137050587E+03  0.00000000000E+00 0. -1.
        -13    1    3    3    0    0  0.31344422421E+02  0.49288621446E+02 -0.13311531524E+03  0.14536687440E+03  0.00000000000E+00 0.  1.
         13    1    3    3    0    0 -0.87868233733E+01 -0.34519894114E+02 -0.38013718428E+02  0.52094857168E+02  0.00000000000E+00 0. -1.
          1    1    1    2  501    0  0.20207070563E+02 -0.24844747692E+03 -0.12400357327E+04  0.12648411334E+04  0.00000000000E+00 0. -1.
<scales pt_clust_5="13000.00000" pt_clust_6="13000.00000" pt_clust_7="13000.00000" pt_clust_8="13000.00000" pt_clust_9="13000.00000"></scales>
<clustering>
<clus scale="   81.268">  5  6 -1 -1</clus>
<clus scale="   94.758">  7  8 -1 -1</clus>
<clus scale="   98.519">  2  7  1 -1</clus>
<clus scale="  240.821">  5  9 -1 -1</clus>
<clus scale="  546.452">  1  5  2 -1</clus>
</clustering>
</event>
<event>
 9    2  0.6085395E-005  0.4741785E+03  0.7546771E-02  0.1059700E+00
         21   -1    0    0  501  502  0.00000000000E+00  0.00000000000E+00  0.14580083725E+03  0.14580083725E+03  0.00000000000E+00 0. -1.
          2   -1    0    0  502    0 -0.00000000000E+00 -0.00000000000E+00 -0.68091462016E+03  0.68091462016E+03  0.00000000000E+00 0. -1.
         23    2    1    2    0    0  0.24812022858E+02  0.12016152961E+03 -0.16814329345E+03  0.22712173835E+03  0.90871817529E+02 0.  0.
         24    2    1    2    0    0  0.13030128816E+02  0.10496274207E+03 -0.34202542589E+03  0.36995221075E+03  0.93253872890E+02 0.  0.
        -11    1    4    4    0    0  0.38032433001E+02  0.55999203887E+01 -0.99799387148E+02  0.10694738306E+03  0.00000000000E+00 0.  1.
         12    1    4    4    0    0 -0.25002304186E+02  0.99362821683E+02 -0.24222603874E+03  0.26300482769E+03  0.00000000000E+00 0. -1.
        -13    1    3    3    0    0 -0.67583593731E+01  0.12006876377E+03 -0.14239454480E+03  0.18638237536E+03  0.00000000000E+00 0. -1.
         13    1    3    3    0    0  0.31570382231E+02  0.92765837314E-01 -0.25748748651E+02  0.40739362989E+02  0.00000000000E+00 0.  1.
          1    1    1    2  501    0 -0.37842151673E+02 -0.22512427168E+03 -0.24945063576E+02  0.22964150831E+03  0.00000000000E+00 0. -1.
<scales pt_clust_5="13000.00000" pt_clust_6="13000.00000" pt_clust_7="13000.00000" pt_clust_8="13000.00000" pt_clust_9="13000.00000"></scales>
<clustering>
<clus scale="   90.872">  7  8 -1 -1</clus>
<clus scale="   93.254">  5  6 -1 -1</clus>
<clus scale="  152.683">  2  7  1 -1</clus>
<clus scale="  195.991">  5  9 -1 -1</clus>
<clus scale="  474.179">  1  5  2 -1</clus>
</clustering>
</event>
<event>
 9    2  0.6085395E-005  0.5002755E+03  0.7546771E-02  0.1031759E+00
          2   -1    0    0  502    0 -0.00000000000E+00  0.00000000000E+00  0.36201847530E+03  0.36201847530E+03  0.00000000000E+00 0. -1.
         21   -1    0    0  501  502  0.00000000000E+00 -0.00000000000E+00 -0.80301498942E+03  0.80301498942E+03  0.00000000000E+00 0.  1.
         23    2    1    2    0    0  0.26702720139E+03 -0.70902716996E+02 -0.57750948404E+03  0.64646683766E+03  0.89841229326E+02 0.  0.
         24    2    1    2    0    0  0.96589964942E+02  0.84877895422E+01  0.69818935364E+02  0.14365175530E+03  0.79746342648E+02 0.  0.
        -13    1    4    4    0    0  0.97280320659E+02  0.27050200191E+02  0.40177720512E+02  0.10867117071E+03  0.00000000000E+00 0.  1.
         14    1    4    4    0    0 -0.69035571751E+00 -0.18562410649E+02  0.29641214852E+02  0.34980584587E+02  0.00000000000E+00 0. -1.
        -11    1    3    3    0    0  0.14839265996E+03 -0.83180164282E+02 -0.31097021362E+03  0.35445986376E+03  0.00000000000E+00 0. -1.
         11    1    3    3    0    0  0.11863454142E+03  0.12277447286E+02 -0.26653927042E+03  0.29200697390E+03  0.00000000000E+00 0.  1.
          1    1    1    2  501    0 -0.36361716633E+03  0.62414927454E+02  0.66694034552E+02  0.37491487175E+03  0.00000000000E+00 0. -1.
<scales pt_clust_5="13000.00000" pt_clust_6="13000.00000" pt_clust_7="13000.00000" pt_clust_8="13000.00000" pt_clust_9="13000.00000"></scales>
<clustering>
<clus scale="   79.746">  5  6 -1 -1</clus>
<clus scale="   89.841">  7  8 -1 -1</clus>
<clus scale="  290.521">  1  7  2 -1</clus>
<clus scale="  184.187">  5  9 -1 -1</clus>
<clus scale="  500.275">  2  5  1 -1</clus>
</clustering>
</event>
<event>
 9    2  0.6085395E-005  0.1281153E+03  0.7546771E-02  0.1241159E+00
         21   -1    0    0  501  502  0.00000000000E+00  0.00000000000E+00  0.58640503280E+03  0.58640503280E+03  0.00000000000E+00 0. -1.
          2   -1    0    0  502    0 -0.00000000000E+00 -0.00000000000E+00 -0.22764750484E+02  0.22764750484E+02  0.00000000000E+00 0. -1.
         23    2    1    2    0    0 -0.14122529995E+02 -0.46649226840E+02  0.23268889335E+03  0.25428621121E+03  0.90231701220E+02 0.  0.
         24    2    1    2    0    0 -0.61531554887E+01  0.50472739552E+02  0.31487798899E+03  0.32872870908E+03  0.79555373575E+02 0.  0.
        -13    1    4    4    0    0  0.10315252760E+02  0.48040843084E+02  0.84480937707E+02  0.97731038466E+02  0.00000000000E+00 0.  1.
         14    1    4    4    0    0 -0.16468408249E+02  0.24318964673E+01  0.23039705128E+03  0.23099767062E+03  0.00000000000E+00 0. -1.
        -11    1    3    3    0    0  0.14035446548E+02 -0.64383705981E+02  0.12143281589E+03  0.13815999468E+03  0.00000000000E+00 0.  1.
         11    1    3    3    0    0 -0.28157976543E+02  0.17734479140E+02  0.11125607746E+03  0.11612621653E+03  0.00000000000E+00 0. -1.
          1    1    1    2  501    0  0.20275685484E+02 -0.38235127113E+01  0.16073399980E+02  0.26154862993E+02  0.00000000000E+00 0. -1.
<scales pt_clust_5="13000.00000" pt_clust_6="13000.00000" pt_clust_7="13000.00000" pt_clust_8="13000.00000" pt_clust_9="13000.00000"></scales>
<clustering>
<clus scale="   79.555">  5  6 -1 -1</clus>
<clus scale="   20.633">  5  9 -1 -1</clus>
<clus scale="   90.232">  7  8 -1 -1</clus>
<clus scale="  102.554">  2  7  1 -1</clus>
<clus scale="  128.115">  1  5  2 -1</clus>
</clustering>
</event>
<event>
 9    2  0.7739214E-005  0.2122505E+03  0.7546771E-02  0.1177400E+00
         -3   -1    0    0    0  501 -0.00000000000E+00  0.00000000000E+00  0.58332222283E+03  0.58332222283E+03  0.00000000000E+00 0.  1.
         21   -1    0    0  501  502  0.00000000000E+00 -0.00000000000E+00 -0.47451427469E+02  0.47451427469E+02  0.00000000000E+00 0.  1.
         23    2    1    2    0    0  0.86270283605E+01 -0.13526945499E+02  0.30346077637E+03  0.31602822117E+03  0.86763989678E+02 0.  0.
         24    2    1    2    0    0  0.51427526872E+02  0.29345906560E+01  0.25920131156E+02  0.99439086071E+02  0.81011581252E+02 0.  0.
        -13    1    4    4    0    0  0.46634744957E+02 -0.62648783828E+01 -0.20897935233E+02  0.51485646887E+02  0.00000000000E+00 0.  1.
         14    1    4    4    0    0  0.47927819142E+01  0.91994690388E+01  0.46818066389E+02  0.47953439183E+02  0.00000000000E+00 0. -1.
        -13    1    3    3    0    0  0.95169844499E+01 -0.45279151451E+02  0.24654031596E+03  0.25084437794E+03  0.00000000000E+00 0.  1.
         13    1    3    3    0    0 -0.88995608942E+00  0.31752205952E+02  0.56920460410E+02  0.65183843228E+02  0.00000000000E+00 0. -1.
         -4    1    1    2    0  502 -0.60054555232E+02  0.10592354843E+02  0.20648988783E+03  0.21530634306E+03  0.00000000000E+00 0.  1.
<scales pt_clust_5="13000.00000" pt_clust_6="13000.00000" pt_clust_7="13000.00000" pt_clust_8="13000.00000" pt_clust_9="13000.00000"></scales>
<clustering>
<clus scale="   81.012">  5  6 -1 -1</clus>
<clus scale="   60.982">  5  9 -1 -1</clus>
<clus scale="   86.764">  7  8 -1 -1</clus>
<clus scale="   88.235">  1  7  2 -1</clus>
<clus scale="  212.250">  2  5  1 -1</clus>
</clustering>
</event>
<event>
 9    2  0.6085395E-005  0.1434878E+03  0.7546771E-02  0.1225777E+00
         21   -1    0    0  501  502  0.00000000000E+00  0.00000000000E+00  0.63154376495E+02  0.63154376495E+02  0.00000000000E+00 0.  1.
          2   -1    0    0  502    0 -0.00000000000E+00 -0.00000000000E+00 -0.31619643709E+03  0.31619643709E+03  0.00000000000E+00 0. -1.
         23    2    1    2    0    0 -0.36693563513E+02  0.24400912712E+02 -0.14743089821E+02  0.10118691929E+03  0.89886660817E+02 0.  0.
         24    2    1    2    0    0  0.31008020456E+02  0.17970025482E+02 -0.10115775541E+03  0.13451385165E+03  0.81096643926E+02 0.  0.
        -13    1    4    4    0    0  0.53140214774E+02 -0.87158322997E+01 -0.57774013670E+02  0.78979015026E+02  0.00000000000E+00 0.  1.
         14    1    4    4    0    0 -0.22132194317E+02  0.26685857781E+02 -0.43383741743E+02  0.55534836620E+02  0.00000000000E+00 0. -1.
        -13    1    3    3    0    0  0.67668599577E+01  0.48567182049E+02  0.93904760528E+00  0.49045319617E+02  0.00000000000E+00 0.  1.
         13    1    3    3    0    0 -0.43460423471E+02 -0.24166269337E+02 -0.15682137426E+02  0.52141599670E+02  0.00000000000E+00 0. -1.
          1    1    1    2  501    0  0.56855430569E+01 -0.42370938194E+02 -0.13714121536E+03  0.14365004265E+03  0.00000000000E+00 0. -1.
<scales pt_clust_5="13000.00000" pt_clust_6="13000.00000" pt_clust_7="13000.00000" pt_clust_8="13000.00000" pt_clust_9="13000.00000"></scales>
<clustering>
<clus scale="   81.097">  5  6 -1 -1</clus>
<clus scale="   42.751">  5  9 -1 -1</clus>
<clus scale="   89.887">  7  8 -1 -1</clus>
<clus scale="  100.107">  2  7  1 -1</clus>
<clus scale="  143.488">  1  5  2 -1</clus>
</clustering>
</event>
<event>
 9    2  0.6085395E-005  0.1320597E+03  0.7546771E-02  0.1242413E+00
         -3   -1    0    0    0  501 -0.00000000000E+00  0.00000000000E+00  0.28749103663E+03  0.28749103663E+03  0.00000000000E+00 0.  1.
         21   -1    0    0  501  502  0.00000000000E+00 -0.00000000000E+00 -0.58113860510E+02  0.58113860510E+02  0.00000000000E+00 0. -1.
         23    2    1    2    0    0 -0.70376748668E+01 -0.57658312754E+01  0.13137588978E+02  0.92229033131E+02  0.90834049950E+02 0.  0.
         24    2    1    2    0    0  0.21435762726E+02 -0.33448665856E+02  0.14340207369E+03  0.16940929277E+03  0.80975604773E+02 0.  0.
        -11    1    4    4    0    0  0.29979982495E+02 -0.43218191659E+01  0.89660479599E+01  0.31589040620E+02  0.00000000000E+00 0.  1.
         12    1    4    4    0    0 -0.85442197685E+01 -0.29126846690E+02  0.13443602573E+03  0.13782025215E+03  0.00000000000E+00 0. -1.
        -13    1    3    3    0    0  0.40905339496E+02  0.88498129407E-01 -0.37160196384E+01  0.41073877747E+02  0.00000000000E+00 0.  1.
         13    1    3    3    0    0 -0.47943014363E+02 -0.58543294048E+01  0.16853608617E+02  0.51155155384E+02  0.00000000000E+00 0. -1.
         -4    1    1    2    0  502 -0.14398087859E+02  0.39214497131E+02  0.72837513454E+02  0.83966571237E+02  0.00000000000E+00 0.  1.
<scales pt_clust_5="13000.00000" pt_clust_6="13000.00000" pt_clust_7="13000.00000" pt_clust_8="13000.00000" pt_clust_9="13000.00000"></scales>
<clustering>
<clus scale="   80.976">  5  6 -1 -1</clus>
<clus scale="   41.774">  5  9 -1 -1</clus>
<clus scale="   90.834">  7  8 -1 -1</clus>
<clus scale="   91.289">  1  7  2 -1</clus>
<clus scale="  132.060">  2  5  1 -1</clus>
</clustering>
</event>
<event>
 9    2  0.6085395E-005  0.2587888E+03  0.7546771E-02  0.1141909E+00
         21   -1    0    0  501  502  0.00000000000E+00  0.00000000000E+00  0.73667150056E+02  0.73667150056E+02  0.00000000000E+00 0. -1.
          2   -1    0    0  502    0 -0.00000000000E+00 -0.00000000000E+00 -0.48896088739E+03  0.48896088739E+03  0.00000000000E+00 0. -1.
         23    2    1    2    0    0  0.62233547988E+02  0.16349172307E+01 -0.71343666770E+02  0.13219420762E+03  0.92248047620E+02 0.  0.
         24    2    1    2    0    0 -0.11737783767E+03  0.23780611398E+02 -0.90816234669E+02  0.17011944172E+03  0.79686647048E+02 0.  0.
        -13    1    4    4    0    0 -0.10080950799E+02 -0.18462700249E+02 -0.37676627392E+02  0.43151189104E+02  0.00000000000E+00 0.  1.
         14    1    4    4    0    0 -0.10729688687E+03  0.42243311647E+02 -0.53139607277E+02  0.12696825262E+03  0.00000000000E+00 0. -1.
        -13    1    3    3    0    0 -0.20336364651E+02 -0.28007594021E+01 -0.37692459059E+02  0.42920082134E+02  0.00000000000E+00 0.  1.
         13    1    3    3    0    0  0.82569912638E+02  0.44356766328E+01 -0.33651207711E+02  0.89274125483E+02  0.00000000000E+00 0. -1.
          1    1    1    2  501    0  0.55144289684E+02 -0.25415528629E+02 -0.25313383589E+03  0.26031438810E+03  0.00000000000E+00 0. -1.
<scales pt_clust_5="13000.00000" pt_clust_6="13000.00000" pt_clust_7="13000.00000" pt_clust_8="13000.00000" pt_clust_9="13000.00000"></scales>
<clustering>
<clus scale="   79.687">  5  6 -1 -1</clus>
<clus scale="   60.719">  5  9 -1 -1</clus>
<clus scale="   92.248">  7  8 -1 -1</clus>
<clus scale="  111.290">  2  7  1 -1</clus>
<clus scale="  258.789">  1  5  2 -1</clus>
</clustering>
</event>
<event>
 9    2  0.6085395E-005  0.1470680E+03  0.7546771E-02  0.1210656E+00
          4   -1    0    0  502    0 -0.00000000000E+00  0.00000000000E+00  0.24031043331E+03  0.24031043331E+03  0.00000000000E+00 0. -1.
         21   -1    0    0  501  502  0.00000000000E+00 -0.00000000000E+00 -0.17628995755E+03  0.17628995755E+03  0.00000000000E+00 0. -1.
         23    2    1    2    0    0 -0.86985034623E+02  0.25588286928E+02  0.18588575069E+03  0.22560263422E+03  0.90121471249E+02 0.  0.
         24    2    1    2    0    0  0.54671795473E+02  0.36537695263E+01 -0.10686035974E+03  0.14490664286E+03  0.81095273652E+02 0.  0.
        -13    1    4    4    0    0  0.24483315972E+02  0.11839303412E+01  0.82615585840E+01  0.25866731573E+02  0.00000000000E+00 0.  1.
         14    1    4    4    0    0  0.30188479501E+02  0.24698391851E+01 -0.11512191833E+03  0.11903991129E+03  0.00000000000E+00 0. -1.
        -11    1    3    3    0    0 -0.48649488800E+02  0.39843660612E+02  0.41033573961E+02  0.75086911266E+02  0.00000000000E+00 0.  1.
         11    1    3    3    0    0 -0.38335545822E+02 -0.14255373684E+02  0.14485217673E+03  0.15051572295E+03  0.00000000000E+00 0. -1.
          3    1    1    2  501    0  0.32313239149E+02 -0.29242056454E+02 -0.15004915188E+02  0.46091113784E+02  0.00000000000E+00 0. -1.
<scales pt_clust_5="13000.00000" pt_clust_6="13000.00000" pt_clust_7="13000.00000" pt_clust_8="13000.00000" pt_clust_9="13000.00000"></scales>
<clustering>
<clus scale="   81.095">  5  6 -1 -1</clus>
<clus scale="   43.580">  5  9 -1 -1</clus>
<clus scale="   90.121">  7  8 -1 -1</clus>
<clus scale="  127.840">  1  7  2 -1</clus>
<clus scale="  147.068">  2  5  1 -1</clus>
</clustering>
</event>
<event>
 9    2  0.6085395E-005  0.2589052E+03  0.7546771E-02  0.1146460E+00
         -3   -1    0    0    0  501 -0.00000000000E+00  0.00000000000E+00  0.13171613026E+03  0.13171613026E+03  0.00000000000E+00 0.  1.
         21   -1    0    0  501  502  0.00000000000E+00 -0.00000000000E+00 -0.24558516749E+03  0.24558516749E+03  0.00000000000E+00 0.  1.
         23    2    1    2    0    0 -0.33407813032E+02 -0.17163435901E+02 -0.18384571474E+02  0.10134989746E+03  0.92320873820E+02 0.  0.
         24    2    1    2    0    0  0.65950747425E+02 -0.82692612959E+02 -0.10610664636E+03  0.17039049941E+03  0.81158687549E+02 0.  0.
        -13    1    4    4    0    0  0.83323562477E+02 -0.76023440568E+02 -0.10018462187E+03  0.15086198341E+03  0.00000000000E+00 0.  1.
         14    1    4    4    0    0 -0.17372815052E+02 -0.66691723907E+01 -0.59220244943E+01  0.19528516004E+02  0.00000000000E+00 0. -1.
        -11    1    3    3    0    0 -0.54285117869E+02  0.59088981738E+01 -0.36180698716E+02  0.65504443050E+02  0.00000000000E+00 0.  1.
         11    1    3    3    0    0  0.20877304837E+02 -0.23072334075E+02  0.17796127242E+02  0.35845454408E+02  0.00000000000E+00 0. -1.
         -4    1    1    2    0  502 -0.32542934393E+02  0.99856048860E+02  0.10622180600E+02  0.10556090087E+03  0.00000000000E+00 0.  1.
<scales pt_clust_5="13000.00000" pt_clust_6="13000.00000" pt_clust_7="13000.00000" pt_clust_8="13000.00000" pt_clust_9="13000.00000"></scales>
<clustering>
<clus scale="   81.159">  5  6 -1 -1</clus>
<clus scale="   92.321">  7  8 -1 -1</clus>
<clus scale="   99.668">  1  7  2 -1</clus>
<clus scale="  103.962">  5  9 -1 -1</clus>
<clus scale="  258.905">  2  5  1 -1</clus>
</clustering>
</event>
<event>
 9    2  0.6085395E-005  0.2336285E+03  0.7546771E-02  0.1128616E+00
          2   -1    0    0  502    0 -0.00000000000E+00  0.00000000000E+00  0.28644712661E+03  0.28644712661E+03  0.00000000000E+00 0. -1.
         21   -1    0    0  501  502  0.00000000000E+00 -0.00000000000E+00 -0.17636482920E+03  0.17636482920E+03  0.00000000000E+00 0. -1.
         23    2    1    2    0    0  0.13135746647E+03 -0.13949440112E+03  0.92374452921E+02  0.22851332852E+03  0.83497483899E+02 0.  0.
         24    2    1    2    0    0 -0.28742100308E+02  0.89999593294E+02 -0.29840145721E+01  0.11850656191E+03  0.71476329991E+02 0.  0.
        -11    1    4    4    0    0 -0.29387038523E+02  0.72145931341E+02  0.27967054086E+02  0.82769496534E+02  0.00000000000E+00 0.  1.
         12    1    4    4    0    0  0.64493821531E+00  0.17853661953E+02 -0.30951068658E+02  0.35737065374E+02  0.00000000000E+00 0. -1.
        -13    1    3    3    0    0  0.87949245744E+02 -0.11622222812E+03  0.10256162536E+03  0.17821774079E+03  0.00000000000E+00 0. -1.
         13    1    3    3    0    0  0.43408220730E+02 -0.23272172995E+02 -0.10187172436E+02  0.50295587729E+02  0.00000000000E+00 0.  1.
          1    1    1    2  501    0 -0.10261536617E+03  0.49494807824E+02  0.20691859058E+02  0.11579206539E+03  0.00000000000E+00 0. -1.
<scales pt_clust_5="13000.00000" pt_clust_6="13000.00000" pt_clust_7="13000.00000" pt_clust_8="13000.00000" pt_clust_9="13000.00000"></scales>
<clustering>
<clus scale="   71.476">  5  6 -1 -1</clus>
<clus scale="   83.497">  7  8 -1 -1</clus>
<clus scale="  113.928">  5  9 -1 -1</clus>
<clus scale="  209.010">  1  7  2 -1</clus>
<clus scale="  233.629">  2  5  1 -1</clus>
</clustering>
</event>
<event>
 9    2  0.6085395E-005  0.4751759E+03  0.7546771E-02  0.1065762E+00
         21   -1    0    0  501  502  0.00000000000E+00  0.00000000000E+00  0.45908141869E+03  0.45908141869E+03  0.00000000000E+00 0. -1.
          4   -1    0    0  502    0 -0.00000000000E+00 -0.00000000000E+00 -0.19824432510E+03  0.19824432510E+03  0.00000000000E+00 0. -1.
         23    2    1    2    0    0  0.83116439701E+02 -0.37686881102E+02  0.53283848656E+02  0.13879850600E+03  0.89984516353E+02 0.  0.
         24    2    1    2    0    0 -0.11537424996E+03  0.19494493671E+03  0.25555847882E+03  0.35097078505E+03  0.80966721318E+02 0.  0.
        -13    1    4    4    0    0 -0.52149136424E+02  0.70851579313E+02  0.15829227557E+03  0.18109644730E+03  0.00000000000E+00 0.  1.
         14    1    4    4    0    0 -0.63225113532E+02  0.12409335739E+03  0.97266203254E+02  0.16987433775E+03  0.00000000000E+00 0. -1.
        -11    1    3    3    0    0  0.52657124124E+02 -0.41389268804E+02  0.75492857225E+02  0.10092083920E+03  0.00000000000E+00 0. -1.
         11    1    3    3    0    0  0.30459315577E+02  0.37023877024E+01 -0.22209008569E+02  0.37877666794E+02  0.00000000000E+00 0.  1.
          3    1    1    2  501    0  0.32257810255E+02 -0.15725805560E+03 -0.48005233888E+02  0.16755645274E+03  0.00000000000E+00 0. -1.
<scales pt_clust_5="13000.00000" pt_clust_6="13000.00000" pt_clust_7="13000.00000" pt_clust_8="13000.00000" pt_clust_9="13000.00000"></scales>
<clustering>
<clus scale="   80.967">  5  6 -1 -1</clus>
<clus scale="   89.985">  7  8 -1 -1</clus>
<clus scale="  128.163">  2  7  1 -1</clus>
<clus scale="  204.221">  5  9 -1 -1</clus>
<clus scale="  475.176">  1  5  2 -1</clus>
</clustering>
</event>
<event>
 9    2  0.6085395E-005  0.3973026E+03  0.7546771E-02  0.1075718E+00
         21   -1    0    0  501  502  0.00000000000E+00  0.00000000000E+00  0.54013407137E+02  0.54013407137E+02  0.00000000000E+00 0. -1.
          2   -1    0    0  502    0 -0.00000000000E+00 -0.00000000000E+00 -0.14776826212E+04  0.14776826212E+04  0.00000000000E+00 0. -1.
         23    2    1    2    0    0 -0.14024698711E+03 -0.92878885315E+01 -0.38388000013E+03  0.41858732492E+03  0.89977840680E+02 0.  0.
         24    2    1    2    0    0 -0.10655743407E+03  0.55958076427E+02 -0.41325559509E+03  0.43810136694E+03  0.81650644645E+02 0.  0.
        -11    1    4    4    0    0 -0.52640626977E+02 -0.78941679493E+01 -0.23881591630E+03  0.24467610299E+03  0.00000000000E+00 0.  1.
         12    1    4    4    0    0 -0.53916807096E+02  0.63852244376E+02 -0.17443967879E+03  0.19342526396E+03  0.00000000000E+00 0. -1.
        -11    1    3    3    0    0  0.18922040537E+01 -0.21945809914E+02 -0.31767827623E+02  0.38657391025E+02  0.00000000000E+00 0.  1.
         11    1    3    3    0    0 -0.14213919117E+03  0.12657921383E+02 -0.35211217251E+03  0.37992993389E+03  0.00000000000E+00 0. -1.
          1    1    1    2  501    0  0.24680442119E+03 -0.46670187895E+02 -0.62653361881E+03  0.67500733645E+03  0.00000000000E+00 0. -1.
<scales pt_clust_5="13000.00000" pt_clust_6="13000.00000" pt_clust_7="13000.00000" pt_clust_8="13000.00000" pt_clust_9="13000.00000"></scales>
<clustering>
<clus scale="   81.651">  5  6 -1 -1</clus>
<clus scale="   89.978">  7  8 -1 -1</clus>
<clus scale="  166.888">  2  7  1 -1</clus>
<clus scale="  170.245">  5  9 -1 -1</clus>
<clus scale="  397.303">  1  5  2 -1</clus>
</clustering>
</event>
<event>
 9    2  0.6085395E-005  0.4045839E+03  0.7546771E-02  0.1077187E+00
          2   -1    0    0  502    0 -0.00000000000E+00  0.00000000000E+00  0.15465570749E+04  0.15465570749E+04  0.00000000000E+00 0. -1.
         21   -1    0    0  501  502  0.00000000000E+00 -0.00000000000E+00 -0.53041879310E+02  0.53041879310E+02  0.00000000000E+00 0. -1.
         23    2    1    2    0    0 -0.10137005311E+03  0.69553479211E+02  0.59712186022E+03  0.61613101925E+03  0.89159086978E+02 0.  0.
         24    2    1    2    0    0 -0.74773811535E+02  0.10710081161E+03  0.37694812495E+03  0.40722430060E+03  0.81731483266E+02 0.  0.
        -13    1    4    4    0    0 -0.35808692366E+02 -0.44481088966E+00  0.55700799949E+02  0.66219630176E+02  0.00000000000E+00 0.  1.
         14    1    4    4    0    0 -0.38965119168E+02  0.10754562250E+03  0.32124732500E+03  0.34100467042E+03  0.00000000000E+00 0. -1.
        -11    1    3    3    0    0 -0.23704898296E+02  0.68738987689E+02  0.33184544511E+03  0.33971807439E+03  0.00000000000E+00 0.  1.
         11    1    3    3    0    0 -0.77665154809E+02  0.81449152208E+00  0.26527641511E+03  0.27641294485E+03  0.00000000000E+00 0. -1.
          1    1    1    2  501    0  0.17614386464E+03 -0.17665429082E+03  0.51944521044E+03  0.57624363438E+03  0.00000000000E+00 0. -1.
<scales pt_clust_5="13000.00000" pt_clust_6="13000.00000" pt_clust_7="13000.00000" pt_clust_8="13000.00000" pt_clust_9="13000.00000"></scales>
<clustering>
<clus scale="   81.731">  5  6 -1 -1</clus>
<clus scale="   89.159">  7  8 -1 -1</clus>
<clus scale="  151.865">  1  7  2 -1</clus>
<clus scale="  179.528">  5  9 -1 -1</clus>
<clus scale="  404.584">  2  5  1 -1</clus>
</clustering>
</event>
<event>
 9    2  0.6085395E-005  0.3832042E+03  0.7546771E-02  0.1099683E+00
          2   -1    0    0  502    0 -0.00000000000E+00  0.00000000000E+00  0.10018045079E+04  0.10018045079E+04  0.00000000000E+00 0. -1.
         21   -1    0    0  501  502  0.00000000000E+00 -0.00000000000E+00 -0.58106119605E+02  0.58106119605E+02  0.00000000000E+00 0. -1.
         23    2    1    2    0    0  0.14404175102E+02  0.34074918454E+02  0.16775565768E+03  0.19450170463E+03  0.91216073641E+02 0.  0.
         24    2    1    2    0    0  0.67348985340E+02 -0.16786126824E+03  0.27422607173E+03  0.33976458263E+03  0.86756797949E+02 0.  0.
        -13    1    4    4    0    0 -0.14855850932E+02 -0.23463353360E+02  0.14217427966E+02  0.31198726189E+02  0.00000000000E+00 0.  1.
         14    1    4    4    0    0  0.82204836272E+02 -0.14439791488E+03  0.26000864377E+03  0.30856585644E+03  0.00000000000E+00 0. -1.
        -13    1    3    3    0    0 -0.40139070027E+01 -0.29786189008E+02  0.71182569818E+02  0.77267630680E+02  0.00000000000E+00 0.  1.
         13    1    3    3    0    0  0.18418082105E+02  0.63861107462E+02  0.96573087867E+02  0.11723407395E+03  0.00000000000E+00 0. -1.
          1    1    1    2  501    0 -0.81753160442E+02  0.13378634979E+03  0.50171665883E+03  0.52564434020E+03  0.00000000000E+00 0. -1.
<scales pt_clust_5="13000.00000" pt_clust_6="13000.00000" pt_clust_7="13000.00000" pt_clust_8="13000.00000" pt_clust_9="13000.00000"></scales>
<clustering>
<clus scale="   86.757">  5  6 -1 -1</clus>
<clus scale="   91.216">  7  8 -1 -1</clus>
<clus scale="   98.433">  1  7  2 -1</clus>
<clus scale="  171.322">  5  9 -1 -1</clus>
<clus scale="  383.204">  2  5  1 -1</clus>
</clustering>
</event>
<event>
 9    2  0.6085395E-005  0.2590589E+03  0.7546771E-02  0.1141238E+00
         21   -1    0    0  501  502  0.00000000000E+00  0.00000000000E+00  0.48273345079E+02  0.48273345079E+02  0.00000000000E+00 0. -1.
         -1   -1    0    0    0  501 -0.00000000000E+00 -0.00000000000E+00 -0.72777990718E+03  0.72777990718E+03  0.00000000000E+00 0.  1.
         23    2    1    2    0    0  0.18653633407E+02  0.56964672019E+02 -0.16264328610E+03  0.19790172944E+03  0.95495152251E+02 0.  0.
         24    2    1    2    0    0  0.57826356073E+02 -0.61663540583E+02 -0.98638159997E+02  0.15296507453E+03  0.80762291470E+02 0.  0.
        -13    1    4    4    0    0  0.64602460119E+02 -0.75290492432E+02 -0.73078483235E+02  0.12321769685E+03  0.00000000000E+00 0.  1.
         14    1    4    4    0    0 -0.67761040456E+01  0.13626951849E+02 -0.25559676763E+02  0.29747377682E+02  0.00000000000E+00 0. -1.
        -11    1    3    3    0    0 -0.88951531717E+01 -0.24328828085E+02 -0.49677265251E+02  0.56025407707E+02  0.00000000000E+00 0. -1.
         11    1    3    3    0    0  0.27548786579E+02  0.81293500104E+02 -0.11296602085E+03  0.14187632173E+03  0.00000000000E+00 0.  1.
         -2    1    1    2    0  502 -0.76479989481E+02  0.46988685645E+01 -0.41822511601E+03  0.42518644830E+03  0.00000000000E+00 0.  1.
<scales pt_clust_5="13000.00000" pt_clust_6="13000.00000" pt_clust_7="13000.00000" pt_clust_8="13000.00000" pt_clust_9="13000.00000"></scales>
<clustering>
<clus scale="   80.762">  5  6 -1 -1</clus>
<clus scale="   76.624">  5  9 -1 -1</clus>
<clus scale="   95.495">  7  8 -1 -1</clus>
<clus scale="  112.749">  2  7  1 -1</clus>
<clus scale="  259.059">  1  5  2 -1</clus>
</clustering>
</event>
<event>
 9    2  0.6085395E-005  0.3161456E+03  0.7546771E-02  0.1100823E+00
         21   -1    0    0  501  502  0.00000000000E+00  0.00000000000E+00  0.13783982423E+03  0.13783982423E+03  0.00000000000E+00 0.  1.
          2   -1    0    0  502    0 -0.00000000000E+00 -0.00000000000E+00 -0.43733718862E+03  0.43733718862E+03  0.00000000000E+00 0. -1.
         23    2    1    2    0    0 -0.54752659783E+02  0.14178801641E+03 -0.14363065169E+03  0.22269654943E+03  0.76565616790E+02 0.  0.
         24    2    1    2    0    0  0.13698924905E+02  0.63336808195E+02 -0.28532766287E+02  0.10758142969E+03  0.80996502674E+02 0.  0.
        -13    1    4    4    0    0  0.30747251980E+02  0.62838629269E+01  0.14041982269E+02  0.34381066064E+02  0.00000000000E+00 0.  1.
         14    1    4    4    0    0 -0.17048327076E+02  0.57052945268E+02 -0.42574748556E+02  0.73200363622E+02  0.00000000000E+00 0. -1.
        -13    1    3    3    0    0 -0.72144436615E+02  0.98033335435E+02 -0.90310582587E+02  0.15156304272E+03  0.00000000000E+00 0.  1.
         13    1    3    3    0    0  0.17391776831E+02  0.43754680971E+02 -0.53320069100E+02  0.71133506712E+02  0.00000000000E+00 0. -1.
          1    1    1    2  501    0  0.41053734879E+02 -0.20512482460E+03 -0.12733394641E+03  0.24489903373E+03  0.00000000000E+00 0. -1.
<scales pt_clust_5="13000.00000" pt_clust_6="13000.00000" pt_clust_7="13000.00000" pt_clust_8="13000.00000" pt_clust_9="13000.00000"></scales>
<clustering>
<clus scale="   76.566">  7  8 -1 -1</clus>
<clus scale="   80.997">  5  6 -1 -1</clus>
<clus scale="  170.188">  2  7  1 -1</clus>
<clus scale="  101.306">  5  9 -1 -1</clus>
<clus scale="  316.146">  1  5  2 -1</clus>
</clustering>
</event>
<event>
 9    2  0.6085395E-005  0.3868477E+03  0.7546771E-02  0.1097478E+00
         -3   -1    0    0    0  501 -0.00000000000E+00  0.00000000000E+00  0.67755150796E+02  0.67755150796E+02  0.00000000000E+00 0.  1.
         21   -1    0    0  501  502  0.00000000000E+00 -0.00000000000E+00 -0.96918130564E+03  0.96918130564E+03  0.00000000000E+00 0.  1.
         23    2    1    2    0    0 -0.10037309445E+02 -0.42081981949E+02 -0.80442154729E+02  0.12937606486E+03  0.91627425562E+02 0.  0.
         24    2    1    2    0    0 -0.15031445709E+03  0.47593130657E+00 -0.63866234091E+03  0.66121725712E+03  0.82000078604E+02 0.  0.
        -11    1    4    4    0    0 -0.15279802213E+03  0.11141834436E+02 -0.62600771883E+03  0.64448199360E+03  0.00000000000E+00 0.  1.
         12    1    4    4    0    0  0.24835650463E+01 -0.10665903130E+02 -0.12654622084E+02  0.16735263518E+02  0.00000000000E+00 0. -1.
        -11    1    3    3    0    0 -0.29659367401E+02 -0.54777810431E+02 -0.21381476576E+02  0.65859351127E+02  0.00000000000E+00 0. -1.
         11    1    3    3    0    0  0.19622057956E+02  0.12695828482E+02 -0.59060678153E+02  0.63516713731E+02  0.00000000000E+00 0.  1.
         -4    1    1    2    0  502  0.16035176653E+03  0.41606050643E+02 -0.18232165920E+03  0.24634313446E+03  0.00000000000E+00 0.  1.
<scales pt_clust_5="13000.00000" pt_clust_6="13000.00000" pt_clust_7="13000.00000" pt_clust_8="13000.00000" pt_clust_9="13000.00000"></scales>
<clustering>
<clus scale="   82.000">  5  6 -1 -1</clus>
<clus scale="   91.627">  7  8 -1 -1</clus>
<clus scale="  101.327">  1  7  2 -1</clus>
<clus scale="  153.289">  5  9 -1 -1</clus>
<clus scale="  386.848">  2  5  1 -1</clus>
</clustering>
</event>
<event>
 9    2  0.6085395E-005  0.1966948E+03  0.7546771E-02  0.1181046E+00
         21   -1    0    0  501  502  0.00000000000E+00  0.00000000000E+00  0.40453222567E+02  0.40453222567E+02  0.00000000000E+00 0.  1.
          2   -1    0    0  502    0 -0.00000000000E+00 -0.00000000000E+00 -0.69499669772E+03  0.69499669772E+03  0.00000000000E+00 0. -1.
         23    2    1    2    0    0 -0.47581120875E+02 -0.40529329180E+01 -0.40514870903E+03  0.41782338949E+03  0.90280225127E+02 0.  0.
         24    2    1    2    0    0 -0.28137765711E+02  0.50217709873E+02 -0.10802692175E+03  0.15074512428E+03  0.87981386826E+02 0.  0.
        -13    1    4    4    0    0 -0.56682053465E+02  0.47435795543E+02 -0.91575357848E+02  0.11768201243E+03  0.00000000000E+00 0.  1.
         14    1    4    4    0    0  0.28544287754E+02  0.27819143298E+01 -0.16451563903E+02  0.33063111856E+02  0.00000000000E+00 0. -1.
        -11    1    3    3    0    0 -0.51200934673E+02 -0.35102003223E+02 -0.33929444492E+03  0.34492666858E+03  0.00000000000E+00 0. -1.
         11    1    3    3    0    0  0.36198137987E+01  0.31049070305E+02 -0.65854264105E+02  0.72896720911E+02  0.00000000000E+00 0.  1.
          1    1    1    2  501    0  0.75718886586E+02 -0.46164776955E+02 -0.14136784437E+03  0.16688140651E+03  0.00000000000E+00 0. -1.
<scales pt_clust_5="13000.00000" pt_clust_6="13000.00000" pt_clust_7="13000.00000" pt_clust_8="13000.00000" pt_clust_9="13000.00000"></scales>
<clustering>
<clus scale="   87.981">  5  6 -1 -1</clus>
<clus scale="   88.682">  5  9 -1 -1</clus>
<clus scale="   90.280">  7  8 -1 -1</clus>
<clus scale="  102.132">  2  7  1 -1</clus>
<clus scale="  196.695">  1  5  2 -1</clus>
</clustering>
</event>
<event>
 9    2  0.6085395E-005  0.6389716E+03  0.7546771E-02  0.1032648E+00
         21   -1    0    0  501  502  0.00000000000E+00  0.00000000000E+00  0.39702818996E+03  0.39702818996E+03  0.00000000000E+00 0.  1.
         -3   -1    0    0    0  501 -0.00000000000E+00 -0.00000000000E+00 -0.88887863022E+03  0.88887863022E+03  0.00000000000E+00 0.  1.
         23    2    1    2    0    0 -0.96431854285E+02  0.27460294315E+01  0.26356205360E+03  0.29649652802E+03  0.95595982303E+02 0.  0.
         24    2    1    2    0    0 -0.26056358284E+03  0.46617163554E+02 -0.36583387254E+03  0.45869947717E+03  0.80648914552E+02 0.  0.
        -11    1    4    4    0    0 -0.21942960168E+03  0.65248997590E+02 -0.32683208596E+03  0.39903131981E+03  0.00000000000E+00 0.  1.
         12    1    4    4    0    0 -0.41133981166E+02 -0.18631834036E+02 -0.39001786576E+02  0.59668157356E+02  0.00000000000E+00 0. -1.
        -11    1    3    3    0    0 -0.85990007712E+02  0.41630927735E+02  0.18730088001E+03  0.21025944741E+03  0.00000000000E+00 0.  1.
         11    1    3    3    0    0 -0.10441846573E+02 -0.38884898304E+02  0.76261173587E+02  0.86237080614E+02  0.00000000000E+00 0. -1.
         -4    1    1    2    0  502  0.35699543713E+03 -0.49363192985E+02 -0.38957862133E+03  0.53071081499E+03  0.00000000000E+00 0.  1.
<scales pt_clust_5="13000.00000" pt_clust_6="13000.00000" pt_clust_7="13000.00000" pt_clust_8="13000.00000" pt_clust_9="13000.00000"></scales>
<clustering>
<clus scale="   80.649">  5  6 -1 -1</clus>
<clus scale="   95.596">  7  8 -1 -1</clus>
<clus scale="  135.813">  2  7  1 -1</clus>
<clus scale="  309.861">  5  9 -1 -1</clus>
<clus scale="  638.972">  1  5  2 -1</clus>
</clustering>
</event>
<event>
 9    2  0.6085395E-005  0.1987586E+03  0.7546771E-02  0.1173306E+00
         21   -1    0    0  501  502  0.00000000000E+00  0.00000000000E+00  0.16987761820E+03  0.16987761820E+03  0.00000000000E+00 0. -1.
         -3   -1    0    0    0  501 -0.00000000000E+00 -0.00000000000E+00 -0.29757287525E+03  0.29757287525E+03  0.00000000000E+00 0.  1.
         23    2    1    2    0    0 -0.14999084638E+02 -0.73792690983E+02 -0.21900445081E+03  0.24872155572E+03  0.90714546924E+02 0.  0.
         24    2    1    2    0    0  0.29033430299E+02 -0.13581085383E+02  0.96143111224E+02  0.13010328449E+03  0.81584194812E+02 0.  0.
        -11    1    4    4    0    0 -0.26900391173E+02 -0.16439407008E+02  0.31369178719E+02  0.44473705957E+02  0.00000000000E+00 0.  1.
         12    1    4    4    0    0  0.55933821472E+02  0.28583216252E+01  0.64773932505E+02  0.85629578529E+02  0.00000000000E+00 0. -1.
        -11    1    3    3    0    0 -0.14855217561E+02 -0.37887845103E+02 -0.17937321743E+02  0.44473742890E+02  0.00000000000E+00 0. -1.
         11    1    3    3    0    0 -0.14386707734E+00 -0.35904845880E+02 -0.20106712906E+03  0.20424781283E+03  0.00000000000E+00 0.  1.
         -4    1    1    2    0  502 -0.14034345661E+02  0.87373776366E+02 -0.48339174661E+01  0.88625653242E+02  0.00000000000E+00 0.  1.
<scales pt_clust_5="13000.00000" pt_clust_6="13000.00000" pt_clust_7="13000.00000" pt_clust_8="13000.00000" pt_clust_9="13000.00000"></scales>
<clustering>
<clus scale="   81.584">  5  6 -1 -1</clus>
<clus scale="   88.494">  5  9 -1 -1</clus>
<clus scale="   90.715">  7  8 -1 -1</clus>
<clus scale="  117.896">  2  7  1 -1</clus>
<clus scale="  198.759">  1  5  2 -1</clus>
</clustering>
</event>
<event>
 9    2  0.6085395E-005  0.2138077E+03  0.7546771E-02  0.1157214E+00
          2   -1    0    0  502    0 -0.00000000000E+00  0.00000000000E+00  0.37276866116E+03  0.37276866116E+03  0.00000000000E+00 0. -1.
         21   -1    0    0  501  502  0.00000000000E+00 -0.00000000000E+00 -0.93972642387E+02  0.93972642387E+02  0.00000000000E+00 0. -1.
         23    2    1    2    0    0  0.81157905689E+02  0.66764117766E+02  0.19190528232E+03  0.23595192402E+03  0.88326779575E+02 0.  0.
         24    2    1    2    0    0 -0.21082092769E+02  0.37816293148E+02  0.26381954302E+02  0.95854290087E+02  0.81348083889E+02 0.  0.
        -11    1    4    4    0    0 -0.31615701860E+02 -0.12835188812E+02  0.27931248569E+02  0.44095910496E+02  0.00000000000E+00 0.  1.
         12    1    4    4    0    0  0.10533609091E+02  0.50651481959E+02 -0.15492942667E+01  0.51758379591E+02  0.00000000000E+00 0. -1.
        -11    1    3    3    0    0 -0.14326828820E+02  0.17250506982E+02  0.98385620066E+01  0.24487452247E+02  0.00000000000E+00 0.  1.
         11    1    3    3    0    0  0.95484734510E+02  0.49513610783E+02  0.18206672031E+03  0.21146447178E+03  0.00000000000E+00 0. -1.
          1    1    1    2  501    0 -0.60075812920E+02 -0.10458041091E+03  0.60508782155E+02  0.13493508944E+03  0.00000000000E+00 0. -1.
<scales pt_clust_5="13000.00000" pt_clust_6="13000.00000" pt_clust_7="13000.00000" pt_clust_8="13000.00000" pt_clust_9="13000.00000"></scales>
<clustering>
<clus scale="   81.348">  5  6 -1 -1</clus>
<clus scale="   88.327">  7  8 -1 -1</clus>
<clus scale="  120.608">  5  9 -1 -1</clus>
<clus scale="  137.280">  1  7  2 -1</clus>
<clus scale="  213.808">  2  5  1 -1</clus>
</clustering>
</event>
<event>
 9    2  0.1229991E-004  0.4571418E+03  0.7546771E-02  0.1077868E+00
         -1   -1    0    0    0  501 -0.00000000000E+00  0.00000000000E+00  0.99663073063E+03  0.99663073063E+03  0.00000000000E+00 0.  1.
         21   -1    0    0  501  502  0.00000000000E+00 -0.00000000000E+00 -0.82821085321E+02  0.82821085321E+02  0.00000000000E+00 0.  1.
         23    2    1    2    0    0 -0.45928940990E+02 -0.92740681259E+01  0.88831297354E+02  0.13628275208E+03  0.92122272905E+02 0.  0.
         24    2    1    2    0    0 -0.76034923018E+02 -0.14617350517E+03  0.14562503973E+03  0.23566637867E+03  0.84758401977E+02 0.  0.
        -11    1    4    4    0    0 -0.51389542352E+02 -0.10185107555E+03  0.44341252105E+02  0.12239556075E+03  0.00000000000E+00 0.  1.
         12    1    4    4    0    0 -0.24645380666E+02 -0.44322429624E+02  0.10128378762E+03  0.11327081791E+03  0.00000000000E+00 0. -1.
        -11    1    3    3    0    0 -0.34178659216E+01 -0.46316416918E+02  0.46997414801E+02  0.66073060180E+02  0.00000000000E+00 0.  1.
         11    1    3    3    0    0 -0.42511075068E+02  0.37042348792E+02  0.41833882554E+02  0.70209691902E+02  0.00000000000E+00 0. -1.
         -2    1    1    2    0  502  0.12196386401E+03  0.15544757330E+03  0.67935330823E+03  0.70750268520E+03  0.00000000000E+00 0.  1.
<scales pt_clust_5="13000.00000" pt_clust_6="13000.00000" pt_clust_7="13000.00000" pt_clust_8="13000.00000" pt_clust_9="13000.00000"></scales>
<clustering>
<clus scale="   84.758">  5  6 -1 -1</clus>
<clus scale="   92.122">  7  8 -1 -1</clus>
<clus scale="  103.354">  1  7  2 -1</clus>
<clus scale="  171.292">  5  9 -1 -1</clus>
<clus scale="  457.142">  2  5  1 -1</clus>
</clustering>
</event>
<event>
 9    2  0.6085395E-005  0.1429027E+03  0.7546771E-02  0.1224677E+00
          2   -1    0    0  502    0 -0.00000000000E+00  0.00000000000E+00  0.43667715452E+03  0.43667715452E+03  0.00000000000E+00 0. -1.
         21   -1    0    0  501  502  0.00000000000E+00 -0.00000000000E+00 -0.10993779946E+03  0.10993779946E+03  0.00000000000E+00 0. -1.
         23    2    1    2    0    0 -0.22646914944E+02  0.45206475282E+02  0.38016478824E+03  0.39405202921E+03  0.90527494973E+02 0.  0.
         24    2    1    2    0    0 -0.11899767086E+02 -0.14518533622E+02 -0.65792624552E+02  0.10472810037E+03  0.79290057933E+02 0.  0.
        -11    1    4    4    0    0 -0.24493867116E+02  0.21397481242E+02 -0.48592149923E+01  0.32884855179E+02  0.00000000000E+00 0.  1.
         12    1    4    4    0    0  0.12594100030E+02 -0.35916014865E+02 -0.60933409560E+02  0.71843245193E+02  0.00000000000E+00 0. -1.
        -11    1    3    3    0    0  0.34341111406E+02  0.20760662386E+02  0.11737563186E+03  0.12404578183E+03  0.00000000000E+00 0. -1.
         11    1    3    3    0    0 -0.56988026350E+02  0.24445812896E+02  0.26278915638E+03  0.27000624738E+03  0.00000000000E+00 0.  1.
          1    1    1    2  501    0  0.34546682030E+02 -0.30687941660E+02  0.12367191373E+02  0.47834824397E+02  0.00000000000E+00 0. -1.
<scales pt_clust_5="13000.00000" pt_clust_6="13000.00000" pt_clust_7="13000.00000" pt_clust_8="13000.00000" pt_clust_9="13000.00000"></scales>
<clustering>
<clus scale="   79.290">  5  6 -1 -1</clus>
<clus scale="   46.208">  5  9 -1 -1</clus>
<clus scale="   90.527">  7  8 -1 -1</clus>
<clus scale="  103.691">  1  7  2 -1</clus>
<clus scale="  142.903">  2  5  1 -1</clus>
</clustering>
</event>
<event>
 9    2  0.6085395E-005  0.1422466E+03  0.7546771E-02  0.1220851E+00
         21   -1    0    0  501  502  0.00000000000E+00  0.00000000000E+00  0.18477164910E+02  0.18477164910E+02  0.00000000000E+00 0.  1.
         -1   -1    0    0    0  501 -0.00000000000E+00 -0.00000000000E+00 -0.88984853722E+03  0.88984853722E+03  0.00000000000E+00 0.  1.
         23    2    1    2    0    0  0.67191191367E+02 -0.79511108962E+00 -0.41018443469E+03  0.42570009920E+03  0.91945720920E+02 0.  0.
         24    2    1    2    0    0 -0.30048435650E+02  0.26863279157E+02 -0.25194036121E+03  0.26851520284E+03  0.83677501738E+02 0.  0.
        -11    1    4    4    0    0 -0.74330773882E+01 -0.30092512640E+02 -0.70753267176E+02  0.77245289646E+02  0.00000000000E+00 0.  1.
         12    1    4    4    0    0 -0.22615358262E+02  0.56955791797E+02 -0.18118709404E+03  0.19126991319E+03  0.00000000000E+00 0. -1.
        -11    1    3    3    0    0  0.58079847917E+02  0.34574180518E+02 -0.33921574308E+03  0.34588432033E+03  0.00000000000E+00 0.  1.
         11    1    3    3    0    0  0.91113434505E+01 -0.35369291608E+02 -0.70968691607E+02  0.79815778870E+02  0.00000000000E+00 0. -1.
         -2    1    1    2    0  502 -0.37142755717E+02 -0.26068168067E+02 -0.20924657640E+03  0.21411040009E+03  0.00000000000E+00 0.  1.
<scales pt_clust_5="13000.00000" pt_clust_6="13000.00000" pt_clust_7="13000.00000" pt_clust_8="13000.00000" pt_clust_9="13000.00000"></scales>
<clustering>
<clus scale="   83.678">  5  6 -1 -1</clus>
<clus scale="   45.378">  5  9 -1 -1</clus>
<clus scale="   91.946">  7  8 -1 -1</clus>
<clus scale="  113.883">  2  7  1 -1</clus>
<clus scale="  142.247">  1  5  2 -1</clus>
</clustering>
</event>
<event>
 9    2  0.6085395E-005  0.2097479E+03  0.7546771E-02  0.1155431E+00
         21   -1    0    0  501  502  0.00000000000E+00  0.00000000000E+00  0.37405219391E+02  0.37405219391E+02  0.00000000000E+00 0.  1.
          2   -1    0    0  502    0 -0.00000000000E+00 -0.00000000000E+00 -0.90982988006E+03  0.90982988006E+03  0.00000000000E+00 0. -1.
         23    2    1    2    0    0 -0.25312324252E+02  0.11634128250E+03 -0.46333333743E+03  0.48750702265E+03  0.93857912728E+02 0.  0.
         24    2    1    2    0    0  0.19445076486E+01  0.63683913659E+01 -0.20737406519E+03  0.22246541412E+03  0.80265310348E+02 0.  0.
        -11    1    4    4    0    0 -0.18751581117E+02  0.96876728919E+01 -0.89303066742E+01  0.22917748095E+02  0.00000000000E+00 0.  1.
         12    1    4    4    0    0  0.20696088765E+02 -0.33192815261E+01 -0.19844375852E+03  0.19954766602E+03  0.00000000000E+00 0. -1.
        -11    1    3    3    0    0  0.82088131197E+00  0.74185924762E+02 -0.40121470426E+03  0.40801649991E+03  0.00000000000E+00 0.  1.
         11    1    3    3    0    0 -0.26133205564E+02  0.42155357734E+02 -0.62118633171E+02  0.79490522742E+02  0.00000000000E+00 0. -1.
          1    1    1    2  501    0  0.23367816604E+02 -0.12270967386E+03 -0.20171725804E+03  0.23726266268E+03  0.00000000000E+00 0. -1.
<scales pt_clust_5="13000.00000" pt_clust_6="13000.00000" pt_clust_7="13000.00000" pt_clust_8="13000.00000" pt_clust_9="13000.00000"></scales>
<clustering>
<clus scale="   80.265">  5  6 -1 -1</clus>
<clus scale="   93.858">  7  8 -1 -1</clus>
<clus scale="  124.915">  5  9 -1 -1</clus>
<clus scale="  151.609">  2  7  1 -1</clus>
<clus scale="  209.748">  1  5  2 -1</clus>
</clustering>
</event>
<event>
 9    2  0.6085395E-005  0.2955930E+03  0.7546771E-02  0.1127229E+00
          2   -1    0    0  502    0 -0.00000000000E+00  0.00000000000E+00  0.88603418644E+03  0.88603418644E+03  0.00000000000E+00 0. -1.
         21   -1    0    0  501  502  0.00000000000E+00 -0.00000000000E+00 -0.46246090773E+02  0.46246090773E+02  0.00000000000E+00 0.  1.
         23    2    1    2    0    0  0.55193349298E+02 -0.63129246073E+01  0.27076041465E+03  0.29105664557E+03  0.91195449252E+02 0.  0.
         24    2    1    2    0    0  0.10118892091E+02  0.10702697638E+03  0.13485944557E+03  0.19076712345E+03  0.81534407961E+02 0.  0.
        -11    1    4    4    0    0  0.49994829032E+01  0.65059421646E+02  0.13335344782E+03  0.14846166246E+03  0.00000000000E+00 0.  1.
         12    1    4    4    0    0  0.51194091882E+01  0.41967554732E+02  0.15059977467E+01  0.42305460993E+02  0.00000000000E+00 0. -1.
        -13    1    3    3    0    0  0.27995158897E+02 -0.45073671617E+02  0.92735897298E+02  0.10684246086E+03  0.00000000000E+00 0.  1.
         13    1    3    3    0    0  0.27198190401E+02  0.38760747010E+02  0.17802451735E+03  0.18421418471E+03  0.00000000000E+00 0. -1.
          1    1    1    2  501    0 -0.65312241390E+02 -0.10071405177E+03  0.43416823545E+03  0.45045650819E+03  0.00000000000E+00 0. -1.
<scales pt_clust_5="13000.00000" pt_clust_6="13000.00000" pt_clust_7="13000.00000" pt_clust_8="13000.00000" pt_clust_9="13000.00000"></scales>
<clustering>
<clus scale="   81.534">  5  6 -1 -1</clus>
<clus scale="   91.195">  7  8 -1 -1</clus>
<clus scale="  106.784">  1  7  2 -1</clus>
<clus scale="  108.248">  5  9 -1 -1</clus>
<clus scale="  295.593">  2  5  1 -1</clus>
</clustering>
</event>
<event>
 9    2  0.6085395E-005  0.2619857E+03  0.7546771E-02  0.1112706E+00
          2   -1    0    0  502    0 -0.00000000000E+00  0.00000000000E+00  0.15916339155E+04  0.15916339155E+04  0.00000000000E+00 0. -1.
         21   -1    0    0  501  502  0.00000000000E+00 -0.00000000000E+00 -0.49627837762E+02  0.49627837762E+02  0.00000000000E+00 0. -1.
         23    2    1    2    0    0  0.16142071479E+03  0.11917257221E+03  0.11419587817E+04  0.11630627126E+04  0.91576554349E+02 0.  0.
         24    2    1    2    0    0 -0.29539013260E+02 -0.28413395857E+01  0.11213247026E+03  0.14082582624E+03  0.79859851832E+02 0.  0.
        -11    1    4    4    0    0 -0.33560664063E+02  0.23330114547E+02  0.10605511175E+03  0.11365869586E+03  0.00000000000E+00 0.  1.
         12    1    4    4    0    0  0.40216508025E+01 -0.26171454132E+02  0.60773585139E+01  0.27167130380E+02  0.00000000000E+00 0. -1.
        -13    1    3    3    0    0  0.23028470365E+02  0.60202092847E+02  0.23350068400E+03  0.24223371330E+03  0.00000000000E+00 0.  1.
         13    1    3    3    0    0  0.13839224442E+03  0.58970479358E+02  0.90845809768E+03  0.92082899932E+03  0.00000000000E+00 0. -1.
          1    1    1    2  501    0 -0.13188170153E+03 -0.11633123262E+03  0.28791482580E+03  0.33737321440E+03  0.00000000000E+00 0. -1.
<scales pt_clust_5="13000.00000" pt_clust_6="13000.00000" pt_clust_7="13000.00000" pt_clust_8="13000.00000" pt_clust_9="13000.00000"></scales>
<clustering>
<clus scale="   79.860">  5  6 -1 -1</clus>
<clus scale="   91.577">  7  8 -1 -1</clus>
<clus scale="  175.857">  5  9 -1 -1</clus>
<clus scale="  220.556">  1  7  2 -1</clus>
<clus scale="  261.986">  2  5  1 -1</clus>
</clustering>
</event>
<event>
 9    2  0.6085395E-005  0.2416955E+03  0.7546771E-02  0.1153842E+00
          2   -1    0    0  502    0 -0.00000000000E+00  0.00000000000E+00  0.47264842892E+03  0.47264842892E+03  0.00000000000E+00 0. -1.
         21   -1    0    0  501  502  0.00000000000E+00 -0.00000000000E+00 -0.62795957235E+02  0.62795957235E+02  0.00000000000E+00 0. -1.
         23    2    1    2    0    0 -0.29696951392E+02  0.36618735629E+02  0.12045787419E+03  0.15839541137E+03  0.91412067952E+02 0.  0.
         24    2    1    2    0    0 -0.66167309427E+02 -0.41381868993E+02  0.24867366893E+03  0.27278566405E+03  0.80516165917E+02 0.  0.
        -13    1    4    4    0    0 -0.56538336094E+02 -0.12197142404E+02  0.66916686893E+02  0.88448836713E+02  0.00000000000E+00 0.  1.
         14    1    4    4    0    0 -0.96289733334E+01 -0.29184726590E+02  0.18175698204E+03  0.18433682734E+03  0.00000000000E+00 0. -1.
        -13    1    3    3    0    0  0.24031390243E+02  0.22804690895E+02  0.88213724707E+02  0.94229628411E+02  0.00000000000E+00 0.  1.
         13    1    3    3    0    0 -0.53728341635E+02  0.13814044735E+02  0.32244149485E+02  0.64165782960E+02  0.00000000000E+00 0. -1.
          1    1    1    2  501    0  0.95864260820E+02  0.47631333638E+01  0.40720928560E+02  0.10426331073E+03  0.00000000000E+00 0. -1.
<scales pt_clust_5="13000.00000" pt_clust_6="13000.00000" pt_clust_7="13000.00000" pt_clust_8="13000.00000" pt_clust_9="13000.00000"></scales>
<clustering>
<clus scale="   80.516">  5  6 -1 -1</clus>
<clus scale="   91.412">  7  8 -1 -1</clus>
<clus scale="   95.983">  5  9 -1 -1</clus>
<clus scale="  102.854">  1  7  2 -1</clus>
<clus scale="  241.695">  2  5  1 -1</clus>
</clustering>
</event>
<event>
 9    2  0.6085395E-005  0.6514357E+03  0.7546771E-02  0.1032790E+00
         21   -1    0    0  501  502  0.00000000000E+00  0.00000000000E+00  0.10115434970E+03  0.10115434970E+03  0.00000000000E+00 0. -1.
          2   -1    0    0  502    0 -0.00000000000E+00 -0.00000000000E+00 -0.17124778333E+04  0.17124778333E+04  0.00000000000E+00 0. -1.
         23    2    1    2    0    0 -0.80555539387E+02 -0.38831476139E+02 -0.57939271481E+03  0.59328403052E+03  0.91065605089E+02 0.  0.
         24    2    1    2    0    0 -0.17869206253E+03 -0.17410106044E+03 -0.70417680582E+03  0.75133616491E+03  0.79993914692E+02 0.  0.
        -11    1    4    4    0    0 -0.67910780827E+02 -0.71859048334E+02 -0.17384290605E+03  0.19999238226E+03  0.00000000000E+00 0.  1.
         12    1    4    4    0    0 -0.11078128170E+03 -0.10224201211E+03 -0.53033389977E+03  0.55134378264E+03  0.00000000000E+00 0. -1.
        -13    1    3    3    0    0  0.89644003605E+01 -0.29787998106E+02 -0.79706381194E+02  0.85561629882E+02  0.00000000000E+00 0.  1.
         13    1    3    3    0    0 -0.89519939748E+02 -0.90434780329E+01 -0.49968633361E+03  0.50772240064E+03  0.00000000000E+00 0. -1.
          1    1    1    2  501    0  0.25924760192E+03  0.21293253658E+03 -0.32775396293E+03  0.46901198754E+03  0.00000000000E+00 0. -1.
<scales pt_clust_5="13000.00000" pt_clust_6="13000.00000" pt_clust_7="13000.00000" pt_clust_8="13000.00000" pt_clust_9="13000.00000"></scales>
<clustering>
<clus scale="   79.994">  5  6 -1 -1</clus>
<clus scale="   91.066">  7  8 -1 -1</clus>
<clus scale="  127.632">  2  7  1 -1</clus>
<clus scale="  304.835">  5  9 -1 -1</clus>
<clus scale="  651.436">  1  5  2 -1</clus>
</clustering>
</event>
<event>
 9    2  0.6085395E-005  0.2809918E+03  0.7546771E-02  0.1120141E+00
         -3   -1    0    0    0  501 -0.00000000000E+00  0.00000000000E+00  0.18258710845E+03  0.18258710845E+03  0.00000000000E+00 0.  1.
         21   -1    0    0  501  502  0.00000000000E+00 -0.00000000000E+00 -0.52995396041E+03  0.52995396041E+03  0.00000000000E+00 0.  1.
         23    2    1    2    0    0  0.50775400553E+02 -0.10151748984E+03  0.10383730609E+03  0.18099467260E+03  0.95356925953E+02 0.  0.
         24    2    1    2    0    0 -0.14432066400E+03  0.72125570599E+02 -0.26309893837E+03  0.31941866375E+03  0.82320589125E+02 0.  0.
        -11    1    4    4    0    0 -0.11271138325E+03  0.12492729844E+02 -0.17269451626E+03  0.20659941955E+03  0.00000000000E+00 0.  1.
         12    1    4    4    0    0 -0.31609280748E+02  0.59632840754E+02 -0.90404422105E+02  0.11281924420E+03  0.00000000000E+00 0. -1.
        -13    1    3    3    0    0  0.58375579426E+02 -0.77163314301E+02  0.27621571153E+02  0.10062224675E+03  0.00000000000E+00 0.  1.
         13    1    3    3    0    0 -0.76001788735E+01 -0.24354175541E+02  0.76215734935E+02  0.80372425850E+02  0.00000000000E+00 0. -1.
         -4    1    1    2    0  502  0.93545263443E+02  0.29391919244E+02 -0.18810521968E+03  0.21212773251E+03  0.00000000000E+00 0.  1.
<scales pt_clust_5="13000.00000" pt_clust_6="13000.00000" pt_clust_7="13000.00000" pt_clust_8="13000.00000" pt_clust_9="13000.00000"></scales>
<clustering>
<clus scale="   82.321">  5  6 -1 -1</clus>
<clus scale="   95.357">  7  8 -1 -1</clus>
<clus scale="   98.054">  5  9 -1 -1</clus>
<clus scale="  148.246">  1  7  2 -1</clus>
<clus scale="  280.992">  2  5  1 -1</clus>
</clustering>
</event>
<event>
 9    2  0.6085395E-005  0.1001921E+04  0.7546771E-02  0.9907873E-01
          2   -1    0    0  502    0 -0.00000000000E+00  0.00000000000E+00  0.23931846094E+04  0.23931846094E+04  0.00000000000E+00 0. -1.
         21   -1    0    0  501  502  0.00000000000E+00 -0.00000000000E+00 -0.13344915484E+03  0.13344915484E+03  0.00000000000E+00 0. -1.
         23    2    1    2    0    0 -0.87725792865E+02  0.20132795835E+02  0.28015103508E+03  0.30794059760E+03  0.90783616309E+02 0.  0.
         24    2    1    2    0    0  0.52033313007E+03 -0.12673275025E+03  0.90242287277E+03  0.10530218338E+04  0.87636664467E+02 0.  0.
        -13    1    4    4    0    0  0.17507808908E+03 -0.44323041203E+02  0.22768549538E+03  0.29061581867E+03  0.00000000000E+00 0.  1.
         14    1    4    4    0    0  0.34525504099E+03 -0.82409709046E+02  0.67473737739E+03  0.76240601514E+03  0.00000000000E+00 0. -1.
        -11    1    3    3    0    0 -0.38054205123E+02  0.54431518336E+02  0.16642980162E+03  0.17919205224E+03  0.00000000000E+00 0.  1.
         11    1    3    3    0    0 -0.49671587741E+02 -0.34298722500E+02  0.11372123346E+03  0.12874854536E+03  0.00000000000E+00 0. -1.
          1    1    1    2  501    0 -0.43260733721E+03  0.10659995441E+03  0.10771615467E+04  0.11656713328E+04  0.00000000000E+00 0. -1.
<scales pt_clust_5="13000.00000" pt_clust_6="13000.00000" pt_clust_7="13000.00000" pt_clust_8="13000.00000" pt_clust_9="13000.00000"></scales>
<clustering>
<clus scale="   87.637">  5  6 -1 -1</clus>
<clus scale="   90.784">  7  8 -1 -1</clus>
<clus scale="  127.839">  1  7  2 -1</clus>
<clus scale="  493.626">  5  9 -1 -1</clus>
<clus scale=" 1001.921">  2  5  1 -1</clus>
</clustering>
</event>
<event>
 9    2  0.6085395E-005  0.3064387E+03  0.7546771E-02  0.1089057E+00
          2   -1    0    0  502    0 -0.00000000000E+00  0.00000000000E+00  0.50318910964E+03  0.50318910964E+03  0.00000000000E+00 0. -1.
         21   -1    0    0  501  502  0.00000000000E+00 -0.00000000000E+00 -0.17348460198E+03  0.17348460198E+03  0.00000000000E+00 0.  1.
         23    2    1    2    0    0 -0.17151990965E+03  0.16510475580E+03  0.25732237217E+03  0.36180258135E+03  0.89485444940E+02 0.  0.
         24    2    1    2    0    0  0.23206063392E+02 -0.86522260077E+01  0.42718889348E+02  0.97260700270E+02  0.83793543408E+02 0.  0.
        -13    1    4    4    0    0  0.27540084916E+02  0.34367941876E+02  0.23858590686E+02  0.50088362476E+02  0.00000000000E+00 0.  1.
         14    1    4    4    0    0 -0.43340215246E+01 -0.43020167884E+02  0.18860298662E+02  0.47172337794E+02  0.00000000000E+00 0. -1.
        -11    1    3    3    0    0 -0.84125286161E+02  0.81624700893E+02  0.63298063080E+02  0.13321524071E+03  0.00000000000E+00 0.  1.
         11    1    3    3    0    0 -0.87394623490E+02  0.83480054911E+02  0.19402430909E+03  0.22858734064E+03  0.00000000000E+00 0. -1.
          1    1    1    2  501    0  0.14831384626E+03 -0.15645252980E+03  0.29663246139E+02  0.21761043000E+03  0.00000000000E+00 0. -1.
<scales pt_clust_5="13000.00000" pt_clust_6="13000.00000" pt_clust_7="13000.00000" pt_clust_8="13000.00000" pt_clust_9="13000.00000"></scales>
<clustering>
<clus scale="   83.794">  5  6 -1 -1</clus>
<clus scale="   89.485">  7  8 -1 -1</clus>
<clus scale="  215.579">  5  9 -1 -1</clus>
<clus scale="  254.335">  1  7  2 -1</clus>
<clus scale="  306.439">  2  5  1 -1</clus>
</clustering>
</event>
<event>
 9    2  0.6085395E-005  0.3622837E+03  0.7546771E-02  0.1088166E+00
         21   -1    0    0  501  502  0.00000000000E+00  0.00000000000E+00  0.12350158325E+03  0.12350158325E+03  0.00000000000E+00 0. -1.
          2   -1    0    0  502    0 -0.00000000000E+00 -0.00000000000E+00 -0.54865394770E+03  0.54865394770E+03  0.00000000000E+00 0. -1.
         23    2    1    2    0    0 -0.73353741780E+02  0.10646559341E+03 -0.11270239968E+03  0.19374726495E+03  0.90113693575E+02 0.  0.
         24    2    1    2    0    0 -0.11620023202E+02  0.84066672648E+02 -0.22056813942E+03  0.25044915788E+03  0.82899011853E+02 0.  0.
        -13    1    4    4    0    0  0.32239662133E+02  0.47992253622E+02 -0.78842093323E+02  0.97768747061E+02  0.00000000000E+00 0.  1.
         14    1    4    4    0    0 -0.43859685335E+02  0.36074419026E+02 -0.14172604610E+03  0.15268041082E+03  0.00000000000E+00 0. -1.
        -13    1    3    3    0    0 -0.76540239257E+02  0.56662014015E+02 -0.10743248135E+03  0.14356437618E+03  0.00000000000E+00 0.  1.
         13    1    3    3    0    0  0.31864974773E+01  0.49803579393E+02 -0.52699183283E+01  0.50182888774E+02  0.00000000000E+00 0. -1.
          1    1    1    2  501    0  0.84973764982E+02 -0.19053226606E+03 -0.91881825356E+02  0.22795910812E+03  0.00000000000E+00 0. -1.
<scales pt_clust_5="13000.00000" pt_clust_6="13000.00000" pt_clust_7="13000.00000" pt_clust_8="13000.00000" pt_clust_9="13000.00000"></scales>
<clustering>
<clus scale="   82.899">  5  6 -1 -1</clus>
<clus scale="   90.114">  7  8 -1 -1</clus>
<clus scale="  157.595">  2  7  1 -1</clus>
<clus scale="  157.505">  5  9 -1 -1</clus>
<clus scale="  362.284">  1  5  2 -1</clus>
</clustering>
</event>
<event>
 9    2  0.6085395E-005  0.4777653E+03  0.7546771E-02  0.1046635E+00
         21   -1    0    0  501  502  0.00000000000E+00  0.00000000000E+00  0.11135613466E+03  0.11135613466E+03  0.00000000000E+00 0. -1.
          2   -1    0    0  502    0 -0.00000000000E+00 -0.00000000000E+00 -0.11575069712E+04  0.11575069712E+04  0.00000000000E+00 0. -1.
         23    2    1    2    0    0 -0.18427672056E+03 -0.67876318759E+02 -0.18725336199E+03  0.28602816759E+03  0.90460967794E+02 0.  0.
         24    2    1    2    0    0 -0.20251386782E+02 -0.20990593761E+02  0.72190647084E+01  0.88470955094E+02  0.83212206478E+02 0.  0.
        -11    1    4    4    0    0  0.16821011183E+02 -0.15960327097E+02 -0.28502846868E+02  0.36743580907E+02  0.00000000000E+00 0.  1.
         12    1    4    4    0    0 -0.37072397966E+02 -0.50302666639E+01  0.35721911576E+02  0.51727374187E+02  0.00000000000E+00 0. -1.
        -11    1    3    3    0    0 -0.17402344109E+02 -0.44247834440E+02 -0.45337244583E+02  0.65697626894E+02  0.00000000000E+00 0.  1.
         11    1    3    3    0    0 -0.16687437645E+03 -0.23628484318E+02 -0.14191611741E+03  0.22033054070E+03  0.00000000000E+00 0. -1.
          1    1    1    2  501    0  0.20452810734E+03  0.88866912519E+02 -0.86611653924E+03  0.89436398316E+03  0.00000000000E+00 0. -1.
<scales pt_clust_5="13000.00000" pt_clust_6="13000.00000" pt_clust_7="13000.00000" pt_clust_8="13000.00000" pt_clust_9="13000.00000"></scales>
<clustering>
<clus scale="   83.212">  5  6 -1 -1</clus>
<clus scale="   90.461">  7  8 -1 -1</clus>
<clus scale="  216.214">  2  7  1 -1</clus>
<clus scale="   37.159">  5  9 -1 -1</clus>
<clus scale="  477.765">  1  5  2 -1</clus>
</clustering>
</event>
<event>
 9    2  0.6085395E-005  0.3728710E+03  0.7546771E-02  0.1103645E+00
          2   -1    0    0  502    0 -0.00000000000E+00  0.00000000000E+00  0.94404755338E+02  0.94404755338E+02  0.00000000000E+00 0. -1.
         21   -1    0    0  501  502  0.00000000000E+00 -0.00000000000E+00 -0.68907188562E+03  0.68907188562E+03  0.00000000000E+00 0. -1.
         23    2    1    2    0    0  0.21639713671E+02 -0.22127267677E+02 -0.20076021586E+02  0.98503853699E+02  0.91334929618E+02 0.  0.
         24    2    1    2    0    0 -0.12972812453E+03  0.50858203098E+02 -0.54654803832E+03  0.56966890611E+03  0.79949742217E+02 0.  0.
        -13    1    4    4    0    0 -0.93033955084E+02  0.72492945300E+02 -0.39212522147E+03  0.40947861144E+03  0.00000000000E+00 0.  1.
         14    1    4    4    0    0 -0.36694169442E+02 -0.21634742201E+02 -0.15442281685E+03  0.16019029467E+03  0.00000000000E+00 0. -1.
        -11    1    3    3    0    0  0.52431528051E+02 -0.12137768811E+02  0.95064375254E+01  0.54651284705E+02  0.00000000000E+00 0.  1.
         11    1    3    3    0    0 -0.30791814379E+02 -0.99894988658E+01 -0.29582459111E+02  0.43852568995E+02  0.00000000000E+00 0. -1.
          1    1    1    2  501    0  0.10808841085E+03 -0.28730935422E+02 -0.28043070371E+02  0.11530388114E+03  0.00000000000E+00 0. -1.
<scales pt_clust_5="13000.00000" pt_clust_6="13000.00000" pt_clust_7="13000.00000" pt_clust_8="13000.00000" pt_clust_9="13000.00000"></scales>
<clustering>
<clus scale="   79.950">  5  6 -1 -1</clus>
<clus scale="   91.335">  7  8 -1 -1</clus>
<clus scale="   96.436">  1  7  2 -1</clus>
<clus scale="  133.456">  5  9 -1 -1</clus>
<clus scale="  372.871">  2  5  1 -1</clus>
</clustering>
</event>
<event>
 9    2  0.6085395E-005  0.1603351E+03  0.7546771E-02  0.1209288E+00
         -3   -1    0    0    0  501 -0.00000000000E+00  0.00000000000E+00  0.58380779018E+02  0.58380779018E+02  0.00000000000E+00 0.  1.
         21   -1    0    0  501  502  0.00000000000E+00 -0.00000000000E+00 -0.29424859505E+03  0.29424859505E+03  0.00000000000E+00 0.  1.
         23    2    1    2    0    0 -0.20363086163E+02 -0.38732283742E+02 -0.98486848220E+02  0.14148755584E+03  0.91674555381E+02 0.  0.
         24    2    1    2    0    0  0.44496211340E+02  0.69451017272E+02 -0.10190744661E+03  0.15837422375E+03  0.88847681168E+02 0.  0.
        -11    1    4    4    0    0  0.59546995447E+02  0.68834085570E+02 -0.10876514934E+03  0.14182324814E+03  0.00000000000E+00 0.  1.
         12    1    4    4    0    0 -0.15050784107E+02  0.61693170214E+00  0.68577027226E+01  0.16550975608E+02  0.00000000000E+00 0. -1.
        -11    1    3    3    0    0 -0.11988251871E+02 -0.67741963453E+02 -0.82170727834E+02  0.10716678734E+03  0.00000000000E+00 0. -1.
         11    1    3    3    0    0 -0.83748342919E+01  0.29009679712E+02 -0.16316120386E+02  0.34320768506E+02  0.00000000000E+00 0.  1.
         -4    1    1    2    0  502 -0.24133125177E+02 -0.30718733530E+02 -0.35473521197E+02  0.52767594474E+02  0.00000000000E+00 0.  1.
<scales pt_clust_5="13000.00000" pt_clust_6="13000.00000" pt_clust_7="13000.00000" pt_clust_8="13000.00000" pt_clust_9="13000.00000"></scales>
<clustering>
<clus scale="   88.848">  5  6 -1 -1</clus>
<clus scale="   39.065">  5  9 -1 -1</clus>
<clus scale="   91.675">  7  8 -1 -1</clus>
<clus scale="  101.583">  1  7  2 -1</clus>
<clus scale="  160.335">  2  5  1 -1</clus>
</clustering>
</event>
<event>
 9    2  0.6085395E-005  0.1758785E+03  0.7546771E-02  0.1199290E+00
         21   -1    0    0  501  502  0.00000000000E+00  0.00000000000E+00  0.54510510797E+03  0.54510510797E+03  0.00000000000E+00 0.  1.
         -1   -1    0    0    0  501 -0.00000000000E+00 -0.00000000000E+00 -0.89667780733E+02  0.89667780733E+02  0.00000000000E+00 0.  1.
         23    2    1    2    0    0  0.24259306536E+02  0.20045171844E+02 -0.44108251529E+02  0.10517017441E+03  0.90138254167E+02 0.  0.
         24    2    1    2    0    0  0.22755491946E+02 -0.62064727601E+01  0.11468875047E+03  0.14163792317E+03  0.79696041791E+02 0.  0.
        -13    1    4    4    0    0  0.36116452810E+02  0.19698541242E+01  0.11981553720E+03  0.12515606834E+03  0.00000000000E+00 0.  1.
         14    1    4    4    0    0 -0.13360960864E+02 -0.81763268843E+01 -0.51267867230E+01  0.16481854830E+02  0.00000000000E+00 0. -1.
        -13    1    3    3    0    0 -0.30972954029E+02  0.25269222316E+02 -0.17366291036E+02  0.43582628903E+02  0.00000000000E+00 0. -1.
         13    1    3    3    0    0  0.55232260565E+02 -0.52240504722E+01 -0.26741960494E+02  0.61587545506E+02  0.00000000000E+00 0.  1.
         -2    1    1    2    0  502 -0.47014798482E+02 -0.13838699084E+02  0.38485682830E+03  0.38796479113E+03  0.00000000000E+00 0.  1.
<scales pt_clust_5="13000.00000" pt_clust_6="13000.00000" pt_clust_7="13000.00000" pt_clust_8="13000.00000" pt_clust_9="13000.00000"></scales>
<clustering>
<clus scale="   79.696">  5  6 -1 -1</clus>
<clus scale="   49.009">  5  9 -1 -1</clus>
<clus scale="   90.138">  7  8 -1 -1</clus>
<clus scale="   95.474">  2  7  1 -1</clus>
<clus scale="  175.879">  1  5  2 -1</clus>
</clustering>
</event>
<event>
 9    2  0.6085395E-005  0.1799105E+03  0.7546771E-02  0.1195277E+00
         21   -1    0    0  501  502  0.00000000000E+00  0.00000000000E+00  0.54920510865E+02  0.54920510865E+02  0.00000000000E+00 0. -1.
          2   -1    0    0  502    0 -0.00000000000E+00 -0.00000000000E+00 -0.67669919790E+03  0.67669919790E+03  0.00000000000E+00 0. -1.
         23    2    1    2    0    0  0.64831320922E+01  0.29756135095E+02 -0.51131891932E+03  0.52050564439E+03  0.92475023744E+02 0.  0.
         24    2    1    2    0    0 -0.61440914113E+02 -0.26199997704E+02 -0.11100921741E+03  0.15603860875E+03  0.86968817760E+02 0.  0.
        -13    1    4    4    0    0  0.10992130240E+02 -0.30720121340E+02 -0.56611726544E+02  0.65340954727E+02  0.00000000000E+00 0.  1.
         14    1    4    4    0    0 -0.72433044353E+02  0.45201236355E+01 -0.54397490866E+02  0.90697654018E+02  0.00000000000E+00 0. -1.
        -13    1    3    3    0    0  0.92559734384E+00 -0.33359651895E+02 -0.14934321061E+03  0.15302652601E+03  0.00000000000E+00 0.  1.
         13    1    3    3    0    0  0.55575347484E+01  0.63115786990E+02 -0.36197570870E+03  0.36747911839E+03  0.00000000000E+00 0. -1.
          1    1    1    2  501    0  0.54957782020E+02 -0.35561373909E+01  0.54944968906E+00  0.55075455629E+02  0.00000000000E+00 0. -1.
<scales pt_clust_5="13000.00000" pt_clust_6="13000.00000" pt_clust_7="13000.00000" pt_clust_8="13000.00000" pt_clust_9="13000.00000"></scales>
<clustering>
<clus scale="   86.969">  5  6 -1 -1</clus>
<clus scale="   55.073">  5  9 -1 -1</clus>
<clus scale="   92.475">  7  8 -1 -1</clus>
<clus scale="   97.361">  2  7  1 -1</clus>
<clus scale="  179.910">  1  5  2 -1</clus>
</clustering>
</event>
<event>
 9    2  0.6085395E-005  0.4274835E+03  0.7546771E-02  0.1054743E+00
         21   -1    0    0  501  502  0.00000000000E+00  0.00000000000E+00  0.32803131590E+03  0.32803131590E+03  0.00000000000E+00 0.  1.
          2   -1    0    0  502    0 -0.00000000000E+00 -0.00000000000E+00 -0.34313786004E+03  0.34313786004E+03  0.00000000000E+00 0. -1.
         23    2    1    2    0    0  0.18717065938E+03  0.11920283270E+03  0.29424161248E+02  0.24137256802E+03  0.90292658990E+02 0.  0.
         24    2    1    2    0    0  0.88231325815E+01 -0.11947441403E+03  0.10874331724E+03  0.18098630617E+03  0.81110731099E+02 0.  0.
        -11    1    4    4    0    0  0.39520170791E+02 -0.91330673091E+02  0.57420428542E+02  0.11489230331E+03  0.00000000000E+00 0.  1.
         12    1    4    4    0    0 -0.30697038209E+02 -0.28143740937E+02  0.51322888702E+02  0.66094002856E+02  0.00000000000E+00 0. -1.
        -13    1    3    3    0    0  0.31825045625E+02  0.68604444862E+02  0.16117232628E+01  0.75643909442E+02  0.00000000000E+00 0.  1.
         13    1    3    3    0    0  0.15534561376E+03  0.50598387839E+02  0.27812437985E+02  0.16572865857E+03  0.00000000000E+00 0. -1.
          1    1    1    2  501    0 -0.19599379197E+03  0.27158132789E+00 -0.15327402264E+03  0.24881030176E+03  0.00000000000E+00 0. -1.
<scales pt_clust_5="13000.00000" pt_clust_6="13000.00000" pt_clust_7="13000.00000" pt_clust_8="13000.00000" pt_clust_9="13000.00000"></scales>
<clustering>
<clus scale="   81.111">  5  6 -1 -1</clus>
<clus scale="   90.293">  7  8 -1 -1</clus>
<clus scale="  195.994">  5  9 -1 -1</clus>
<clus scale="  239.573">  2  7  1 -1</clus>
<clus scale="  427.483">  1  5  2 -1</clus>
</clustering>
</event>
<event>
 9    2  0.6085395E-005  0.5686993E+03  0.7546771E-02  0.1059542E+00
          2   -1    0    0  502    0 -0.00000000000E+00  0.00000000000E+00  0.20050166259E+03  0.20050166259E+03  0.00000000000E+00 0. -1.
         21   -1    0    0  501  502  0.00000000000E+00 -0.00000000000E+00 -0.76454547431E+03  0.76454547431E+03  0.00000000000E+00 0.  1.
         23    2    1    2    0    0 -0.15568917070E+02  0.27319682497E+02  0.70128050247E+02  0.11322973973E+03  0.83152115406E+02 0.  0.
         24    2    1    2    0    0  0.91015083314E+01  0.26536463137E+03 -0.30058390456E+03  0.40798537907E+03  0.74834222266E+02 0.  0.
        -11    1    4    4    0    0 -0.13817814515E+02  0.49009520584E+02 -0.99279609427E+02  0.11157645788E+03  0.00000000000E+00 0.  1.
         12    1    4    4    0    0  0.22919322846E+02  0.21635511078E+03 -0.20130429513E+03  0.29640892119E+03  0.00000000000E+00 0. -1.
        -13    1    3    3    0    0 -0.27615409303E+02 -0.21703051471E+02  0.14190316178E+02  0.37881372036E+02  0.00000000000E+00 0. -1.
         13    1    3    3    0    0  0.12046492233E+02  0.49022733968E+02  0.55937734070E+02  0.75348367691E+02  0.00000000000E+00 0.  1.
          1    1    1    2  501    0  0.64674087386E+01 -0.29268431387E+03 -0.33358795741E+03  0.44383201809E+03  0.00000000000E+00 0. -1.
<scales pt_clust_5="13000.00000" pt_clust_6="13000.00000" pt_clust_7="13000.00000" pt_clust_8="13000.00000" pt_clust_9="13000.00000"></scales>
<clustering>
<clus scale="   74.834">  5  6 -1 -1</clus>
<clus scale="   83.152">  7  8 -1 -1</clus>
<clus scale="   88.899">  1  7  2 -1</clus>
<clus scale="  278.850">  5  9 -1 -1</clus>
<clus scale="  568.699">  2  5  1 -1</clus>
</clustering>
</event>
<event>
 9    2  0.6879836E-005  0.1958026E+03  0.7546771E-02  0.1183941E+00
         21   -1    0    0  501  502  0.00000000000E+00  0.00000000000E+00  0.82927049935E+02  0.82927049935E+02  0.00000000000E+00 0.  1.
         -1   -1    0    0    0  501 -0.00000000000E+00 -0.00000000000E+00 -0.45892441945E+03  0.45892441945E+03  0.00000000000E+00 0.  1.
         23    2    1    2    0    0  0.27838545402E+02 -0.13445543329E+02 -0.32547907228E+03  0.33963679205E+03  0.91982372105E+02 0.  0.
         24    2    1    2    0    0  0.19850300456E+02  0.78907607139E+02 -0.34511174952E+02  0.11965720777E+03  0.80662142800E+02 0.  0.
        -13    1    4    4    0    0  0.24350895383E+02  0.72671348430E+02  0.74437301187E+01  0.77003247377E+02  0.00000000000E+00 0.  1.
         14    1    4    4    0    0 -0.45005949267E+01  0.62362587095E+01 -0.41954905070E+02  0.42653960389E+02  0.00000000000E+00 0. -1.
        -13    1    3    3    0    0  0.60679006965E+02 -0.14213181711E+02 -0.24280752313E+03  0.25067798011E+03  0.00000000000E+00 0. -1.
         13    1    3    3    0    0 -0.32840461563E+02  0.76763838204E+00 -0.82671549144E+02  0.88958811943E+02  0.00000000000E+00 0.  1.
         -2    1    1    2    0  502 -0.47688845858E+02 -0.65462063810E+02 -0.16007122284E+02  0.82557469567E+02  0.00000000000E+00 0.  1.
<scales pt_clust_5="13000.00000" pt_clust_6="13000.00000" pt_clust_7="13000.00000" pt_clust_8="13000.00000" pt_clust_9="13000.00000"></scales>
<clustering>
<clus scale="   80.662">  5  6 -1 -1</clus>
<clus scale="   80.991">  5  9 -1 -1</clus>
<clus scale="   91.982">  7  8 -1 -1</clus>
<clus scale="   97.039">  2  7  1 -1</clus>
<clus scale="  195.803">  1  5  2 -1</clus>
</clustering>
</event>
<event>
 9    2  0.6085395E-005  0.2152682E+03  0.7546771E-02  0.1158091E+00
         -1   -1    0    0    0  501 -0.00000000000E+00  0.00000000000E+00  0.41984886707E+03  0.41984886707E+03  0.00000000000E+00 0.  1.
         21   -1    0    0  501  502  0.00000000000E+00 -0.00000000000E+00 -0.12050195394E+03  0.12050195394E+03  0.00000000000E+00 0.  1.
         23    2    1    2    0    0 -0.27033308528E+02 -0.82586011902E+02 -0.40679413016E+02  0.13791038002E+03  0.99061643143E+02 0.  0.
         24    2    1    2    0    0  0.85446084574E+02  0.26699506805E+02  0.14442734723E+03  0.19079376748E+03  0.86770421508E+02 0.  0.
        -13    1    4    4    0    0  0.64229647802E+02  0.57292094815E+02  0.87199774721E+02  0.12252196740E+03  0.00000000000E+00 0.  1.
         14    1    4    4    0    0  0.21216436772E+02 -0.30592588010E+02  0.57227572507E+02  0.68271800075E+02  0.00000000000E+00 0. -1.
        -13    1    3    3    0    0 -0.45054619181E+02 -0.35901344753E+01 -0.34100207442E+02  0.56618300246E+02  0.00000000000E+00 0. -1.
         13    1    3    3    0    0  0.18021310653E+02 -0.78995877427E+02 -0.65792055734E+01  0.81292079775E+02  0.00000000000E+00 0.  1.
         -2    1    1    2    0  502 -0.58412776045E+02  0.55886505097E+02  0.19559897892E+03  0.21164667352E+03  0.00000000000E+00 0.  1.
<scales pt_clust_5="13000.00000" pt_clust_6="13000.00000" pt_clust_7="13000.00000" pt_clust_8="13000.00000" pt_clust_9="13000.00000"></scales>
<clustering>
<clus scale="   86.770">  5  6 -1 -1</clus>
<clus scale="   80.842">  5  9 -1 -1</clus>
<clus scale="   99.062">  7  8 -1 -1</clus>
<clus scale="  131.774">  1  7  2 -1</clus>
<clus scale="  215.268">  2  5  1 -1</clus>
</clustering>
</event>
<event>
 9    2  0.6085395E-005  0.5533104E+03  0.7546771E-02  0.1060208E+00
         21   -1    0    0  501  502  0.00000000000E+00  0.00000000000E+00  0.69366225056E+02  0.69366225056E+02  0.00000000000E+00 0. -1.
          2   -1    0    0  502    0 -0.00000000000E+00 -0.00000000000E+00 -0.15191392059E+04  0.15191392059E+04  0.00000000000E+00 0. -1.
         23    2    1    2    0    0 -0.24744134183E+02 -0.67493601683E+01 -0.17987494345E+03  0.20330024018E+03  0.91203982019E+02 0.  0.
         24    2    1    2    0    0 -0.34403964405E+02  0.23937477074E+03 -0.95924287761E+03  0.99262436151E+03  0.81684216192E+02 0.  0.
        -13    1    4    4    0    0  0.25321920349E+02  0.10732441319E+03 -0.42488640599E+03  0.43896262632E+03  0.00000000000E+00 0.  1.
         14    1    4    4    0    0 -0.59725884754E+02  0.13205035756E+03 -0.53435647163E+03  0.55366173519E+03  0.00000000000E+00 0. -1.
        -11    1    3    3    0    0  0.25263562996E+02  0.21822333351E+02 -0.40442608470E+02  0.52441075771E+02  0.00000000000E+00 0. -1.
         11    1    3    3    0    0 -0.50007697179E+02 -0.28571693519E+02 -0.13943233498E+03  0.15085916441E+03  0.00000000000E+00 0.  1.
          1    1    1    2  501    0  0.59148098588E+02 -0.23262541058E+03 -0.31065515979E+03  0.39258082927E+03  0.00000000000E+00 0. -1.
<scales pt_clust_5="13000.00000" pt_clust_6="13000.00000" pt_clust_7="13000.00000" pt_clust_8="13000.00000" pt_clust_9="13000.00000"></scales>
<clustering>
<clus scale="   81.684">  5  6 -1 -1</clus>
<clus scale="   91.204">  7  8 -1 -1</clus>
<clus scale="   94.742">  2  7  1 -1</clus>
<clus scale="  240.241">  5  9 -1 -1</clus>
<clus scale="  553.310">  1  5  2 -1</clus>
</clustering>
</event>
<event>
 9    2  0.6085395E-005  0.3120915E+03  0.7546771E-02  0.1112816E+00
         21   -1    0    0  501  502  0.00000000000E+00  0.00000000000E+00  0.15433604432E+03  0.15433604432E+03  0.00000000000E+00 0. -1.
          2   -1    0    0  502    0 -0.00000000000E+00 -0.00000000000E+00 -0.31948666368E+03  0.31948666368E+03  0.00000000000E+00 0. -1.
         23    2    1    2    0    0 -0.49210317957E+02  0.80273503606E+02 -0.68930574565E+02  0.14723518964E+03  0.89784665641E+02 0.  0.
         24    2    1    2    0    0  0.24861010409E+02  0.89829112199E+02 -0.53486171736E+02  0.14951698837E+03  0.10395777993E+03 0.  0.
        -13    1    4    4    0    0 -0.15588532656E+02  0.21250450021E+02 -0.63993061780E+02  0.69207629149E+02  0.00000000000E+00 0.  1.
         14    1    4    4    0    0  0.40449543065E+02  0.68578662179E+02  0.10506890044E+02  0.80309359223E+02  0.00000000000E+00 0. -1.
        -13    1    3    3    0    0 -0.14245372341E+02  0.89629015586E+02 -0.63194427662E+02  0.11058854713E+03  0.00000000000E+00 0. -1.
         13    1    3    3    0    0 -0.34964945616E+02 -0.93555119801E+01 -0.57361469031E+01  0.36646642515E+02  0.00000000000E+00 0.  1.
          1    1    1    2  501    0  0.24349307548E+02 -0.17010261581E+03 -0.42733873061E+02  0.17707052998E+03  0.00000000000E+00 0. -1.
<scales pt_clust_5="13000.00000" pt_clust_6="13000.00000" pt_clust_7="13000.00000" pt_clust_8="13000.00000" pt_clust_9="13000.00000"></scales>
<clustering>
<clus scale="   89.785">  7  8 -1 -1</clus>
<clus scale="  103.958">  5  6 -1 -1</clus>
<clus scale="  130.103">  2  7  1 -1</clus>
<clus scale="  128.377">  5  9 -1 -1</clus>
<clus scale="  312.092">  1  5  2 -1</clus>
</clustering>
</event>
<event>
 9    2  0.6085395E-005  0.4151334E+03  0.7546771E-02  0.1091226E+00
         21   -1    0    0  501  502  0.00000000000E+00  0.00000000000E+00  0.97032090621E+03  0.97032090621E+03  0.00000000000E+00 0. -1.
         -3   -1    0    0    0  501 -0.00000000000E+00 -0.00000000000E+00 -0.68531398697E+02  0.68531398697E+02  0.00000000000E+00 0.  1.
         23    2    1    2    0    0  0.11526940963E+02  0.24641761365E+02  0.22541472993E+03  0.24524117901E+03  0.92689528212E+02 0.  0.
         24    2    1    2    0    0 -0.90174088183E+02 -0.50757670042E+02  0.69615520252E+03  0.70841324058E+03  0.80681758658E+02 0.  0.
        -13    1    4    4    0    0 -0.35598833248E+02  0.17502530402E+02  0.14314713343E+03  0.14854197154E+03  0.00000000000E+00 0.  1.
         14    1    4    4    0    0 -0.54575254935E+02 -0.68260200445E+02  0.55300806909E+03  0.55987126904E+03  0.00000000000E+00 0. -1.
        -13    1    3    3    0    0  0.38047769095E+02  0.42215764624E+02  0.18655212654E+03  0.19501666450E+03  0.00000000000E+00 0. -1.
         13    1    3    3    0    0 -0.26520828132E+02 -0.17574003259E+02  0.38862603394E+02  0.50224514512E+02  0.00000000000E+00 0.  1.
         -4    1    1    2    0  502  0.78647147220E+02  0.26115908678E+02 -0.19780424942E+02  0.85197885319E+02  0.00000000000E+00 0.  1.
<scales pt_clust_5="13000.00000" pt_clust_6="13000.00000" pt_clust_7="13000.00000" pt_clust_8="13000.00000" pt_clust_9="13000.00000"></scales>
<clustering>
<clus scale="   80.682">  5  6 -1 -1</clus>
<clus scale="   82.870">  5  9 -1 -1</clus>
<clus scale="   92.690">  7  8 -1 -1</clus>
<clus scale="   96.599">  2  7  1 -1</clus>
<clus scale="  415.133">  1  5  2 -1</clus>
</clustering>
</event>
<event>
 9    2  0.6085395E-005  0.2006678E+03  0.7546771E-02  0.1172115E+00
         21   -1    0    0  501  502  0.00000000000E+00  0.00000000000E+00  0.45397726911E+03  0.45397726911E+03  0.00000000000E+00 0.  1.
         -3   -1    0    0    0  501 -0.00000000000E+00 -0.00000000000E+00 -0.68448656767E+02  0.68448656767E+02  0.00000000000E+00 0.  1.
         23    2    1    2    0    0  0.19481461467E+02  0.76209499060E+02  0.42758841927E+02  0.12523744895E+03  0.87571028139E+02 0.  0.
         24    2    1    2    0    0  0.62287720281E+02 -0.27045302733E+02  0.18769860685E+03  0.21511601043E+03  0.80205501273E+02 0.  0.
        -13    1    4    4    0    0  0.81003305141E+02 -0.19133489648E+02  0.13451668979E+03  0.15818459376E+03  0.00000000000E+00 0.  1.
         14    1    4    4    0    0 -0.18715584860E+02 -0.79118130843E+01  0.53181917055E+02  0.56931416674E+02  0.00000000000E+00 0. -1.
        -13    1    3    3    0    0  0.85161939884E+01  0.42990631353E+02 -0.23927748045E+02  0.49932525178E+02  0.00000000000E+00 0.  1.
         13    1    3    3    0    0  0.10965267479E+02  0.33218867706E+02  0.66686589971E+02  0.75304923774E+02  0.00000000000E+00 0. -1.
         -4    1    1    2    0  502 -0.81769181748E+02 -0.49164196327E+02  0.15507116357E+03  0.18207246650E+03  0.00000000000E+00 0.  1.
<scales pt_clust_5="13000.00000" pt_clust_6="13000.00000" pt_clust_7="13000.00000" pt_clust_8="13000.00000" pt_clust_9="13000.00000"></scales>
<clustering>
<clus scale="   80.206">  5  6 -1 -1</clus>
<clus scale="   87.571">  7  8 -1 -1</clus>
<clus scale="   95.411">  5  9 -1 -1</clus>
<clus scale="  117.712">  2  7  1 -1</clus>
<clus scale="  200.668">  1  5  2 -1</clus>
</clustering>
</event>
<event>
 9    2  0.6085395E-005  0.3495719E+03  0.7546771E-02  0.1092311E+00
         21   -1    0    0  501  502  0.00000000000E+00  0.00000000000E+00  0.81724415687E+02  0.81724415687E+02  0.00000000000E+00 0.  1.
          2   -1    0    0  502    0 -0.00000000000E+00 -0.00000000000E+00 -0.82384306510E+03  0.82384306510E+03  0.00000000000E+00 0. -1.
         23    2    1    2    0    0  0.86475937220E+02 -0.77565603176E+02 -0.14625487254E+03  0.21473165120E+03  0.10594660812E+03 0.  0.
         24    2    1    2    0    0  0.84966297231E+02 -0.50610412734E+02 -0.15819168390E+03  0.20362089573E+03  0.81585383373E+02 0.  0.
        -13    1    4    4    0    0  0.65827617149E+02 -0.22419167929E+02 -0.15439864864E+03  0.16933646085E+03  0.00000000000E+00 0.  1.
         14    1    4    4    0    0  0.19138680082E+02 -0.28191244805E+02 -0.37930352645E+01  0.34284434886E+02  0.00000000000E+00 0. -1.
        -13    1    3    3    0    0  0.13399959293E+02 -0.75092709932E+02 -0.10797095872E+03  0.13219758667E+03  0.00000000000E+00 0.  1.
         13    1    3    3    0    0  0.73075977927E+02 -0.24728932439E+01 -0.38283913823E+02  0.82534064534E+02  0.00000000000E+00 0. -1.
          1    1    1    2  501    0 -0.17144223445E+03  0.12817601591E+03 -0.43767209296E+03  0.48721493385E+03  0.00000000000E+00 0. -1.
<scales pt_clust_5="13000.00000" pt_clust_6="13000.00000" pt_clust_7="13000.00000" pt_clust_8="13000.00000" pt_clust_9="13000.00000"></scales>
<clustering>
<clus scale="   81.585">  5  6 -1 -1</clus>
<clus scale="  105.947">  7  8 -1 -1</clus>
<clus scale="  157.223">  2  7  1 -1</clus>
<clus scale="  131.102">  5  9 -1 -1</clus>
<clus scale="  349.572">  1  5  2 -1</clus>
</clustering>
</event>
<event>
 9    2  0.6085395E-005  0.2695085E+03  0.7546771E-02  0.1116963E+00
          2   -1    0    0  502    0 -0.00000000000E+00  0.00000000000E+00  0.33604719580E+03  0.33604719580E+03  0.00000000000E+00 0. -1.
         21   -1    0    0  501  502  0.00000000000E+00 -0.00000000000E+00 -0.34437705761E+03  0.34437705761E+03  0.00000000000E+00 0. -1.
         23    2    1    2    0    0 -0.60478432790E+02  0.14527788102E+03  0.24859917626E+03  0.30807041122E+03  0.91337419943E+02 0.  0.
         24    2    1    2    0    0 -0.48443240404E+02 -0.58467199308E+02 -0.46552282241E+02  0.12004766957E+03  0.80493273323E+02 0.  0.
        -11    1    4    4    0    0 -0.21656141221E+02 -0.72370107384E+02 -0.16227605402E+02  0.77264196576E+02  0.00000000000E+00 0.  1.
         12    1    4    4    0    0 -0.26787099183E+02  0.13902908076E+02 -0.30324676839E+02  0.42783472989E+02  0.00000000000E+00 0. -1.
        -11    1    3    3    0    0 -0.46152796546E+02  0.11479082458E+03  0.11037212788E+03  0.16579813223E+03  0.00000000000E+00 0. -1.
         11    1    3    3    0    0 -0.14325636244E+02  0.30487056439E+02  0.13822704838E+03  0.14227227899E+03  0.00000000000E+00 0.  1.
          1    1    1    2  501    0  0.10892167319E+03 -0.86810681713E+02 -0.21037675583E+03  0.25230617262E+03  0.00000000000E+00 0. -1.
<scales pt_clust_5="13000.00000" pt_clust_6="13000.00000" pt_clust_7="13000.00000" pt_clust_8="13000.00000" pt_clust_9="13000.00000"></scales>
<clustering>
<clus scale="   80.493">  5  6 -1 -1</clus>
<clus scale="   91.337">  7  8 -1 -1</clus>
<clus scale="  139.284">  5  9 -1 -1</clus>
<clus scale="  181.950">  1  7  2 -1</clus>
<clus scale="  269.509">  2  5  1 -1</clus>
</clustering>
</event>
<event>
 9    2  0.6085395E-005  0.3712225E+03  0.7546771E-02  0.1070655E+00
         21   -1    0    0  501  502  0.00000000000E+00  0.00000000000E+00  0.73634821610E+02  0.73634821610E+02  0.00000000000E+00 0.  1.
          2   -1    0    0  502    0 -0.00000000000E+00 -0.00000000000E+00 -0.12843238535E+04  0.12843238535E+04  0.00000000000E+00 0. -1.
         23    2    1    2    0    0 -0.59616694030E+01  0.21626171432E+03 -0.36077220609E+03  0.43050801139E+03  0.91519902787E+02 0.  0.
         24    2    1    2    0    0  0.44021250834E+02  0.50290804691E+02 -0.19374307760E+03  0.21818148706E+03  0.74831448033E+02 0.  0.
        -13    1    4    4    0    0  0.21297288329E+01  0.36587459686E+02 -0.26495970152E+02  0.45224046540E+02  0.00000000000E+00 0.  1.
         14    1    4    4    0    0  0.41891522002E+02  0.13703345005E+02 -0.16724710745E+03  0.17295744052E+03  0.00000000000E+00 0. -1.
        -13    1    3    3    0    0 -0.20945040616E+02  0.18972270606E+03 -0.34909639566E+03  0.39787145335E+03  0.00000000000E+00 0.  1.
         13    1    3    3    0    0  0.14983371213E+02  0.26539008256E+02 -0.11675810425E+02  0.32636558048E+02  0.00000000000E+00 0. -1.
          1    1    1    2  501    0 -0.38059581431E+02 -0.26655251901E+03 -0.65617374818E+03  0.70926917663E+03  0.00000000000E+00 0. -1.
<scales pt_clust_5="13000.00000" pt_clust_6="13000.00000" pt_clust_7="13000.00000" pt_clust_8="13000.00000" pt_clust_9="13000.00000"></scales>
<clustering>
<clus scale="   74.831">  5  6 -1 -1</clus>
<clus scale="   91.520">  7  8 -1 -1</clus>
<clus scale="  234.906">  2  7  1 -1</clus>
<clus scale="  109.090">  5  9 -1 -1</clus>
<clus scale="  371.222">  1  5  2 -1</clus>
</clustering>
</event>
<event>
 9    2  0.6085395E-005  0.2205802E+03  0.7546771E-02  0.1166486E+00
          2   -1    0    0  502    0 -0.00000000000E+00  0.00000000000E+00  0.60804511809E+02  0.60804511809E+02  0.00000000000E+00 0. -1.
         21   -1    0    0  501  502  0.00000000000E+00 -0.00000000000E+00 -0.43373595125E+03  0.43373595125E+03  0.00000000000E+00 0.  1.
         23    2    1    2    0    0 -0.15426499911E+02 -0.42252248856E+02 -0.85276006504E+02  0.13204733434E+03  0.90228996382E+02 0.  0.
         24    2    1    2    0    0 -0.57786764748E+02 -0.38650874807E+02 -0.18252018304E+03  0.21097112269E+03  0.79762128161E+02 0.  0.
        -13    1    4    4    0    0 -0.52991940070E+02 -0.24825166962E+02 -0.48080876322E+02  0.75737740229E+02  0.00000000000E+00 0.  1.
         14    1    4    4    0    0 -0.47948246779E+01 -0.13825707845E+02 -0.13443930672E+03  0.13523338246E+03  0.00000000000E+00 0. -1.
        -11    1    3    3    0    0 -0.39169009216E+02  0.10522358288E+02 -0.49574626952E+02  0.64051346155E+02  0.00000000000E+00 0. -1.
         11    1    3    3    0    0  0.23742509304E+02 -0.52774607144E+02 -0.35701379553E+02  0.67995988185E+02  0.00000000000E+00 0.  1.
          1    1    1    2  501    0  0.73213264660E+02  0.80903123662E+02 -0.10513524990E+03  0.15152200603E+03  0.00000000000E+00 0. -1.
<scales pt_clust_5="13000.00000" pt_clust_6="13000.00000" pt_clust_7="13000.00000" pt_clust_8="13000.00000" pt_clust_9="13000.00000"></scales>
<clustering>
<clus scale="   79.762">  5  6 -1 -1</clus>
<clus scale="   90.229">  7  8 -1 -1</clus>
<clus scale="  100.819">  1  7  2 -1</clus>
<clus scale="   83.935">  5  9 -1 -1</clus>
<clus scale="  220.580">  2  5  1 -1</clus>
</clustering>
</event>
<event>
 9    2  0.6085395E-005  0.3615313E+03  0.7546771E-02  0.1085222E+00
          4   -1    0    0  502    0 -0.00000000000E+00  0.00000000000E+00  0.38774307493E+03  0.38774307493E+03  0.00000000000E+00 0. -1.
         21   -1    0    0  501  502  0.00000000000E+00 -0.00000000000E+00 -0.18372223911E+03  0.18372223911E+03  0.00000000000E+00 0. -1.
         23    2    1    2    0    0 -0.64858235064E+02 -0.13086442363E+03  0.80122788679E+02  0.18929313009E+03  0.89889597879E+02 0.  0.
         24    2    1    2    0    0 -0.28439340911E+02  0.12385732282E+03 -0.70064548730E+02  0.16682356950E+03  0.82289913259E+02 0.  0.
        -11    1    4    4    0    0 -0.40217302693E+02  0.17168049713E+02 -0.25349858162E+02  0.50544917407E+02  0.00000000000E+00 0.  1.
         12    1    4    4    0    0  0.11777961783E+02  0.10668927311E+03 -0.44714690568E+02  0.11627865209E+03  0.00000000000E+00 0. -1.
        -11    1    3    3    0    0 -0.37730440670E+02 -0.18925909233E+02  0.58441461642E+02  0.72091474061E+02  0.00000000000E+00 0.  1.
         11    1    3    3    0    0 -0.27127794394E+02 -0.11193851440E+03  0.21681327037E+02  0.11720165603E+03  0.00000000000E+00 0. -1.
          3    1    1    2  501    0  0.93297575975E+02  0.70071008146E+01  0.19396259588E+03  0.21534861445E+03  0.00000000000E+00 0. -1.
<scales pt_clust_5="13000.00000" pt_clust_6="13000.00000" pt_clust_7="13000.00000" pt_clust_8="13000.00000" pt_clust_9="13000.00000"></scales>
<clustering>
<clus scale="   82.290">  5  6 -1 -1</clus>
<clus scale="   89.890">  7  8 -1 -1</clus>
<clus scale="   93.560">  5  9 -1 -1</clus>
<clus scale="  171.500">  1  7  2 -1</clus>
<clus scale="  361.531">  2  5  1 -1</clus>
</clustering>
</event>
<event>
 9    2  0.6085395E-005  0.1280266E+03  0.7546771E-02  0.1243801E+00
         21   -1    0    0  501  502  0.00000000000E+00  0.00000000000E+00  0.12640108950E+03  0.12640108950E+03  0.00000000000E+00 0.  1.
         -1   -1    0    0    0  501 -0.00000000000E+00 -0.00000000000E+00 -0.10092738982E+03  0.10092738982E+03  0.00000000000E+00 0.  1.
         23    2    1    2    0    0 -0.26100748104E+02  0.15530224862E+02  0.39134747057E+01  0.97499177111E+02  0.92565313791E+02 0.  0.
         24    2    1    2    0    0  0.51770443118E+02 -0.28344077101E+02  0.23226692200E+02  0.10109073641E+03  0.78716531106E+02 0.  0.
        -11    1    4    4    0    0  0.19585455771E+02 -0.25770517042E+02  0.49717973369E+02  0.59326103044E+02  0.00000000000E+00 0.  1.
         12    1    4    4    0    0  0.32184987347E+02 -0.25735600581E+01 -0.26491281170E+02  0.41764633363E+02  0.00000000000E+00 0. -1.
        -11    1    3    3    0    0 -0.25737516224E+02 -0.12697784881E+02 -0.37596961742E+02  0.47298890204E+02  0.00000000000E+00 0.  1.
         11    1    3    3    0    0 -0.36323187971E+00  0.28228009742E+02  0.41510436448E+02  0.50200286907E+02  0.00000000000E+00 0. -1.
         -2    1    1    2    0  502 -0.25669695014E+02  0.12813852239E+02 -0.16664672268E+01  0.28738565801E+02  0.00000000000E+00 0.  1.
<scales pt_clust_5="13000.00000" pt_clust_6="13000.00000" pt_clust_7="13000.00000" pt_clust_8="13000.00000" pt_clust_9="13000.00000"></scales>
<clustering>
<clus scale="   78.717">  5  6 -1 -1</clus>
<clus scale="   28.690">  5  9 -1 -1</clus>
<clus scale="   92.565">  7  8 -1 -1</clus>
<clus scale="   97.421">  2  7  1 -1</clus>
<clus scale="  128.027">  1  5  2 -1</clus>
</clustering>
</event>
<event>
 9    2  0.6085395E-005  0.2967201E+03  0.7546771E-02  0.1110079E+00
         21   -1    0    0  501  502  0.00000000000E+00  0.00000000000E+00  0.84110450539E+03  0.84110450539E+03  0.00000000000E+00 0. -1.
         -1   -1    0    0    0  501 -0.00000000000E+00 -0.00000000000E+00 -0.95988012189E+02  0.95988012189E+02  0.00000000000E+00 0.  1.
         23    2    1    2    0    0 -0.13208438525E+03 -0.22277881111E+02  0.56977346463E+03  0.59243619703E+03  0.91631095976E+02 0.  0.
         24    2    1    2    0    0 -0.29635066916E+02  0.38931381997E+02  0.15462204230E+03  0.18076648080E+03  0.79841436109E+02 0.  0.
        -11    1    4    4    0    0 -0.14282016762E+02 -0.15099705081E+02  0.56226931877E+01  0.21531181459E+02  0.00000000000E+00 0.  1.
         12    1    4    4    0    0 -0.15353050154E+02  0.54031087079E+02  0.14899934912E+03  0.15923529934E+03  0.00000000000E+00 0. -1.
        -13    1    3    3    0    0 -0.12530908723E+03  0.95908337379E+01  0.39046541487E+03  0.41019213991E+03  0.00000000000E+00 0. -1.
         13    1    3    3    0    0 -0.67752980176E+01 -0.31868714849E+02  0.17930804976E+03  0.18224405713E+03  0.00000000000E+00 0.  1.
         -2    1    1    2    0  502  0.16171945216E+03 -0.16653500886E+02  0.20720986272E+02  0.16388983974E+03  0.00000000000E+00 0.  1.
<scales pt_clust_5="13000.00000" pt_clust_6="13000.00000" pt_clust_7="13000.00000" pt_clust_8="13000.00000" pt_clust_9="13000.00000"></scales>
<clustering>
<clus scale="   79.841">  5  6 -1 -1</clus>
<clus scale="   91.631">  7  8 -1 -1</clus>
<clus scale="  162.293">  2  7  1 -1</clus>
<clus scale="   61.341">  5  9 -1 -1</clus>
<clus scale="  296.720">  1  5  2 -1</clus>
</clustering>
</event>
<event>
 9    2  0.6085395E-005  0.1215044E+03  0.7546771E-02  0.1250311E+00
         -1   -1    0    0    0  501 -0.00000000000E+00  0.00000000000E+00  0.57522423490E+02  0.57522423490E+02  0.00000000000E+00 0.  1.
         21   -1    0    0  501  502  0.00000000000E+00 -0.00000000000E+00 -0.21474159077E+03  0.21474159077E+03  0.00000000000E+00 0. -1.
         23    2    1    2    0    0  0.72857376895E+01 -0.25830890805E+02 -0.59734038130E+02  0.11648641221E+03  0.96335933194E+02 0.  0.
         24    2    1    2    0    0 -0.29706855006E+02  0.39075831253E+02 -0.63810374621E+02  0.11320855177E+03  0.79592678448E+02 0.  0.
        -11    1    4    4    0    0 -0.25990216853E+01  0.48799712750E+02 -0.68035497938E+01  0.49340198297E+02  0.00000000000E+00 0.  1.
         12    1    4    4    0    0 -0.27107833320E+02 -0.97238814971E+01 -0.57006824827E+02  0.63868353475E+02  0.00000000000E+00 0. -1.
        -11    1    3    3    0    0  0.44372959200E+02 -0.12734715333E+02 -0.61755413496E+02  0.77102941440E+02  0.00000000000E+00 0.  1.
         11    1    3    3    0    0 -0.37087221510E+02 -0.13096175472E+02  0.20213753655E+01  0.39383470768E+02  0.00000000000E+00 0. -1.
         -2    1    1    2    0  502  0.22421117316E+02 -0.13244940448E+02 -0.33674754528E+02  0.42569050279E+02  0.00000000000E+00 0.  1.
<scales pt_clust_5="13000.00000" pt_clust_6="13000.00000" pt_clust_7="13000.00000" pt_clust_8="13000.00000" pt_clust_9="13000.00000"></scales>
<clustering>
<clus scale="   79.593">  5  6 -1 -1</clus>
<clus scale="   26.041">  5  9 -1 -1</clus>
<clus scale="   96.336">  7  8 -1 -1</clus>
<clus scale="  100.005">  1  7  2 -1</clus>
<clus scale="  121.504">  2  5  1 -1</clus>
</clustering>
</event>
<event>
 9    2  0.1009523E-004  0.7701318E+03  0.7546771E-02  0.1006064E+00
         21   -1    0    0  501  502  0.00000000000E+00  0.00000000000E+00  0.22732466664E+03  0.22732466664E+03  0.00000000000E+00 0. -1.
          2   -1    0    0  502    0 -0.00000000000E+00 -0.00000000000E+00 -0.99065043781E+03  0.99065043781E+03  0.00000000000E+00 0. -1.
         23    2    1    2    0    0  0.14771881655E+03 -0.15276488976E+02 -0.19321597253E+03  0.25978509380E+03  0.90009238633E+02 0.  0.
         24    2    1    2    0    0  0.61888610604E+02  0.42182304646E+02 -0.70103042153E+03  0.70959514761E+03  0.80449205355E+02 0.  0.
        -13    1    4    4    0    0  0.69692075917E+01 -0.22805371576E+02 -0.11763302593E+03  0.12002576230E+03  0.00000000000E+00 0.  1.
         14    1    4    4    0    0  0.54919403013E+02  0.64987676222E+02 -0.58339739561E+03  0.58956938531E+03  0.00000000000E+00 0. -1.
        -13    1    3    3    0    0  0.14268891743E+03 -0.39174680660E+02 -0.17583250998E+03  0.22980829908E+03  0.00000000000E+00 0. -1.
         13    1    3    3    0    0  0.50298991163E+01  0.23898191684E+02 -0.17383462558E+02  0.29976794715E+02  0.00000000000E+00 0.  1.
          1    1    1    2  501    0 -0.20960742716E+03 -0.26905815670E+02  0.13092062290E+03  0.24859486305E+03  0.00000000000E+00 0. -1.
<scales pt_clust_5="13000.00000" pt_clust_6="13000.00000" pt_clust_7="13000.00000" pt_clust_8="13000.00000" pt_clust_9="13000.00000"></scales>
<clustering>
<clus scale="   80.449">  5  6 -1 -1</clus>
<clus scale="   90.009">  7  8 -1 -1</clus>
<clus scale="  173.654">  2  7  1 -1</clus>
<clus scale="  200.213">  5  9 -1 -1</clus>
<clus scale="  770.132">  1  5  2 -1</clus>
</clustering>
</event>
<event>
 9    2  0.6085395E-005  0.2693409E+03  0.7546771E-02  0.1101817E+00
         21   -1    0    0  501  502  0.00000000000E+00  0.00000000000E+00  0.59833445121E+02  0.59833445121E+02  0.00000000000E+00 0.  1.
         -1   -1    0    0    0  501 -0.00000000000E+00 -0.00000000000E+00 -0.14924658889E+04  0.14924658889E+04  0.00000000000E+00 0.  1.
         23    2    1    2    0    0 -0.25063907463E+03  0.26297189797E+02 -0.10542941861E+04  0.10878810293E+04  0.91855403186E+02 0.  0.
         24    2    1    2    0    0  0.18009399597E+03 -0.22830540757E+02 -0.28149877690E+03  0.34455792425E+03  0.80768315487E+02 0.  0.
        -11    1    4    4    0    0  0.11069361714E+03 -0.52868976148E+02 -0.18461152804E+03  0.22165202864E+03  0.00000000000E+00 0.  1.
         12    1    4    4    0    0  0.69400378835E+02  0.30038435391E+02 -0.96887248860E+02  0.12290589561E+03  0.00000000000E+00 0. -1.
        -13    1    3    3    0    0 -0.50108104425E+02  0.43865768732E+02 -0.23915380453E+03  0.24825303627E+03  0.00000000000E+00 0. -1.
         13    1    3    3    0    0 -0.20053097020E+03 -0.17568578936E+02 -0.81514038157E+03  0.83962799300E+03  0.00000000000E+00 0.  1.
         -2    1    1    2    0  502  0.70545078654E+02 -0.34666490398E+01 -0.96839480815E+02  0.11986038054E+03  0.00000000000E+00 0.  1.
<scales pt_clust_5="13000.00000" pt_clust_6="13000.00000" pt_clust_7="13000.00000" pt_clust_8="13000.00000" pt_clust_9="13000.00000"></scales>
<clustering>
<clus scale="   80.768">  5  6 -1 -1</clus>
<clus scale="   70.630">  5  9 -1 -1</clus>
<clus scale="   91.855">  7  8 -1 -1</clus>
<clus scale="  268.233">  2  7  1 -1</clus>
<clus scale="  269.341">  1  5  2 -1</clus>
</clustering>
</event>
<event>
 9    2  0.6085395E-005  0.2280421E+03  0.7546771E-02  0.1134460E+00
         -1   -1    0    0    0  501 -0.00000000000E+00  0.00000000000E+00  0.68271226461E+03  0.68271226461E+03  0.00000000000E+00 0.  1.
         21   -1    0    0  501  502  0.00000000000E+00 -0.00000000000E+00 -0.19092457109E+03  0.19092457109E+03  0.00000000000E+00 0.  1.
         23    2    1    2    0    0 -0.13268243874E+03  0.11122098124E+03  0.59298099177E+03  0.62415076855E+03  0.89235581803E+02 0.  0.
         24    2    1    2    0    0  0.50457298869E+02 -0.21842299661E+02 -0.11589143042E+02  0.98560830766E+02  0.80974712479E+02 0.  0.
        -13    1    4    4    0    0  0.27759001703E+02  0.27362603103E+02 -0.19859198748E+02  0.43745422606E+02  0.00000000000E+00 0.  1.
         14    1    4    4    0    0  0.22698297166E+02 -0.49204902764E+02  0.82700557064E+01  0.54815408159E+02  0.00000000000E+00 0. -1.
        -13    1    3    3    0    0 -0.55074621411E+02  0.11744427077E+01  0.24280340912E+03  0.24897407238E+03  0.00000000000E+00 0. -1.
         13    1    3    3    0    0 -0.77607817333E+02  0.11004653853E+03  0.35017758265E+03  0.37517669617E+03  0.00000000000E+00 0.  1.
         -2    1    1    2    0  502  0.82225139874E+02 -0.89378681578E+02 -0.89604155205E+02  0.15092523639E+03  0.00000000000E+00 0.  1.
<scales pt_clust_5="13000.00000" pt_clust_6="13000.00000" pt_clust_7="13000.00000" pt_clust_8="13000.00000" pt_clust_9="13000.00000"></scales>
<clustering>
<clus scale="   80.975">  5  6 -1 -1</clus>
<clus scale="   89.236">  7  8 -1 -1</clus>
<clus scale="  121.448">  5  9 -1 -1</clus>
<clus scale="  194.776">  1  7  2 -1</clus>
<clus scale="  228.042">  2  5  1 -1</clus>
</clustering>
</event>
<event>
 9    2  0.6085395E-005  0.3198153E+03  0.7546771E-02  0.1108694E+00
         21   -1    0    0  501  502  0.00000000000E+00  0.00000000000E+00  0.48022273751E+03  0.48022273751E+03  0.00000000000E+00 0.  1.
         -3   -1    0    0    0  501 -0.00000000000E+00 -0.00000000000E+00 -0.12787679100E+03  0.12787679100E+03  0.00000000000E+00 0.  1.
         23    2    1    2    0    0 -0.91170948684E+02 -0.14448374177E+02  0.27653424248E+01  0.13429740860E+03  0.97505125181E+02 0.  0.
         24    2    1    2    0    0  0.11529928981E+03 -0.10692376629E+03  0.28282733085E+03  0.33319851821E+03  0.79393547779E+02 0.  0.
        -11    1    4    4    0    0  0.11287716113E+03 -0.89560249309E+02  0.28071981522E+03  0.31554065731E+03  0.00000000000E+00 0.  1.
         12    1    4    4    0    0  0.24221286841E+01 -0.17363516979E+02  0.21075156362E+01  0.17657860896E+02  0.00000000000E+00 0. -1.
        -13    1    3    3    0    0 -0.10571689370E+03  0.92552214762E+01  0.60480502700E+01  0.10629346005E+03  0.00000000000E+00 0. -1.
         13    1    3    3    0    0  0.14545945014E+02 -0.23703595653E+02 -0.32827078452E+01  0.28003948544E+02  0.00000000000E+00 0.  1.
         -4    1    1    2    0  502 -0.24128341131E+02  0.12137214047E+03  0.66753273231E+02  0.14060360171E+03  0.00000000000E+00 0.  1.
<scales pt_clust_5="13000.00000" pt_clust_6="13000.00000" pt_clust_7="13000.00000" pt_clust_8="13000.00000" pt_clust_9="13000.00000"></scales>
<clustering>
<clus scale="   79.394">  5  6 -1 -1</clus>
<clus scale="   97.505">  7  8 -1 -1</clus>
<clus scale="  123.747">  5  9 -1 -1</clus>
<clus scale="  134.269">  2  7  1 -1</clus>
<clus scale="  319.815">  1  5  2 -1</clus>
</clustering>
</event>
<event>
 9    2  0.6085395E-005  0.3070979E+03  0.7546771E-02  0.1112854E+00
         -3   -1    0    0    0  501 -0.00000000000E+00  0.00000000000E+00  0.86758155820E+02  0.86758155820E+02  0.00000000000E+00 0.  1.
         21   -1    0    0  501  502  0.00000000000E+00 -0.00000000000E+00 -0.58128051686E+03  0.58128051686E+03  0.00000000000E+00 0.  1.
         23    2    1    2    0    0  0.90259346197E+02 -0.51750766792E+02 -0.10577346478E+03  0.17262485096E+03  0.88240704213E+02 0.  0.
         24    2    1    2    0    0  0.49113874115E+02 -0.12761711999E+02 -0.21120288940E+02  0.96995012695E+02  0.79918283009E+02 0.  0.
        -13    1    4    4    0    0  0.12781280569E+02 -0.29855051215E+02  0.21101327331E+02  0.38729203854E+02  0.00000000000E+00 0.  1.
         14    1    4    4    0    0  0.36332593546E+02  0.17093339216E+02 -0.42221616271E+02  0.58265808841E+02  0.00000000000E+00 0. -1.
        -13    1    3    3    0    0  0.53118752111E+01 -0.23629507216E+02 -0.73686470641E+02  0.77564589763E+02  0.00000000000E+00 0. -1.
         13    1    3    3    0    0  0.84947470986E+02 -0.28121259575E+02 -0.32086994137E+02  0.95060261202E+02  0.00000000000E+00 0.  1.
         -4    1    1    2    0  502 -0.13937322031E+03  0.64512478790E+02 -0.36762860732E+03  0.39841880902E+03  0.00000000000E+00 0.  1.
<scales pt_clust_5="13000.00000" pt_clust_6="13000.00000" pt_clust_7="13000.00000" pt_clust_8="13000.00000" pt_clust_9="13000.00000"></scales>
<clustering>
<clus scale="   79.918">  5  6 -1 -1</clus>
<clus scale="   88.241">  7  8 -1 -1</clus>
<clus scale="  136.423">  1  7  2 -1</clus>
<clus scale="  123.688">  5  9 -1 -1</clus>
<clus scale="  307.098">  2  5  1 -1</clus>
</clustering>
</event>
<event>
 9    2  0.6085395E-005  0.3209128E+03  0.7546771E-02  0.1121306E+00
          2   -1    0    0  502    0 -0.00000000000E+00  0.00000000000E+00  0.12004360862E+04  0.12004360862E+04  0.00000000000E+00 0. -1.
         21   -1    0    0  501  502  0.00000000000E+00 -0.00000000000E+00 -0.40398594711E+02  0.40398594711E+02  0.00000000000E+00 0. -1.
         23    2    1    2    0    0 -0.15735706611E+02 -0.21681277844E+02  0.13023273726E+03  0.16218604740E+03  0.92876573180E+02 0.  0.
         24    2    1    2    0    0  0.87153644530E+02 -0.54592124159E+02  0.17755144687E+03  0.22001375557E+03  0.79407043637E+02 0.  0.
        -11    1    4    4    0    0  0.21941229198E+02 -0.24748427752E+02  0.12957395597E+03  0.13372850213E+03  0.00000000000E+00 0.  1.
         12    1    4    4    0    0  0.65212415332E+02 -0.29843696407E+02  0.47977490895E+02  0.86285253440E+02  0.00000000000E+00 0. -1.
        -11    1    3    3    0    0 -0.15203043481E+01  0.36593780580E+02  0.52016968996E+02  0.63617459600E+02  0.00000000000E+00 0.  1.
         11    1    3    3    0    0 -0.14215402263E+02 -0.58275058424E+02  0.78215768259E+02  0.98568587797E+02  0.00000000000E+00 0. -1.
          1    1    1    2  501    0 -0.71417937918E+02  0.76273402003E+02  0.85225330740E+03  0.85863487798E+03  0.00000000000E+00 0. -1.
<scales pt_clust_5="13000.00000" pt_clust_6="13000.00000" pt_clust_7="13000.00000" pt_clust_8="13000.00000" pt_clust_9="13000.00000"></scales>
<clustering>
<clus scale="   79.407">  5  6 -1 -1</clus>
<clus scale="   92.877">  7  8 -1 -1</clus>
<clus scale="   96.663">  1  7  2 -1</clus>
<clus scale="  102.620">  5  9 -1 -1</clus>
<clus scale="  320.913">  2  5  1 -1</clus>
</clustering>
</event>
<event>
 9    2  0.6085395E-005  0.3342781E+03  0.7546771E-02  0.1107857E+00
         21   -1    0    0  501  502  0.00000000000E+00  0.00000000000E+00  0.77933759255E+02  0.77933759255E+02  0.00000000000E+00 0. -1.
          2   -1    0    0  502    0 -0.00000000000E+00 -0.00000000000E+00 -0.80967500698E+03  0.80967500698E+03  0.00000000000E+00 0. -1.
         23    2    1    2    0    0  0.52487483609E+02  0.50769336282E+02 -0.39605400875E+03  0.41387065400E+03  0.95381753767E+02 0.  0.
         24    2    1    2    0    0 -0.70893870705E+02  0.37047692443E+02 -0.36367639624E+03  0.37974865249E+03  0.74498627253E+02 0.  0.
        -11    1    4    4    0    0 -0.33434992320E+01  0.38214982594E+02 -0.89568733519E+02  0.97437784796E+02  0.00000000000E+00 0.  1.
         12    1    4    4    0    0 -0.67550371473E+02 -0.11672901514E+01 -0.27410766272E+03  0.28231086769E+03  0.00000000000E+00 0. -1.
        -13    1    3    3    0    0  0.96894697924E+01 -0.27481722384E+02 -0.69642662122E+02  0.75493253192E+02  0.00000000000E+00 0.  1.
         13    1    3    3    0    0  0.42798013817E+02  0.78251058666E+02 -0.32641134663E+03  0.33837740081E+03  0.00000000000E+00 0. -1.
          1    1    1    2  501    0  0.18406387095E+02 -0.87817028725E+02  0.27989157267E+02  0.93989459752E+02  0.00000000000E+00 0. -1.
<scales pt_clust_5="13000.00000" pt_clust_6="13000.00000" pt_clust_7="13000.00000" pt_clust_8="13000.00000" pt_clust_9="13000.00000"></scales>
<clustering>
<clus scale="   74.499">  5  6 -1 -1</clus>
<clus scale="   89.725">  5  9 -1 -1</clus>
<clus scale="   95.382">  7  8 -1 -1</clus>
<clus scale="  120.126">  2  7  1 -1</clus>
<clus scale="  334.278">  1  5  2 -1</clus>
</clustering>
</event>
<event>
 9    2  0.6085395E-005  0.5403179E+03  0.7546771E-02  0.1055052E+00
         21   -1    0    0  501  502  0.00000000000E+00  0.00000000000E+00  0.54634344178E+02  0.54634344178E+02  0.00000000000E+00 0.  1.
         -3   -1    0    0    0  501 -0.00000000000E+00 -0.00000000000E+00 -0.19928939426E+04  0.19928939426E+04  0.00000000000E+00 0.  1.
         23    2    1    2    0    0 -0.40888717815E+02 -0.61858529924E+02 -0.28896593607E+03  0.31198428265E+03  0.91293567363E+02 0.  0.
         24    2    1    2    0    0  0.13379626027E+03 -0.20407696691E+03 -0.71667946851E+03  0.76131470131E+03  0.80135923020E+02 0.  0.
        -13    1    4    4    0    0  0.31863593398E+02 -0.60970121728E+02 -0.32242441527E+03  0.32968188894E+03  0.00000000000E+00 0.  1.
         14    1    4    4    0    0  0.10193266688E+03 -0.14310684518E+03 -0.39425505324E+03  0.43163281237E+03  0.00000000000E+00 0. -1.
        -13    1    3    3    0    0 -0.19577433836E+02  0.76439601625E+01 -0.92257750440E+01  0.22952580851E+02  0.00000000000E+00 0.  1.
         13    1    3    3    0    0 -0.21311283979E+02 -0.69502490087E+02 -0.27974016102E+03  0.28903170179E+03  0.00000000000E+00 0. -1.
         -4    1    1    2    0  502 -0.92907542458E+02  0.26593549683E+03 -0.93261419389E+03  0.97422930287E+03  0.00000000000E+00 0.  1.
<scales pt_clust_5="13000.00000" pt_clust_6="13000.00000" pt_clust_7="13000.00000" pt_clust_8="13000.00000" pt_clust_9="13000.00000"></scales>
<clustering>
<clus scale="   80.136">  5  6 -1 -1</clus>
<clus scale="   91.294">  7  8 -1 -1</clus>
<clus scale="  117.613">  2  7  1 -1</clus>
<clus scale="  258.542">  5  9 -1 -1</clus>
<clus scale="  540.318">  1  5  2 -1</clus>
</clustering>
</event>
<event>
 9    2  0.6085395E-005  0.2270623E+03  0.7546771E-02  0.1165218E+00
         -3   -1    0    0    0  501 -0.00000000000E+00  0.00000000000E+00  0.40478152159E+03  0.40478152159E+03  0.00000000000E+00 0.  1.
         21   -1    0    0  501  502  0.00000000000E+00 -0.00000000000E+00 -0.11337867275E+03  0.11337867275E+03  0.00000000000E+00 0. -1.
         23    2    1    2    0    0  0.36424647362E+01 -0.28174292295E+02  0.27443187417E+03  0.29046451826E+03  0.90827994091E+02 0.  0.
         24    2    1    2    0    0 -0.44279817573E+02  0.10363126953E+03 -0.89745017900E+01  0.13815061699E+03  0.79403457262E+02 0.  0.
        -11    1    4    4    0    0 -0.60800125819E+02  0.51216488474E+02  0.97476856576E+01  0.80092455119E+02  0.00000000000E+00 0.  1.
         12    1    4    4    0    0  0.16520308247E+02  0.52414781054E+02 -0.18722187448E+02  0.58058161875E+02  0.00000000000E+00 0. -1.
        -13    1    3    3    0    0  0.12058389396E+02 -0.60069297439E+02  0.19676210650E+03  0.20608020721E+03  0.00000000000E+00 0.  1.
         13    1    3    3    0    0 -0.84159246600E+01  0.31895005144E+02  0.77669767675E+02  0.84384311052E+02  0.00000000000E+00 0. -1.
         -4    1    1    2    0  502  0.40637352836E+02 -0.75456977233E+02  0.25945476450E+02  0.89545059087E+02  0.00000000000E+00 0.  1.
<scales pt_clust_5="13000.00000" pt_clust_6="13000.00000" pt_clust_7="13000.00000" pt_clust_8="13000.00000" pt_clust_9="13000.00000"></scales>
<clustering>
<clus scale="   79.403">  5  6 -1 -1</clus>
<clus scale="   85.704">  5  9 -1 -1</clus>
<clus scale="   90.828">  7  8 -1 -1</clus>
<clus scale="   95.167">  1  7  2 -1</clus>
<clus scale="  227.062">  2  5  1 -1</clus>
</clustering>
</event>
<event>
 9    2  0.6085395E-005  0.5874973E+03  0.7546771E-02  0.9988390E-01
         21   -1    0    0  501  502  0.00000000000E+00  0.00000000000E+00  0.14918599032E+03  0.14918599032E+03  0.00000000000E+00 0. -1.
          2   -1    0    0  502    0 -0.00000000000E+00 -0.00000000000E+00 -0.19666174360E+04  0.19666174360E+04  0.00000000000E+00 0. -1.
         23    2    1    2    0    0  0.25933302564E+03 -0.40679542044E+03 -0.93075157289E+03  0.10521520431E+04  0.89382878999E+02 0.  0.
         24    2    1    2    0    0 -0.31313522725E+02 -0.24018921404E+02 -0.75302762386E+02  0.11711733412E+03  0.80551341628E+02 0.  0.
        -11    1    4    4    0    0 -0.39966267065E+02 -0.48410412455E+02 -0.44845701134E+02  0.77149254354E+02  0.00000000000E+00 0.  1.
         12    1    4    4    0    0  0.86527443395E+01  0.24391491051E+02 -0.30457061252E+02  0.39968079769E+02  0.00000000000E+00 0. -1.
        -13    1    3    3    0    0  0.66967634381E+02 -0.70428271852E+02 -0.25929721251E+03  0.27691126728E+03  0.00000000000E+00 0.  1.
         13    1    3    3    0    0  0.19236539126E+03 -0.33636714859E+03 -0.67145436038E+03  0.77524077581E+03  0.00000000000E+00 0. -1.
          1    1    1    2  501    0 -0.22801950292E+03  0.43081434184E+03 -0.81137711042E+03  0.94653404913E+03  0.00000000000E+00 0. -1.
<scales pt_clust_5="13000.00000" pt_clust_6="13000.00000" pt_clust_7="13000.00000" pt_clust_8="13000.00000" pt_clust_9="13000.00000"></scales>
<clustering>
<clus scale="   80.551">  5  6 -1 -1</clus>
<clus scale="   89.383">  7  8 -1 -1</clus>
<clus scale="  487.436">  5  9 -1 -1</clus>
<clus scale="  490.638">  2  7  1 -1</clus>
<clus scale="  587.497">  1  5  2 -1</clus>
</clustering>
</event>
<event>
 9    2  0.6085395E-005  0.2642829E+03  0.7546771E-02  0.1115633E+00
         21   -1    0    0  501  502  0.00000000000E+00  0.00000000000E+00  0.13148482339E+03  0.13148482339E+03  0.00000000000E+00 0. -1.
          2   -1    0    0  502    0 -0.00000000000E+00 -0.00000000000E+00 -0.40903361290E+03  0.40903361290E+03  0.00000000000E+00 0. -1.
         23    2    1    2    0    0 -0.85175667224E+02  0.15692016017E+03 -0.11817402285E+03  0.23189933708E+03  0.89069477971E+02 0.  0.
         24    2    1    2    0    0  0.51194486468E+02 -0.31574690433E+02  0.26395418714E+01  0.10097795782E+03  0.81066295490E+02 0.  0.
        -13    1    4    4    0    0  0.20801128490E+02  0.26794933499E+02 -0.64978298602E+01  0.34538054383E+02  0.00000000000E+00 0.  1.
         14    1    4    4    0    0  0.30393357978E+02 -0.58369623932E+02  0.91373717316E+01  0.66439903442E+02  0.00000000000E+00 0. -1.
        -13    1    3    3    0    0 -0.46602520268E+02  0.21026565546E+02 -0.59225386317E+01  0.51468318584E+02  0.00000000000E+00 0.  1.
         13    1    3    3    0    0 -0.38573146956E+02  0.13589359463E+03 -0.11225148422E+03  0.18043101849E+03  0.00000000000E+00 0. -1.
          1    1    1    2  501    0  0.33981180756E+02 -0.12534546974E+03 -0.16201430853E+03  0.20764114139E+03  0.00000000000E+00 0. -1.
<scales pt_clust_5="13000.00000" pt_clust_6="13000.00000" pt_clust_7="13000.00000" pt_clust_8="13000.00000" pt_clust_9="13000.00000"></scales>
<clustering>
<clus scale="   81.066">  5  6 -1 -1</clus>
<clus scale="   89.069">  7  8 -1 -1</clus>
<clus scale="  129.870">  5  9 -1 -1</clus>
<clus scale="  199.530">  2  7  1 -1</clus>
<clus scale="  264.283">  1  5  2 -1</clus>
</clustering>
</event>
<event>
 9    2  0.6085395E-005  0.1344884E+04  0.7546771E-02  0.9288039E-01
         21   -1    0    0  501  502  0.00000000000E+00  0.00000000000E+00  0.14298957323E+04  0.14298957323E+04  0.00000000000E+00 0. -1.
          4   -1    0    0  502    0 -0.00000000000E+00 -0.00000000000E+00 -0.56097522589E+03  0.56097522589E+03  0.00000000000E+00 0. -1.
         23    2    1    2    0    0 -0.27589027977E+03  0.33520441152E+03  0.16425858921E+03  0.47256193243E+03  0.88636628294E+02 0.  0.
         24    2    1    2    0    0  0.16417522212E+03  0.46468850813E+03  0.44785139768E+03  0.67080647122E+03  0.80756016999E+02 0.  0.
        -13    1    4    4    0    0  0.34724872815E+02  0.31563491523E+02  0.50545356258E+02  0.68970311210E+02  0.00000000000E+00 0.  1.
         14    1    4    4    0    0  0.12945034930E+03  0.43312501661E+03  0.39730604142E+03  0.60183616001E+03  0.00000000000E+00 0. -1.
        -11    1    3    3    0    0 -0.20795173679E+03  0.23961719755E+03  0.77254145927E+02  0.32654024141E+03  0.00000000000E+00 0. -1.
         11    1    3    3    0    0 -0.67938542978E+02  0.95587213976E+02  0.87004443285E+02  0.14602169102E+03  0.00000000000E+00 0.  1.
          3    1    1    2  501    0  0.11171505766E+03 -0.79989291966E+03  0.25681051954E+03  0.84750255455E+03  0.00000000000E+00 0. -1.
<scales pt_clust_5="13000.00000" pt_clust_6="13000.00000" pt_clust_7="13000.00000" pt_clust_8="13000.00000" pt_clust_9="13000.00000"></scales>
<clustering>
<clus scale="   80.756">  5  6 -1 -1</clus>
<clus scale="   88.637">  7  8 -1 -1</clus>
<clus scale="  443.096">  2  7  1 -1</clus>
<clus scale="  563.546">  5  9 -1 -1</clus>
<clus scale=" 1344.884">  1  5  2 -1</clus>
</clustering>
</event>
<event>
 9    2  0.6085395E-005  0.2216491E+03  0.7546771E-02  0.1170003E+00
         -3   -1    0    0    0  501 -0.00000000000E+00  0.00000000000E+00  0.52606742464E+02  0.52606742464E+02  0.00000000000E+00 0.  1.
         21   -1    0    0  501  502  0.00000000000E+00 -0.00000000000E+00 -0.55502691063E+03  0.55502691063E+03  0.00000000000E+00 0.  1.
         23    2    1    2    0    0  0.19171039072E+01  0.20852413690E+02 -0.51395469232E+02  0.10508853578E+03  0.89239047796E+02 0.  0.
         24    2    1    2    0    0 -0.65000635321E+02  0.16269355286E+02 -0.40313965890E+03  0.41507778211E+03  0.72651263674E+02 0.  0.
        -11    1    4    4    0    0 -0.53339125154E+02  0.36924593333E+02 -0.19316309377E+03  0.20376572003E+03  0.00000000000E+00 0.  1.
         12    1    4    4    0    0 -0.11661510167E+02 -0.20655238047E+02 -0.20997656513E+03  0.21131206208E+03  0.00000000000E+00 0. -1.
        -13    1    3    3    0    0  0.17733981285E+02  0.50402274753E+02 -0.14755404000E+02  0.55431086402E+02  0.00000000000E+00 0.  1.
         13    1    3    3    0    0 -0.15816877378E+02 -0.29549861063E+02 -0.36640065233E+02  0.49657449382E+02  0.00000000000E+00 0. -1.
         -4    1    1    2    0  502  0.63083531414E+02 -0.37121768976E+02 -0.47885040038E+02  0.87467335201E+02  0.00000000000E+00 0.  1.
<scales pt_clust_5="13000.00000" pt_clust_6="13000.00000" pt_clust_7="13000.00000" pt_clust_8="13000.00000" pt_clust_9="13000.00000"></scales>
<clustering>
<clus scale="   72.651">  5  6 -1 -1</clus>
<clus scale="   73.195">  5  9 -1 -1</clus>
<clus scale="   89.239">  7  8 -1 -1</clus>
<clus scale="   91.663">  1  7  2 -1</clus>
<clus scale="  221.649">  2  5  1 -1</clus>
</clustering>
</event>
<event>
 9    2  0.6085395E-005  0.3977139E+03  0.7546771E-02  0.1063202E+00
         21   -1    0    0  501  502  0.00000000000E+00  0.00000000000E+00  0.52877001380E+02  0.52877001380E+02  0.00000000000E+00 0. -1.
          2   -1    0    0  502    0 -0.00000000000E+00 -0.00000000000E+00 -0.20206821807E+04  0.20206821807E+04  0.00000000000E+00 0. -1.
         23    2    1    2    0    0  0.50697163994E+02 -0.21043034100E+03 -0.10011044116E+04  0.10282426342E+04  0.90673816490E+02 0.  0.
         24    2    1    2    0    0 -0.49832996994E+02 -0.68699034873E+02 -0.32740509272E+03  0.34774008947E+03  0.80784838339E+02 0.  0.
        -13    1    4    4    0    0 -0.63624788356E+02 -0.40238398638E+02 -0.28539109489E+03  0.29515304414E+03  0.00000000000E+00 0.  1.
         14    1    4    4    0    0  0.13791791361E+02 -0.28460636235E+02 -0.42013997827E+02  0.52587045337E+02  0.00000000000E+00 0. -1.
        -11    1    3    3    0    0 -0.64385805116E+01 -0.10854273082E+03 -0.62589850071E+03  0.63527310106E+03  0.00000000000E+00 0.  1.
         11    1    3    3    0    0  0.57135744505E+02 -0.10188761018E+03 -0.37520591091E+03  0.39296953315E+03  0.00000000000E+00 0. -1.
          1    1    1    2  501    0 -0.86416699918E+00  0.27912937587E+03 -0.63929567499E+03  0.69757645840E+03  0.00000000000E+00 0. -1.
<scales pt_clust_5="13000.00000" pt_clust_6="13000.00000" pt_clust_7="13000.00000" pt_clust_8="13000.00000" pt_clust_9="13000.00000"></scales>
<clustering>
<clus scale="   80.785">  5  6 -1 -1</clus>
<clus scale="   90.674">  7  8 -1 -1</clus>
<clus scale="  234.676">  2  7  1 -1</clus>
<clus scale="  143.124">  5  9 -1 -1</clus>
<clus scale="  397.714">  1  5  2 -1</clus>
</clustering>
</event>
<event>
 9    2  0.6085395E-005  0.1918255E+03  0.7546771E-02  0.1181414E+00
          2   -1    0    0  502    0 -0.00000000000E+00  0.00000000000E+00  0.27009999332E+03  0.27009999332E+03  0.00000000000E+00 0. -1.
         21   -1    0    0  501  502  0.00000000000E+00 -0.00000000000E+00 -0.84820795851E+02  0.84820795851E+02  0.00000000000E+00 0. -1.
         23    2    1    2    0    0 -0.40181963305E+02  0.44427597181E+02  0.49479031932E+02  0.11989162026E+03  0.91309498083E+02 0.  0.
         24    2    1    2    0    0 -0.37792042151E+02 -0.15610338410E+02  0.20890045047E+02  0.93202811278E+02  0.81107637944E+02 0.  0.
        -13    1    4    4    0    0 -0.11578209173E+02  0.32529870195E+02 -0.37844202563E-01  0.34528956178E+02  0.00000000000E+00 0.  1.
         14    1    4    4    0    0 -0.26213832978E+02 -0.48140208604E+02  0.20927889250E+02  0.58673855100E+02  0.00000000000E+00 0. -1.
        -13    1    3    3    0    0 -0.88450462700E+01 -0.25469360778E+02 -0.28676600492E+01  0.27113588035E+02  0.00000000000E+00 0.  1.
         13    1    3    3    0    0 -0.31336917035E+02  0.69896957960E+02  0.52346691981E+02  0.92778032220E+02  0.00000000000E+00 0. -1.
          1    1    1    2  501    0  0.77974005457E+02 -0.28817258772E+02  0.11491012049E+03  0.14182635764E+03  0.00000000000E+00 0. -1.
<scales pt_clust_5="13000.00000" pt_clust_6="13000.00000" pt_clust_7="13000.00000" pt_clust_8="13000.00000" pt_clust_9="13000.00000"></scales>
<clustering>
<clus scale="   81.108">  5  6 -1 -1</clus>
<clus scale="   83.129">  5  9 -1 -1</clus>
<clus scale="   91.309">  7  8 -1 -1</clus>
<clus scale="  109.205">  1  7  2 -1</clus>
<clus scale="  191.826">  2  5  1 -1</clus>
</clustering>
</event>
<event>
 9    2  0.6085395E-005  0.1040405E+04  0.7546771E-02  0.9421648E-01
          2   -1    0    0  502    0 -0.00000000000E+00  0.00000000000E+00  0.16721740665E+04  0.16721740665E+04  0.00000000000E+00 0. -1.
         21   -1    0    0  501  502  0.00000000000E+00 -0.00000000000E+00 -0.42596488704E+03  0.42596488704E+03  0.00000000000E+00 0. -1.
         23    2    1    2    0    0  0.56695732461E+03 -0.13810566726E+03  0.72268145686E+03  0.93343991867E+03  0.92346144604E+02 0.  0.
         24    2    1    2    0    0 -0.31465100540E+03  0.49287185765E+03  0.20365939830E+03  0.62448308411E+03  0.81080506620E+02 0.  0.
        -11    1    4    4    0    0 -0.33260268342E+02  0.10632214460E+03  0.51510804881E+02  0.12273551605E+03  0.00000000000E+00 0.  1.
         12    1    4    4    0    0 -0.28139073706E+03  0.38654971305E+03  0.15214859342E+03  0.50174756805E+03  0.00000000000E+00 0. -1.
        -13    1    3    3    0    0  0.54866219857E+03 -0.12364773893E+03  0.71316893638E+03  0.90825596794E+03  0.00000000000E+00 0. -1.
         13    1    3    3    0    0  0.18295126042E+02 -0.14457928339E+02  0.95125204821E+01  0.25183950736E+02  0.00000000000E+00 0.  1.
          1    1    1    2  501    0 -0.25230631921E+03 -0.35476619039E+03  0.31986832427E+03  0.54021595073E+03  0.00000000000E+00 0. -1.
<scales pt_clust_5="13000.00000" pt_clust_6="13000.00000" pt_clust_7="13000.00000" pt_clust_8="13000.00000" pt_clust_9="13000.00000"></scales>
<clustering>
<clus scale="   81.081">  5  6 -1 -1</clus>
<clus scale="   92.346">  7  8 -1 -1</clus>
<clus scale="  435.336">  5  9 -1 -1</clus>
<clus scale="  590.797">  1  7  2 -1</clus>
<clus scale=" 1040.405">  2  5  1 -1</clus>
</clustering>
</event>
<event>
 9    2  0.6085395E-005  0.1952207E+03  0.7546771E-02  0.1170881E+00
         21   -1    0    0  501  502  0.00000000000E+00  0.00000000000E+00  0.29341111768E+02  0.29341111768E+02  0.00000000000E+00 0. -1.
         -1   -1    0    0    0  501 -0.00000000000E+00 -0.00000000000E+00 -0.92562376250E+03  0.92562376250E+03  0.00000000000E+00 0.  1.
         23    2    1    2    0    0 -0.43873344067E+02  0.84625961160E+02 -0.30038922196E+03  0.32790816623E+03  0.90574042565E+02 0.  0.
         24    2    1    2    0    0  0.74666625875E+01 -0.11534848816E+03 -0.36307352814E+03  0.38941322243E+03  0.80369435739E+02 0.  0.
        -13    1    4    4    0    0 -0.14813647288E+02 -0.70262236718E+02 -0.30139266988E+03  0.30982860990E+03  0.00000000000E+00 0.  1.
         14    1    4    4    0    0  0.22280309875E+02 -0.45086251438E+02 -0.61680858262E+02  0.79584612537E+02  0.00000000000E+00 0. -1.
        -13    1    3    3    0    0 -0.28692535532E+02 -0.13837639361E+02 -0.71078114689E+02  0.77889923906E+02  0.00000000000E+00 0. -1.
         13    1    3    3    0    0 -0.15180808535E+02  0.98463600521E+02 -0.22931110727E+03  0.25001824232E+03  0.00000000000E+00 0.  1.
         -2    1    1    2    0  502  0.36406681479E+02  0.30722526995E+02 -0.23281990063E+03  0.23764348561E+03  0.00000000000E+00 0.  1.
<scales pt_clust_5="13000.00000" pt_clust_6="13000.00000" pt_clust_7="13000.00000" pt_clust_8="13000.00000" pt_clust_9="13000.00000"></scales>
<clustering>
<clus scale="   80.369">  5  6 -1 -1</clus>
<clus scale="   47.637">  5  9 -1 -1</clus>
<clus scale="   90.574">  7  8 -1 -1</clus>
<clus scale="  131.492">  2  7  1 -1</clus>
<clus scale="  195.221">  1  5  2 -1</clus>
</clustering>
</event>
<event>
 9    2  0.6085395E-005  0.1555606E+03  0.7546771E-02  0.1217958E+00
         -1   -1    0    0    0  501 -0.00000000000E+00  0.00000000000E+00  0.30655524644E+03  0.30655524644E+03  0.00000000000E+00 0.  1.
         21   -1    0    0  501  502  0.00000000000E+00 -0.00000000000E+00 -0.27879690843E+03  0.27879690843E+03  0.00000000000E+00 0.  1.
         23    2    1    2    0    0 -0.21088717977E+01 -0.14531170853E+02  0.27672286333E+03  0.29178371203E+03  0.91359669726E+02 0.  0.
         24    2    1    2    0    0 -0.42282183067E+02  0.28266484040E+02 -0.10262230814E+03  0.14002604118E+03  0.80555427849E+02 0.  0.
        -13    1    4    4    0    0 -0.51926288872E+02 -0.92317200969E+00 -0.95132284580E+02  0.10838516177E+03  0.00000000000E+00 0.  1.
         14    1    4    4    0    0  0.96441058053E+01  0.29189656050E+02 -0.74900235653E+01  0.31640879414E+02  0.00000000000E+00 0. -1.
        -11    1    3    3    0    0 -0.20600847690E+02  0.22110991504E+02  0.33479036886E+02  0.45101405540E+02  0.00000000000E+00 0. -1.
         11    1    3    3    0    0  0.18491975892E+02 -0.36642162357E+02  0.24324382644E+03  0.24668230649E+03  0.00000000000E+00 0.  1.
         -2    1    1    2    0  502  0.44391054865E+02 -0.13735313188E+02 -0.14634221717E+03  0.15354240165E+03  0.00000000000E+00 0.  1.
<scales pt_clust_5="13000.00000" pt_clust_6="13000.00000" pt_clust_7="13000.00000" pt_clust_8="13000.00000" pt_clust_9="13000.00000"></scales>
<clustering>
<clus scale="   80.555">  5  6 -1 -1</clus>
<clus scale="   46.467">  5  9 -1 -1</clus>
<clus scale="   91.360">  7  8 -1 -1</clus>
<clus scale="   92.532">  1  7  2 -1</clus>
<clus scale="  155.561">  2  5  1 -1</clus>
</clustering>
</event>
<event>
 9    2  0.6085395E-005  0.6259490E+03  0.7546771E-02  0.1044912E+00
         21   -1    0    0  501  502  0.00000000000E+00  0.00000000000E+00  0.22601357631E+03  0.22601357631E+03  0.00000000000E+00 0.  1.
          2   -1    0    0  502    0 -0.00000000000E+00 -0.00000000000E+00 -0.61113189032E+03  0.61113189032E+03  0.00000000000E+00 0. -1.
         23    2    1    2    0    0  0.40142169817E+02 -0.18258395045E+02 -0.12132795067E+03  0.15788302629E+03  0.90894530019E+02 0.  0.
         24    2    1    2    0    0 -0.15992447727E+03 -0.17782426556E+03  0.81204830105E+02  0.26475321913E+03  0.79389764782E+02 0.  0.
        -13    1    4    4    0    0 -0.11571405301E+03 -0.96729664546E+02  0.83442929342E+02  0.17236325747E+03  0.00000000000E+00 0.  1.
         14    1    4    4    0    0 -0.44210424262E+02 -0.81094601018E+02 -0.22380992370E+01  0.92389961662E+02  0.00000000000E+00 0. -1.
        -13    1    3    3    0    0  0.12340523639E+02 -0.47633726889E+02 -0.10158726027E+03  0.11287706547E+03  0.00000000000E+00 0.  1.
         13    1    3    3    0    0  0.27801646178E+02  0.29375331843E+02 -0.19740690407E+02  0.45005960815E+02  0.00000000000E+00 0. -1.
          1    1    1    2  501    0  0.11978230745E+03  0.19608266061E+03 -0.34499519345E+03  0.41450922121E+03  0.00000000000E+00 0. -1.
<scales pt_clust_5="13000.00000" pt_clust_6="13000.00000" pt_clust_7="13000.00000" pt_clust_8="13000.00000" pt_clust_9="13000.00000"></scales>
<clustering>
<clus scale="   79.390">  5  6 -1 -1</clus>
<clus scale="   90.895">  7  8 -1 -1</clus>
<clus scale="  101.028">  2  7  1 -1</clus>
<clus scale="  236.719">  5  9 -1 -1</clus>
<clus scale="  625.949">  1  5  2 -1</clus>
</clustering>
</event>
<event>
 9    2  0.6085395E-005  0.3134466E+03  0.7546771E-02  0.1094709E+00
         21   -1    0    0  501  502  0.00000000000E+00  0.00000000000E+00  0.30071205737E+03  0.30071205737E+03  0.00000000000E+00 0.  1.
         -3   -1    0    0    0  501 -0.00000000000E+00 -0.00000000000E+00 -0.23909608201E+03  0.23909608201E+03  0.00000000000E+00 0.  1.
         23    2    1    2    0    0  0.17394597729E+03  0.57663175457E+02 -0.43228516484E+02  0.20929162790E+03  0.91389474521E+02 0.  0.
         24    2    1    2    0    0 -0.14540359916E+03 -0.11684664009E+03  0.14901647562E+03  0.25134256383E+03  0.78560998202E+02 0.  0.
        -13    1    4    4    0    0 -0.14986076145E+03 -0.12082177669E+03  0.15140802830E+03  0.24490924969E+03  0.00000000000E+00 0.  1.
         14    1    4    4    0    0  0.44571622948E+01  0.39751365983E+01 -0.23915526831E+01  0.64333141485E+01  0.00000000000E+00 0. -1.
        -11    1    3    3    0    0  0.59664514796E+02  0.47262447865E+02  0.19415076745E+02  0.78552775311E+02  0.00000000000E+00 0.  1.
         11    1    3    3    0    0  0.11428146250E+03  0.10400727592E+02 -0.62643593228E+02  0.13073885259E+03  0.00000000000E+00 0. -1.
         -4    1    1    2    0  502 -0.28542378132E+02  0.59183464638E+02 -0.44171983773E+02  0.79173947649E+02  0.00000000000E+00 0.  1.
<scales pt_clust_5="13000.00000" pt_clust_6="13000.00000" pt_clust_7="13000.00000" pt_clust_8="13000.00000" pt_clust_9="13000.00000"></scales>
<clustering>
<clus scale="   78.561">  5  6 -1 -1</clus>
<clus scale="   65.707">  5  9 -1 -1</clus>
<clus scale="   91.389">  7  8 -1 -1</clus>
<clus scale="  204.779">  2  7  1 -1</clus>
<clus scale="  313.447">  1  5  2 -1</clus>
</clustering>
</event>
<event>
 9    2  0.6085395E-005  0.4157216E+03  0.7546771E-02  0.1083043E+00
         -3   -1    0    0    0  501 -0.00000000000E+00  0.00000000000E+00  0.25159482661E+03  0.25159482661E+03  0.00000000000E+00 0.  1.
         21   -1    0    0  501  502  0.00000000000E+00 -0.00000000000E+00 -0.45682000952E+03  0.45682000952E+03  0.00000000000E+00 0. -1.
         23    2    1    2    0    0 -0.63054638178E+02 -0.43820296796E+02  0.12834849605E+03  0.17540837438E+03  0.91644179059E+02 0.  0.
         24    2    1    2    0    0  0.22530297892E+03  0.64443689109E+02 -0.18578233482E+03  0.31257023564E+03  0.90943141037E+02 0.  0.
        -13    1    4    4    0    0  0.31582288659E+02  0.46066578225E+02 -0.30652283367E+02  0.63711326009E+02  0.00000000000E+00 0.  1.
         14    1    4    4    0    0  0.19372069026E+03  0.18377110884E+02 -0.15513005145E+03  0.24885890963E+03  0.00000000000E+00 0. -1.
        -11    1    3    3    0    0 -0.37825347583E+02 -0.23199997312E+02  0.13504073402E+03  0.14214428107E+03  0.00000000000E+00 0.  1.
         11    1    3    3    0    0 -0.25229290595E+02 -0.20620299483E+02 -0.66922379679E+01  0.33264093310E+02  0.00000000000E+00 0. -1.
         -4    1    1    2    0  502 -0.16224834074E+03 -0.20623392313E+02 -0.14779134414E+03  0.22043622612E+03  0.00000000000E+00 0.  1.
<scales pt_clust_5="13000.00000" pt_clust_6="13000.00000" pt_clust_7="13000.00000" pt_clust_8="13000.00000" pt_clust_9="13000.00000"></scales>
<clustering>
<clus scale="   90.943">  5  6 -1 -1</clus>
<clus scale="   91.644">  7  8 -1 -1</clus>
<clus scale="  119.561">  1  7  2 -1</clus>
<clus scale="  188.795">  5  9 -1 -1</clus>
<clus scale="  415.722">  2  5  1 -1</clus>
</clustering>
</event>
<event>
 9    2  0.6085395E-005  0.3970219E+03  0.7546771E-02  0.1064318E+00
          2   -1    0    0  502    0 -0.00000000000E+00  0.00000000000E+00  0.22769852996E+03  0.22769852996E+03  0.00000000000E+00 0. -1.
         21   -1    0    0  501  502  0.00000000000E+00 -0.00000000000E+00 -0.43592752018E+03  0.43592752018E+03  0.00000000000E+00 0.  1.
         23    2    1    2    0    0 -0.20369459672E+03  0.51995813383E+02 -0.11417854136E+03  0.25561638758E+03  0.90044127809E+02 0.  0.
         24    2    1    2    0    0  0.70374626543E+02 -0.35750104118E+02 -0.20576173657E+03  0.23331693426E+03  0.76604448785E+02 0.  0.
        -13    1    4    4    0    0  0.70971895582E+02 -0.53237171955E+02 -0.14410970018E+03  0.16923005681E+03  0.00000000000E+00 0.  1.
         14    1    4    4    0    0 -0.59726903901E+00  0.17487067836E+02 -0.61652036381E+02  0.64086877453E+02  0.00000000000E+00 0. -1.
        -13    1    3    3    0    0 -0.15188732582E+03 -0.16182499536E+01 -0.93026644158E+02  0.17811887885E+03  0.00000000000E+00 0.  1.
         13    1    3    3    0    0 -0.51807270899E+02  0.53614063337E+02 -0.21151897197E+02  0.77497508737E+02  0.00000000000E+00 0. -1.
          1    1    1    2  501    0  0.13331997018E+03 -0.16245709265E+02  0.11171128770E+03  0.17469272829E+03  0.00000000000E+00 0. -1.
<scales pt_clust_5="13000.00000" pt_clust_6="13000.00000" pt_clust_7="13000.00000" pt_clust_8="13000.00000" pt_clust_9="13000.00000"></scales>
<clustering>
<clus scale="   76.604">  5  6 -1 -1</clus>
<clus scale="   90.044">  7  8 -1 -1</clus>
<clus scale="  134.306">  5  9 -1 -1</clus>
<clus scale="  228.699">  1  7  2 -1</clus>
<clus scale="  397.022">  2  5  1 -1</clus>
</clustering>
</event>
<event>
 9    2  0.6085395E-005  0.4663117E+03  0.7546771E-02  0.1059290E+00
         -1   -1    0    0    0  501 -0.00000000000E+00  0.00000000000E+00  0.84795442662E+03  0.84795442662E+03  0.00000000000E+00 0.  1.
         21   -1    0    0  501  502  0.00000000000E+00 -0.00000000000E+00 -0.12056133076E+03  0.12056133076E+03  0.00000000000E+00 0.  1.
         23    2    1    2    0    0 -0.70047642457E+02  0.11739210148E+03  0.27158565012E+03  0.31643673265E+03  0.87669052205E+02 0.  0.
         24    2    1    2    0    0  0.12568893550E+03  0.10981498778E+03  0.62837231271E+02  0.19475572074E+03  0.78257479388E+02 0.  0.
        -13    1    4    4    0    0  0.63277013708E+02  0.97328707210E+02  0.60861825416E+02  0.13107638805E+03  0.00000000000E+00 0.  1.
         14    1    4    4    0    0  0.62411921790E+02  0.12486280572E+02  0.19754058545E+01  0.63679332694E+02  0.00000000000E+00 0. -1.
        -13    1    3    3    0    0  0.25418764896E+00  0.25742364910E+02  0.13557036019E+03  0.13799295824E+03  0.00000000000E+00 0. -1.
         13    1    3    3    0    0 -0.70301830106E+02  0.91649736573E+02  0.13601528994E+03  0.17844377441E+03  0.00000000000E+00 0.  1.
         -2    1    1    2    0  502 -0.55641293040E+02 -0.22720708927E+03  0.39297021447E+03  0.45732330398E+03  0.00000000000E+00 0.  1.
<scales pt_clust_5="13000.00000" pt_clust_6="13000.00000" pt_clust_7="13000.00000" pt_clust_8="13000.00000" pt_clust_9="13000.00000"></scales>
<clustering>
<clus scale="   78.257">  5  6 -1 -1</clus>
<clus scale="   87.669">  7  8 -1 -1</clus>
<clus scale="  162.399">  1  7  2 -1</clus>
<clus scale="  175.408">  5  9 -1 -1</clus>
<clus scale="  466.312">  2  5  1 -1</clus>
</clustering>
</event>
<event>
 9    2  0.6085395E-005  0.5318030E+03  0.7546771E-02  0.1043562E+00
         21   -1    0    0  501  502  0.00000000000E+00  0.00000000000E+00  0.23068821345E+03  0.23068821345E+03  0.00000000000E+00 0. -1.
          2   -1    0    0  502    0 -0.00000000000E+00 -0.00000000000E+00 -0.70570517927E+03  0.70570517927E+03  0.00000000000E+00 0. -1.
         23    2    1    2    0    0  0.39889097526E+02  0.13881018514E+03  0.60524413775E+02  0.18166234016E+03  0.92079278721E+02 0.  0.
         24    2    1    2    0    0  0.12780013585E+02 -0.47772362239E+02  0.84163602121E+02  0.12616428218E+03  0.79927384761E+02 0.  0.
        -13    1    4    4    0    0 -0.27368518375E+02  0.28351066449E+01  0.14289090690E+02  0.31004060064E+02  0.00000000000E+00 0.  1.
         14    1    4    4    0    0  0.40148531959E+02 -0.50607468884E+02  0.69874511431E+02  0.95160222115E+02  0.00000000000E+00 0. -1.
        -11    1    3    3    0    0  0.68893019337E+02  0.11247199144E+03  0.50409209038E+02  0.14119945229E+03  0.00000000000E+00 0. -1.
         11    1    3    3    0    0 -0.29003921811E+02  0.26338193703E+02  0.10115204737E+02  0.40462887871E+02  0.00000000000E+00 0.  1.
          1    1    1    2  501    0 -0.52669111110E+02 -0.91037822906E+02 -0.61970498172E+03  0.62856677038E+03  0.00000000000E+00 0. -1.
<scales pt_clust_5="13000.00000" pt_clust_6="13000.00000" pt_clust_7="13000.00000" pt_clust_8="13000.00000" pt_clust_9="13000.00000"></scales>
<clustering>
<clus scale="   79.927">  5  6 -1 -1</clus>
<clus scale="   92.079">  7  8 -1 -1</clus>
<clus scale="  105.176">  5  9 -1 -1</clus>
<clus scale="  171.283">  2  7  1 -1</clus>
<clus scale="  531.803">  1  5  2 -1</clus>
</clustering>
</event>
<event>
 9    2  0.6085395E-005  0.1221268E+03  0.7546771E-02  0.1253789E+00
         21   -1    0    0  501  502  0.00000000000E+00  0.00000000000E+00  0.21802123261E+03  0.21802123261E+03  0.00000000000E+00 0. -1.
         -3   -1    0    0    0  501 -0.00000000000E+00 -0.00000000000E+00 -0.83141014843E+02  0.83141014843E+02  0.00000000000E+00 0.  1.
         23    2    1    2    0    0 -0.16493251372E+02 -0.13392368956E+02 -0.29380133569E+02  0.96476096514E+02  0.89403926441E+02 0.  0.
         24    2    1    2    0    0  0.19044076015E+02 -0.21461302721E+02  0.12684787564E+03  0.15349065823E+03  0.81521373053E+02 0.  0.
        -11    1    4    4    0    0  0.44123152088E+02 -0.13038532108E+02  0.34720598367E+02  0.57640053962E+02  0.00000000000E+00 0.  1.
         12    1    4    4    0    0 -0.25079076073E+02 -0.84227706135E+01  0.92127277269E+02  0.95850604268E+02  0.00000000000E+00 0. -1.
        -11    1    3    3    0    0  0.30538475035E+02 -0.22893364144E+02 -0.29911663834E+02  0.48491362247E+02  0.00000000000E+00 0.  1.
         11    1    3    3    0    0 -0.47031726406E+02  0.95009951882E+01  0.53153026408E+00  0.47984734267E+02  0.00000000000E+00 0. -1.
         -4    1    1    2    0  502 -0.25508246433E+01  0.34853671677E+02  0.37412475700E+02  0.51195492710E+02  0.00000000000E+00 0.  1.
<scales pt_clust_5="13000.00000" pt_clust_6="13000.00000" pt_clust_7="13000.00000" pt_clust_8="13000.00000" pt_clust_9="13000.00000"></scales>
<clustering>
<clus scale="   81.521">  5  6 -1 -1</clus>
<clus scale="   34.947">  5  9 -1 -1</clus>
<clus scale="   89.404">  7  8 -1 -1</clus>
<clus scale="   91.894">  2  7  1 -1</clus>
<clus scale="  122.127">  1  5  2 -1</clus>
</clustering>
</event>
<event>
 9    2  0.6085395E-005  0.1613108E+03  0.7546771E-02  0.1205064E+00
         21   -1    0    0  501  502  0.00000000000E+00  0.00000000000E+00  0.13205899792E+03  0.13205899792E+03  0.00000000000E+00 0.  1.
          2   -1    0    0  502    0 -0.00000000000E+00 -0.00000000000E+00 -0.13869618102E+03  0.13869618102E+03  0.00000000000E+00 0. -1.
         23    2    1    2    0    0  0.34151968570E+00  0.62501715569E+02  0.17585769067E+01  0.10922606261E+03  0.89558132386E+02 0.  0.
         24    2    1    2    0    0  0.14075714738E+02  0.13644847563E+02 -0.14668180138E+02  0.83776309431E+02  0.80118705075E+02 0.  0.
        -13    1    4    4    0    0 -0.21121467834E+02  0.33216785846E+02  0.36518804932E+01  0.39532360119E+02  0.00000000000E+00 0.  1.
         14    1    4    4    0    0  0.35197182572E+02 -0.19571938284E+02 -0.18320060631E+02  0.44243949312E+02  0.00000000000E+00 0. -1.
        -13    1    3    3    0    0  0.41159166356E+02  0.47180528981E+02 -0.11496458134E+02  0.63657268553E+02  0.00000000000E+00 0.  1.
         13    1    3    3    0    0 -0.40817646671E+02  0.15321186589E+02  0.13255035040E+02  0.45568794060E+02  0.00000000000E+00 0. -1.
          1    1    1    2  501    0 -0.14417234424E+02 -0.76146563132E+02  0.62724201319E+01  0.77752806892E+02  0.00000000000E+00 0. -1.
<scales pt_clust_5="13000.00000" pt_clust_6="13000.00000" pt_clust_7="13000.00000" pt_clust_8="13000.00000" pt_clust_9="13000.00000"></scales>
<clustering>
<clus scale="   80.119">  5  6 -1 -1</clus>
<clus scale="   77.499">  5  9 -1 -1</clus>
<clus scale="   89.558">  7  8 -1 -1</clus>
<clus scale="  109.212">  2  7  1 -1</clus>
<clus scale="  161.311">  1  5  2 -1</clus>
</clustering>
</event>
<event>
 9    2  0.6085395E-005  0.2265427E+03  0.7546771E-02  0.1158749E+00
         21   -1    0    0  501  502  0.00000000000E+00  0.00000000000E+00  0.71688811867E+03  0.71688811867E+03  0.00000000000E+00 0. -1.
          2   -1    0    0  502    0 -0.00000000000E+00 -0.00000000000E+00 -0.73039072095E+02  0.73039072095E+02  0.00000000000E+00 0. -1.
         23    2    1    2    0    0 -0.24983961130E+02 -0.56441361573E+02  0.42806383378E+01  0.11142195929E+03  0.92664467506E+02 0.  0.
         24    2    1    2    0    0 -0.38099031125E+02  0.70791795265E+02  0.16836003083E+03  0.20287645417E+03  0.79691537984E+02 0.  0.
        -13    1    4    4    0    0  0.92470143246E+01  0.37181002920E+02  0.19285822922E+02  0.42893789968E+02  0.00000000000E+00 0.  1.
         14    1    4    4    0    0 -0.47346045449E+02  0.33610792345E+02  0.14907420791E+03  0.15998266420E+03  0.00000000000E+00 0. -1.
        -11    1    3    3    0    0  0.22415667337E+02  0.40665027524E+01 -0.20516246171E+02  0.30658032287E+02  0.00000000000E+00 0. -1.
         11    1    3    3    0    0 -0.47399628467E+02 -0.60507864325E+02  0.24796884509E+02  0.80763927005E+02  0.00000000000E+00 0.  1.
          1    1    1    2  501    0  0.63082992254E+02 -0.14350433693E+02  0.47120837740E+03  0.47562877730E+03  0.00000000000E+00 0. -1.
<scales pt_clust_5="13000.00000" pt_clust_6="13000.00000" pt_clust_7="13000.00000" pt_clust_8="13000.00000" pt_clust_9="13000.00000"></scales>
<clustering>
<clus scale="   79.692">  5  6 -1 -1</clus>
<clus scale="   64.695">  5  9 -1 -1</clus>
<clus scale="   92.664">  7  8 -1 -1</clus>
<clus scale="  111.340">  2  7  1 -1</clus>
<clus scale="  226.543">  1  5  2 -1</clus>
</clustering>
</event>
<event>
 9    2  0.7647387E-005  0.1302896E+04  0.7546771E-02  0.9556391E-01
         21   -1    0    0  501  502  0.00000000000E+00  0.00000000000E+00  0.69950412943E+03  0.69950412943E+03  0.00000000000E+00 0. -1.
          2   -1    0    0  502    0 -0.00000000000E+00 -0.00000000000E+00 -0.87511561463E+03  0.87511561463E+03  0.00000000000E+00 0. -1.
         23    2    1    2    0    0 -0.29272571013E+02  0.16260697777E+03  0.14002021265E+03  0.23403710133E+03  0.88711849338E+02 0.  0.
         24    2    1    2    0    0 -0.49127488779E+02  0.50838508544E+03  0.12780359450E+03  0.53249120189E+03  0.79650587373E+02 0.  0.
        -11    1    4    4    0    0  0.19904538668E+02  0.19004887823E+03  0.52394685700E+02  0.19814128764E+03  0.00000000000E+00 0.  1.
         12    1    4    4    0    0 -0.69032027446E+02  0.31833620721E+03  0.75408908796E+02  0.33434991425E+03  0.00000000000E+00 0. -1.
        -13    1    3    3    0    0 -0.54414050217E+02  0.12066130981E+03  0.12698493165E+03  0.18342631603E+03  0.00000000000E+00 0. -1.
         13    1    3    3    0    0  0.25141479204E+02  0.41945667967E+02  0.13035280996E+02  0.50610785297E+02  0.00000000000E+00 0.  1.
          1    1    1    2  501    0  0.78400059791E+02 -0.67099206321E+03 -0.44343529235E+03  0.80809144085E+03  0.00000000000E+00 0. -1.
<scales pt_clust_5="13000.00000" pt_clust_6="13000.00000" pt_clust_7="13000.00000" pt_clust_8="13000.00000" pt_clust_9="13000.00000"></scales>
<clustering>
<clus scale="   79.651">  5  6 -1 -1</clus>
<clus scale="   88.712">  7  8 -1 -1</clus>
<clus scale="  187.531">  2  7  1 -1</clus>
<clus scale="  550.999">  5  9 -1 -1</clus>
<clus scale=" 1302.896">  1  5  2 -1</clus>
</clustering>
</event>
<event>
 9    2  0.6085395E-005  0.3012633E+03  0.7546771E-02  0.1116186E+00
          2   -1    0    0  502    0 -0.00000000000E+00  0.00000000000E+00  0.10288570257E+04  0.10288570257E+04  0.00000000000E+00 0. -1.
         21   -1    0    0  501  502  0.00000000000E+00 -0.00000000000E+00 -0.46020236760E+02  0.46020236760E+02  0.00000000000E+00 0. -1.
         23    2    1    2    0    0 -0.88645757384E+02  0.41211999866E+02  0.33677019622E+03  0.36202270983E+03  0.89943193932E+02 0.  0.
         24    2    1    2    0    0  0.95638343128E+02  0.98825116986E+02  0.38524813372E+03  0.41673707779E+03  0.79627702758E+02 0.  0.
        -11    1    4    4    0    0  0.77547824095E+02  0.74787673764E+02  0.36476312222E+03  0.38034063220E+03  0.00000000000E+00 0.  1.
         12    1    4    4    0    0  0.18090519033E+02  0.24037443222E+02  0.20485011499E+02  0.36396445591E+02  0.00000000000E+00 0. -1.
        -11    1    3    3    0    0 -0.32519925160E+01  0.33836511066E+02  0.37020366994E+02  0.50259252968E+02  0.00000000000E+00 0.  1.
         11    1    3    3    0    0 -0.85393764868E+02  0.73754887992E+01  0.29974982922E+03  0.31176345686E+03  0.00000000000E+00 0. -1.
          1    1    1    2  501    0 -0.69925857445E+01 -0.14003711685E+03  0.26081845900E+03  0.29611747484E+03  0.00000000000E+00 0. -1.
<scales pt_clust_5="13000.00000" pt_clust_6="13000.00000" pt_clust_7="13000.00000" pt_clust_8="13000.00000" pt_clust_9="13000.00000"></scales>
<clustering>
<clus scale="   79.628">  5  6 -1 -1</clus>
<clus scale="   89.943">  7  8 -1 -1</clus>
<clus scale="  132.839">  1  7  2 -1</clus>
<clus scale="  130.545">  5  9 -1 -1</clus>
<clus scale="  301.263">  2  5  1 -1</clus>
</clustering>
</event>
<event>
 9    2  0.6297777E-005  0.1748100E+03  0.7546771E-02  0.1200659E+00
         -1   -1    0    0    0  501 -0.00000000000E+00  0.00000000000E+00  0.36824110327E+03  0.36824110327E+03  0.00000000000E+00 0.  1.
         21   -1    0    0  501  502  0.00000000000E+00 -0.00000000000E+00 -0.24212491701E+03  0.24212491701E+03  0.00000000000E+00 0.  1.
         23    2    1    2    0    0 -0.80534575388E+01 -0.29544027897E+02  0.32916720917E+03  0.34243272273E+03  0.89282754438E+02 0.  0.
         24    2    1    2    0    0  0.22954893414E+02 -0.13654713212E+02 -0.29916876984E+02  0.88870134087E+02  0.79306386121E+02 0.  0.
        -13    1    4    4    0    0  0.24779964824E+02 -0.22709036767E+02 -0.53702666931E+02  0.63353953650E+02  0.00000000000E+00 0.  1.
         14    1    4    4    0    0 -0.18250714100E+01  0.90543235553E+01  0.23785789946E+02  0.25516180437E+02  0.00000000000E+00 0. -1.
        -11    1    3    3    0    0  0.37268656389E+02 -0.31163600279E+02  0.15338901917E+03  0.16089845846E+03  0.00000000000E+00 0.  1.
         11    1    3    3    0    0 -0.45322113928E+02  0.16195723818E+01  0.17577819000E+03  0.18153426427E+03  0.00000000000E+00 0. -1.
         -2    1    1    2    0  502 -0.14901435876E+02  0.43198741109E+02 -0.17313414593E+03  0.17906316347E+03  0.00000000000E+00 0.  1.
<scales pt_clust_5="13000.00000" pt_clust_6="13000.00000" pt_clust_7="13000.00000" pt_clust_8="13000.00000" pt_clust_9="13000.00000"></scales>
<clustering>
<clus scale="   79.306">  5  6 -1 -1</clus>
<clus scale="   45.697">  5  9 -1 -1</clus>
<clus scale="   89.283">  7  8 -1 -1</clus>
<clus scale="   94.388">  1  7  2 -1</clus>
<clus scale="  174.810">  2  5  1 -1</clus>
</clustering>
</event>
<event>
 9    2  0.6085395E-005  0.1945061E+03  0.7546771E-02  0.1178827E+00
         21   -1    0    0  501  502  0.00000000000E+00  0.00000000000E+00  0.14146570276E+03  0.14146570276E+03  0.00000000000E+00 0. -1.
          2   -1    0    0  502    0 -0.00000000000E+00 -0.00000000000E+00 -0.16572237411E+03  0.16572237411E+03  0.00000000000E+00 0. -1.
         23    2    1    2    0    0 -0.60916002120E+02 -0.44889247027E+00 -0.18812481159E+02  0.11260576673E+03  0.92818039388E+02 0.  0.
         24    2    1    2    0    0 -0.12994783687E+02 -0.10681249282E+02  0.52338112750E+02  0.10010755770E+03  0.83661768891E+02 0.  0.
        -11    1    4    4    0    0 -0.43514556988E+02 -0.17386420434E+02  0.10729555146E+02  0.48072108744E+02  0.00000000000E+00 0.  1.
         12    1    4    4    0    0  0.30519773302E+02  0.67051711525E+01  0.41608557604E+02  0.52035448960E+02  0.00000000000E+00 0. -1.
        -13    1    3    3    0    0 -0.33483321834E+02 -0.39423935258E+02  0.15363601582E+02  0.53957573758E+02  0.00000000000E+00 0. -1.
         13    1    3    3    0    0 -0.27432680286E+02  0.38975042788E+02 -0.34176082740E+02  0.58648192977E+02  0.00000000000E+00 0.  1.
          1    1    1    2  501    0  0.73910785807E+02  0.11130141752E+02 -0.57782302936E+02  0.94474752429E+02  0.00000000000E+00 0. -1.
<scales pt_clust_5="13000.00000" pt_clust_6="13000.00000" pt_clust_7="13000.00000" pt_clust_8="13000.00000" pt_clust_9="13000.00000"></scales>
<clustering>
<clus scale="   83.662">  5  6 -1 -1</clus>
<clus scale="   74.744">  5  9 -1 -1</clus>
<clus scale="   92.818">  7  8 -1 -1</clus>
<clus scale="  111.023">  2  7  1 -1</clus>
<clus scale="  194.506">  1  5  2 -1</clus>
</clustering>
</event>
<event>
 9    2  0.6085395E-005  0.3526734E+03  0.7546771E-02  0.1108760E+00
         21   -1    0    0  501  502  0.00000000000E+00  0.00000000000E+00  0.18294969339E+03  0.18294969339E+03  0.00000000000E+00 0.  1.
         -1   -1    0    0    0  501 -0.00000000000E+00 -0.00000000000E+00 -0.28676449477E+03  0.28676449477E+03  0.00000000000E+00 0.  1.
         23    2    1    2    0    0  0.83223875856E+01 -0.45835050487E+02  0.65560387123E+01  0.10017361794E+03  0.88440138503E+02 0.  0.
         24    2    1    2    0    0  0.66210921760E+02  0.10310398406E+03  0.71340967940E+02  0.16495776027E+03  0.84304277928E+02 0.  0.
        -13    1    4    4    0    0  0.29834293812E+02  0.69585098132E+02  0.84814091426E+02  0.11369081350E+03  0.00000000000E+00 0.  1.
         14    1    4    4    0    0  0.36376627948E+02  0.33518885925E+02 -0.13473123487E+02  0.51266946769E+02  0.00000000000E+00 0. -1.
        -13    1    3    3    0    0  0.37612497945E+02 -0.53388451513E+02  0.18145281709E+02  0.67781103598E+02  0.00000000000E+00 0.  1.
         13    1    3    3    0    0 -0.29290110360E+02  0.75534010258E+01 -0.11589242996E+02  0.32392514338E+02  0.00000000000E+00 0. -1.
         -2    1    1    2    0  502 -0.74533309346E+02 -0.57268933569E+02 -0.18171180802E+03  0.20458280996E+03  0.00000000000E+00 0.  1.
<scales pt_clust_5="13000.00000" pt_clust_6="13000.00000" pt_clust_7="13000.00000" pt_clust_8="13000.00000" pt_clust_9="13000.00000"></scales>
<clustering>
<clus scale="   84.304">  5  6 -1 -1</clus>
<clus scale="   88.440">  7  8 -1 -1</clus>
<clus scale="   93.994">  5  9 -1 -1</clus>
<clus scale="   99.959">  2  7  1 -1</clus>
<clus scale="  352.673">  1  5  2 -1</clus>
</clustering>
</event>
<event>
 9    2  0.6085395E-005  0.3281542E+03  0.7546771E-02  0.1089356E+00
          2   -1    0    0  502    0 -0.00000000000E+00  0.00000000000E+00  0.50220074464E+03  0.50220074464E+03  0.00000000000E+00 0. -1.
         21   -1    0    0  501  502  0.00000000000E+00 -0.00000000000E+00 -0.14181055336E+03  0.14181055336E+03  0.00000000000E+00 0. -1.
         23    2    1    2    0    0 -0.17510419145E+03 -0.57149827572E+02  0.13267079646E+03  0.24458510727E+03  0.91064558477E+02 0.  0.
         24    2    1    2    0    0 -0.40161248608E+02  0.19806154836E+02  0.17344985685E+02  0.96125759478E+02  0.83271264237E+02 0.  0.
        -11    1    4    4    0    0  0.67559208877E+00  0.41841907833E+02 -0.89454074222E+01  0.42792779644E+02  0.00000000000E+00 0.  1.
         12    1    4    4    0    0 -0.40836840697E+02 -0.22035752996E+02  0.26290393107E+02  0.53332979834E+02  0.00000000000E+00 0. -1.
        -11    1    3    3    0    0 -0.46692358650E+02 -0.30913718875E+02 -0.28284591052E+01  0.56069907722E+02  0.00000000000E+00 0.  1.
         11    1    3    3    0    0 -0.12841183280E+03 -0.26236108697E+02  0.13549925556E+03  0.18851519955E+03  0.00000000000E+00 0. -1.
          1    1    1    2  501    0  0.21526544006E+03  0.37343672735E+02  0.21037440913E+03  0.30330043125E+03  0.00000000000E+00 0. -1.
<scales pt_clust_5="13000.00000" pt_clust_6="13000.00000" pt_clust_7="13000.00000" pt_clust_8="13000.00000" pt_clust_9="13000.00000"></scales>
<clustering>
<clus scale="   83.271">  5  6 -1 -1</clus>
<clus scale="   91.065">  7  8 -1 -1</clus>
<clus scale="  205.476">  1  7  2 -1</clus>
<clus scale="   72.464">  5  9 -1 -1</clus>
<clus scale="  328.154">  2  5  1 -1</clus>
</clustering>
</event>
<event>
 9    2  0.6085395E-005  0.2061455E+03  0.7546771E-02  0.1171870E+00
          2   -1    0    0  502    0 -0.00000000000E+00  0.00000000000E+00  0.19875714305E+03  0.19875714305E+03  0.00000000000E+00 0. -1.
         21   -1    0    0  501  502  0.00000000000E+00 -0.00000000000E+00 -0.12589813281E+03  0.12589813281E+03  0.00000000000E+00 0. -1.
         23    2    1    2    0    0  0.57192582685E+02 -0.70720689818E+01  0.12755954820E+02  0.10992672386E+03  0.92737072208E+02 0.  0.
         24    2    1    2    0    0  0.17605893432E+02  0.63195847834E+02 -0.14240658630E+01  0.10278983110E+03  0.79120406646E+02 0.  0.
        -13    1    4    4    0    0  0.30580876095E+02 -0.66879079626E+00  0.17094002942E+02  0.35040579339E+02  0.00000000000E+00 0.  1.
         14    1    4    4    0    0 -0.12974982662E+02  0.63864638630E+02 -0.18518068805E+02  0.67749251765E+02  0.00000000000E+00 0. -1.
        -13    1    3    3    0    0 -0.12745415988E+02  0.28014090553E+02  0.62995972099E+01  0.31415280091E+02  0.00000000000E+00 0.  1.
         13    1    3    3    0    0  0.69937998673E+02 -0.35086159535E+02  0.64563576103E+01  0.78511443770E+02  0.00000000000E+00 0. -1.
          1    1    1    2  501    0 -0.74798476117E+02 -0.56123778852E+02  0.61527121280E+02  0.11193872089E+03  0.00000000000E+00 0. -1.
<scales pt_clust_5="13000.00000" pt_clust_6="13000.00000" pt_clust_7="13000.00000" pt_clust_8="13000.00000" pt_clust_9="13000.00000"></scales>
<clustering>
<clus scale="   79.120">  5  6 -1 -1</clus>
<clus scale="   92.737">  7  8 -1 -1</clus>
<clus scale="   93.513">  5  9 -1 -1</clus>
<clus scale="  109.184">  1  7  2 -1</clus>
<clus scale="  206.146">  2  5  1 -1</clus>
</clustering>
</event>
<event>
 9    2  0.6085395E-005  0.2415170E+03  0.7546771E-02  0.1133833E+00
          2   -1    0    0  502    0 -0.00000000000E+00  0.00000000000E+00  0.82869963757E+03  0.82869963757E+03  0.00000000000E+00 0. -1.
         21   -1    0    0  501  502  0.00000000000E+00 -0.00000000000E+00 -0.50282351733E+02  0.50282351733E+02  0.00000000000E+00 0. -1.
         23    2    1    2    0    0 -0.14077894131E+03 -0.58549724460E+01  0.33299608444E+03  0.37229620498E+03  0.88685291748E+02 0.  0.
         24    2    1    2    0    0  0.59184526035E+01  0.23163554155E+02  0.76464503426E+02  0.11347339465E+03  0.80360516964E+02 0.  0.
        -13    1    4    4    0    0  0.16326200350E+02 -0.17091434568E+02 -0.29631844393E+01  0.23821049840E+02  0.00000000000E+00 0.  1.
         14    1    4    4    0    0 -0.10407747746E+02  0.40254988723E+02  0.79427687865E+02  0.89652344809E+02  0.00000000000E+00 0. -1.
        -13    1    3    3    0    0 -0.67771637927E+02  0.42338327038E+01  0.25940359559E+03  0.26814388983E+03  0.00000000000E+00 0.  1.
         13    1    3    3    0    0 -0.73007303382E+02 -0.10088805150E+02  0.73592488844E+02  0.10415231515E+03  0.00000000000E+00 0. -1.
          1    1    1    2  501    0  0.13486048871E+03 -0.17308581709E+02  0.36895669797E+03  0.39321238967E+03  0.00000000000E+00 0. -1.
<scales pt_clust_5="13000.00000" pt_clust_6="13000.00000" pt_clust_7="13000.00000" pt_clust_8="13000.00000" pt_clust_9="13000.00000"></scales>
<clustering>
<clus scale="   80.361">  5  6 -1 -1</clus>
<clus scale="   88.685">  7  8 -1 -1</clus>
<clus scale="  135.967">  5  9 -1 -1</clus>
<clus scale="  166.487">  1  7  2 -1</clus>
<clus scale="  241.517">  2  5  1 -1</clus>
</clustering>
</event>
<event>
 9    2  0.6085395E-005  0.3740906E+03  0.7546771E-02  0.1082976E+00
          2   -1    0    0  502    0 -0.00000000000E+00  0.00000000000E+00  0.42720450678E+02  0.42720450678E+02  0.00000000000E+00 0. -1.
         21   -1    0    0  501  502  0.00000000000E+00 -0.00000000000E+00 -0.16970197034E+04  0.16970197034E+04  0.00000000000E+00 0. -1.
         23    2    1    2    0    0 -0.45675287373E+02  0.12903692928E+03 -0.51474635534E+03  0.54035507458E+03  0.91011182253E+02 0.  0.
         24    2    1    2    0    0  0.15732936046E+03 -0.76374562032E+02 -0.97368313356E+03  0.99261773316E+03  0.81520047841E+02 0.  0.
        -11    1    4    4    0    0  0.89863330752E+02 -0.10633904328E+02 -0.33421724881E+03  0.34625087370E+03  0.00000000000E+00 0.  1.
         12    1    4    4    0    0  0.67466029706E+02 -0.65740657704E+02 -0.63946588475E+03  0.64636685945E+03  0.00000000000E+00 0. -1.
        -13    1    3    3    0    0  0.20854997983E+02  0.65234603817E+02 -0.16462823064E+03  0.17830574528E+03  0.00000000000E+00 0. -1.
         13    1    3    3    0    0 -0.66530285356E+02  0.63802325463E+02 -0.35011812470E+03  0.36204932931E+03  0.00000000000E+00 0.  1.
          1    1    1    2  501    0 -0.11165407309E+03 -0.52662367248E+02 -0.16586976378E+03  0.20676734630E+03  0.00000000000E+00 0. -1.
<scales pt_clust_5="13000.00000" pt_clust_6="13000.00000" pt_clust_7="13000.00000" pt_clust_8="13000.00000" pt_clust_9="13000.00000"></scales>
<clustering>
<clus scale="   81.520">  5  6 -1 -1</clus>
<clus scale="   91.011">  7  8 -1 -1</clus>
<clus scale="  123.450">  5  9 -1 -1</clus>
<clus scale="  164.377">  1  7  2 -1</clus>
<clus scale="  374.091">  2  5  1 -1</clus>
</clustering>
</event>
<event>
 9    2  0.6085395E-005  0.4125004E+03  0.7546771E-02  0.1065732E+00
         -1   -1    0    0    0  501 -0.00000000000E+00  0.00000000000E+00  0.40807661905E+03  0.40807661905E+03  0.00000000000E+00 0.  1.
         21   -1    0    0  501  502  0.00000000000E+00 -0.00000000000E+00 -0.32342888254E+03  0.32342888254E+03  0.00000000000E+00 0.  1.
         23    2    1    2    0    0  0.14981092373E+03  0.87517164318E+02  0.22251322961E+03  0.29657622385E+03  0.91338668064E+02 0.  0.
         24    2    1    2    0    0 -0.98704859746E+01 -0.17995331361E+03  0.28133387106E+02  0.19895598255E+03  0.79444156159E+02 0.  0.
        -11    1    4    4    0    0 -0.11941379628E+02 -0.17410742775E+03  0.45553127904E+01  0.17457589702E+03  0.00000000000E+00 0.  1.
         12    1    4    4    0    0  0.20708936537E+01 -0.58458858642E+01  0.23578074315E+02  0.24380085531E+02  0.00000000000E+00 0. -1.
        -13    1    3    3    0    0  0.62558663681E+02  0.44872879117E+02  0.16895975710E+03  0.18567326464E+03  0.00000000000E+00 0.  1.
         13    1    3    3    0    0  0.87252260052E+02  0.42644285201E+02  0.53553472505E+02  0.11090295921E+03  0.00000000000E+00 0. -1.
         -2    1    1    2    0  502 -0.13994043776E+03  0.92436149294E+02 -0.16599888020E+03  0.23597329520E+03  0.00000000000E+00 0.  1.
<scales pt_clust_5="13000.00000" pt_clust_6="13000.00000" pt_clust_7="13000.00000" pt_clust_8="13000.00000" pt_clust_9="13000.00000"></scales>
<clustering>
<clus scale="   79.444">  5  6 -1 -1</clus>
<clus scale="   91.339">  7  8 -1 -1</clus>
<clus scale="  167.713">  5  9 -1 -1</clus>
<clus scale="  196.075">  1  7  2 -1</clus>
<clus scale="  412.500">  2  5  1 -1</clus>
</clustering>
</event>
<event>
 9    2  0.6085395E-005  0.2948403E+03  0.7546771E-02  0.1120319E+00
          2   -1    0    0  502    0 -0.00000000000E+00  0.00000000000E+00  0.57110832901E+03  0.57110832901E+03  0.00000000000E+00 0. -1.
         21   -1    0    0  501  502  0.00000000000E+00 -0.00000000000E+00 -0.11119146319E+03  0.11119146319E+03  0.00000000000E+00 0. -1.
         23    2    1    2    0    0 -0.36740748269E+01 -0.94415178255E+02 -0.93528165852E+01  0.12809331423E+03  0.85980795888E+02 0.  0.
         24    2    1    2    0    0 -0.10492923533E+03 -0.15933585000E+02  0.15710722594E+03  0.20575715919E+03  0.79933125532E+02 0.  0.
        -13    1    4    4    0    0 -0.10823093408E+03 -0.23183747097E+02  0.16215171996E+03  0.19632779097E+03  0.00000000000E+00 0.  1.
         14    1    4    4    0    0  0.33016987442E+01  0.72501620963E+01 -0.50444940255E+01  0.94293682181E+01  0.00000000000E+00 0. -1.
        -13    1    3    3    0    0  0.13420196565E+02 -0.10509923686E+03 -0.15356869718E+02  0.10705972498E+03  0.00000000000E+00 0. -1.
         13    1    3    3    0    0 -0.17094271392E+02  0.10684058608E+02  0.60040531327E+01  0.21033589251E+02  0.00000000000E+00 0.  1.
          1    1    1    2  501    0  0.10860331016E+03  0.11034876326E+03  0.31216245647E+03  0.34844931878E+03  0.00000000000E+00 0. -1.
<scales pt_clust_5="13000.00000" pt_clust_6="13000.00000" pt_clust_7="13000.00000" pt_clust_8="13000.00000" pt_clust_9="13000.00000"></scales>
<clustering>
<clus scale="   79.933">  5  6 -1 -1</clus>
<clus scale="   85.981">  7  8 -1 -1</clus>
<clus scale="  127.751">  1  7  2 -1</clus>
<clus scale="  117.159">  5  9 -1 -1</clus>
<clus scale="  294.840">  2  5  1 -1</clus>
</clustering>
</event>
<event>
 9    2  0.6085395E-005  0.3326909E+03  0.7546771E-02  0.1074258E+00
         21   -1    0    0  501  502  0.00000000000E+00  0.00000000000E+00  0.31114813743E+03  0.31114813743E+03  0.00000000000E+00 0. -1.
          2   -1    0    0  502    0 -0.00000000000E+00 -0.00000000000E+00 -0.32004746698E+03  0.32004746698E+03  0.00000000000E+00 0. -1.
         23    2    1    2    0    0  0.61828726256E+02  0.27374606914E+03  0.24934158513E+02  0.29678874089E+03  0.93285275885E+02 0.  0.
         24    2    1    2    0    0 -0.44129952949E+01 -0.41902483793E+02 -0.26102995185E+02  0.95434533014E+02  0.81554221586E+02 0.  0.
        -13    1    4    4    0    0 -0.15990919149E+02 -0.21650422751E+02  0.26573757515E+02  0.37823470081E+02  0.00000000000E+00 0.  1.
         14    1    4    4    0    0  0.11577923854E+02 -0.20252061042E+02 -0.52676752700E+02  0.57611062933E+02  0.00000000000E+00 0. -1.
        -13    1    3    3    0    0  0.16153244047E+02  0.10136889061E+03  0.54198057919E+02  0.11607759801E+03  0.00000000000E+00 0.  1.
         13    1    3    3    0    0  0.45675482209E+02  0.17237717853E+03 -0.29263899406E+02  0.18071114288E+03  0.00000000000E+00 0. -1.
          1    1    1    2  501    0 -0.57415730962E+02 -0.23184358535E+03 -0.77304928761E+01  0.23897233051E+03  0.00000000000E+00 0. -1.
<scales pt_clust_5="13000.00000" pt_clust_6="13000.00000" pt_clust_7="13000.00000" pt_clust_8="13000.00000" pt_clust_9="13000.00000"></scales>
<clustering>
<clus scale="   81.554">  5  6 -1 -1</clus>
<clus scale="   93.285">  7  8 -1 -1</clus>
<clus scale="  238.847">  5  9 -1 -1</clus>
<clus scale="  295.740">  2  7  1 -1</clus>
<clus scale="  332.691">  1  5  2 -1</clus>
</clustering>
</event>
<event>
 9    2  0.6085395E-005  0.3835596E+03  0.7546771E-02  0.1076169E+00
          2   -1    0    0  502    0 -0.00000000000E+00  0.00000000000E+00  0.12882050511E+04  0.12882050511E+04  0.00000000000E+00 0. -1.
         21   -1    0    0  501  502  0.00000000000E+00 -0.00000000000E+00 -0.62495413357E+02  0.62495413357E+02  0.00000000000E+00 0. -1.
         23    2    1    2    0    0 -0.14416938743E+03 -0.71577390780E+02  0.36551639234E+03  0.40886693618E+03  0.87531727325E+02 0.  0.
         24    2    1    2    0    0 -0.74397533467E+02 -0.56615393351E+02  0.36964140540E+03  0.38970492320E+03  0.80590711819E+02 0.  0.
        -13    1    4    4    0    0 -0.37370704299E+02  0.16327207886E+02  0.14530990608E+03  0.15092420635E+03  0.00000000000E+00 0.  1.
         14    1    4    4    0    0 -0.37026829168E+02 -0.72942601238E+02  0.22433149932E+03  0.23878071685E+03  0.00000000000E+00 0. -1.
        -11    1    3    3    0    0 -0.23412497381E+02  0.35445726655E+01  0.14186966555E+03  0.14383223225E+03  0.00000000000E+00 0.  1.
         11    1    3    3    0    0 -0.12075689005E+03 -0.75121963445E+02  0.22364672679E+03  0.26503470394E+03  0.00000000000E+00 0. -1.
          1    1    1    2  501    0  0.21856692090E+03  0.12819278413E+03  0.49055184001E+03  0.55212860508E+03  0.00000000000E+00 0. -1.
<scales pt_clust_5="13000.00000" pt_clust_6="13000.00000" pt_clust_7="13000.00000" pt_clust_8="13000.00000" pt_clust_9="13000.00000"></scales>
<clustering>
<clus scale="   80.591">  5  6 -1 -1</clus>
<clus scale="   87.532">  7  8 -1 -1</clus>
<clus scale="  183.221">  1  7  2 -1</clus>
<clus scale="  160.609">  5  9 -1 -1</clus>
<clus scale="  383.560">  2  5  1 -1</clus>
</clustering>
</event>
<event>
 9    2  0.7861629E-005  0.1859423E+03  0.7546771E-02  0.1188335E+00
         21   -1    0    0  501  502  0.00000000000E+00  0.00000000000E+00  0.76386864039E+02  0.76386864039E+02  0.00000000000E+00 0.  1.
         -1   -1    0    0    0  501 -0.00000000000E+00 -0.00000000000E+00 -0.38701750973E+03  0.38701750973E+03  0.00000000000E+00 0.  1.
         23    2    1    2    0    0  0.29036168733E+02  0.36312523886E+02 -0.24591510316E+03  0.26652209937E+03  0.91641109799E+02 0.  0.
         24    2    1    2    0    0 -0.10575211018E+02  0.39814470541E+02 -0.72694081649E+02  0.11814357155E+03  0.83525126992E+02 0.  0.
        -11    1    4    4    0    0 -0.14877075591E+02  0.52142525761E+02 -0.11315360445E+02  0.55391405045E+02  0.00000000000E+00 0.  1.
         12    1    4    4    0    0  0.43018645730E+01 -0.12328055220E+02 -0.61378721204E+02  0.62752166504E+02  0.00000000000E+00 0. -1.
        -13    1    3    3    0    0 -0.19612406574E+02  0.14073180166E+02 -0.12749142091E+02  0.27299111994E+02  0.00000000000E+00 0. -1.
         13    1    3    3    0    0  0.48648575307E+02  0.22239343720E+02 -0.23316596107E+03  0.23922298737E+03  0.00000000000E+00 0.  1.
         -2    1    1    2    0  502 -0.18460957715E+02 -0.76126994427E+02  0.79785391165E+01  0.78738702851E+02  0.00000000000E+00 0.  1.
<scales pt_clust_5="13000.00000" pt_clust_6="13000.00000" pt_clust_7="13000.00000" pt_clust_8="13000.00000" pt_clust_9="13000.00000"></scales>
<clustering>
<clus scale="   83.525">  5  6 -1 -1</clus>
<clus scale="   78.333">  5  9 -1 -1</clus>
<clus scale="   91.641">  7  8 -1 -1</clus>
<clus scale="  102.761">  2  7  1 -1</clus>
<clus scale="  185.942">  1  5  2 -1</clus>
</clustering>
</event>
<event>
 9    2  0.6085395E-005  0.1972632E+03  0.7546771E-02  0.1166036E+00
         -1   -1    0    0    0  501 -0.00000000000E+00  0.00000000000E+00  0.68704955739E+03  0.68704955739E+03  0.00000000000E+00 0.  1.
         21   -1    0    0  501  502  0.00000000000E+00 -0.00000000000E+00 -0.50829055416E+02  0.50829055416E+02  0.00000000000E+00 0.  1.
         23    2    1    2    0    0 -0.10167567101E+03 -0.33654439167E+02  0.42789758247E+03  0.45097932729E+03  0.93890623670E+02 0.  0.
         24    2    1    2    0    0  0.89688109540E+02  0.78640675652E+02  0.15868628424E+03  0.21884593392E+03  0.92108051360E+02 0.  0.
        -13    1    4    4    0    0  0.70720102004E+02  0.86317811917E+02  0.79380911804E+02  0.13694315113E+03  0.00000000000E+00 0.  1.
         14    1    4    4    0    0  0.18968007537E+02 -0.76771362652E+01  0.79305372441E+02  0.81902782792E+02  0.00000000000E+00 0. -1.
        -11    1    3    3    0    0  0.18711313608E+01 -0.34493663416E+02  0.16173952595E+03  0.16538738829E+03  0.00000000000E+00 0. -1.
         11    1    3    3    0    0 -0.10354680237E+03  0.83922424916E+00  0.26615805651E+03  0.28559193901E+03  0.00000000000E+00 0.  1.
         -2    1    1    2    0  502  0.11987561468E+02 -0.44986236485E+02  0.49636635257E+02  0.68053351590E+02  0.00000000000E+00 0.  1.
<scales pt_clust_5="13000.00000" pt_clust_6="13000.00000" pt_clust_7="13000.00000" pt_clust_8="13000.00000" pt_clust_9="13000.00000"></scales>
<clustering>
<clus scale="   92.108">  5  6 -1 -1</clus>
<clus scale="   46.556">  5  9 -1 -1</clus>
<clus scale="   93.891">  7  8 -1 -1</clus>
<clus scale="  142.429">  1  7  2 -1</clus>
<clus scale="  197.263">  2  5  1 -1</clus>
</clustering>
</event>
<event>
 9    2  0.6085395E-005  0.1821719E+03  0.7546771E-02  0.1177689E+00
          2   -1    0    0  502    0 -0.00000000000E+00  0.00000000000E+00  0.12522575954E+04  0.12522575954E+04  0.00000000000E+00 0. -1.
         21   -1    0    0  501  502  0.00000000000E+00 -0.00000000000E+00 -0.32538103291E+02  0.32538103291E+02  0.00000000000E+00 0. -1.
         23    2    1    2    0    0 -0.10312790891E+03  0.22047673595E+02  0.16992095016E+03  0.21930820706E+03  0.90008304484E+02 0.  0.
         24    2    1    2    0    0  0.41733535773E+02  0.23332960139E+02  0.76705046768E+03  0.77261355206E+03  0.79241187690E+02 0.  0.
        -11    1    4    4    0    0  0.24145901899E+02 -0.15816557049E+02  0.97349037577E+02  0.10153828427E+03  0.00000000000E+00 0.  1.
         12    1    4    4    0    0  0.17587633875E+02  0.39149517188E+02  0.66970143010E+03  0.67107526779E+03  0.00000000000E+00 0. -1.
        -13    1    3    3    0    0 -0.77354535486E+02  0.23981478387E+02  0.46868604020E+02  0.93570836849E+02  0.00000000000E+00 0. -1.
         13    1    3    3    0    0 -0.25773373423E+02 -0.19338047916E+01  0.12305234614E+03  0.12573737021E+03  0.00000000000E+00 0.  1.
          1    1    1    2  501    0  0.61394373136E+02 -0.45380633735E+02  0.28274807425E+03  0.29287393954E+03  0.00000000000E+00 0. -1.
<scales pt_clust_5="13000.00000" pt_clust_6="13000.00000" pt_clust_7="13000.00000" pt_clust_8="13000.00000" pt_clust_9="13000.00000"></scales>
<clustering>
<clus scale="   79.241">  5  6 -1 -1</clus>
<clus scale="   76.346">  5  9 -1 -1</clus>
<clus scale="   90.008">  7  8 -1 -1</clus>
<clus scale="  138.647">  1  7  2 -1</clus>
<clus scale="  182.172">  2  5  1 -1</clus>
</clustering>
</event>
<event>
 9    2  0.6085395E-005  0.5703072E+03  0.7546771E-02  0.1025388E+00
         21   -1    0    0  501  502  0.00000000000E+00  0.00000000000E+00  0.42353371165E+03  0.42353371165E+03  0.00000000000E+00 0.  1.
         -3   -1    0    0    0  501 -0.00000000000E+00 -0.00000000000E+00 -0.38473585895E+03  0.38473585895E+03  0.00000000000E+00 0.  1.
         23    2    1    2    0    0 -0.11988476007E+02  0.21862730424E+03  0.10925726298E+02  0.23728170254E+03  0.90783330791E+02 0.  0.
         24    2    1    2    0    0  0.12263353065E+03  0.53070737078E+00 -0.19191619224E+03  0.24147388174E+03  0.80240552252E+02 0.  0.
        -11    1    4    4    0    0  0.94026363499E+02  0.13570055713E+02 -0.18687124606E+03  0.20963293169E+03  0.00000000000E+00 0.  1.
         12    1    4    4    0    0  0.28607167156E+02 -0.13039348342E+02 -0.50449461794E+01  0.31840950046E+02  0.00000000000E+00 0. -1.
        -11    1    3    3    0    0  0.17155976286E+02  0.10313809243E+03  0.44347699145E+02  0.11357161640E+03  0.00000000000E+00 0.  1.
         11    1    3    3    0    0 -0.29144452293E+02  0.11548921181E+03 -0.33421972847E+02  0.12371008614E+03  0.00000000000E+00 0. -1.
         -4    1    1    2    0  502 -0.11064505465E+03 -0.21915801161E+03  0.21978831864E+03  0.32951398632E+03  0.00000000000E+00 0.  1.
<scales pt_clust_5="13000.00000" pt_clust_6="13000.00000" pt_clust_7="13000.00000" pt_clust_8="13000.00000" pt_clust_9="13000.00000"></scales>
<clustering>
<clus scale="   80.241">  5  6 -1 -1</clus>
<clus scale="   90.783">  7  8 -1 -1</clus>
<clus scale="  237.030">  2  7  1 -1</clus>
<clus scale="  208.339">  5  9 -1 -1</clus>
<clus scale="  570.307">  1  5  2 -1</clus>
</clustering>
</event>
<event>
 9    2  0.6085395E-005  0.3165287E+03  0.7546771E-02  0.1092295E+00
          2   -1    0    0  502    0 -0.00000000000E+00  0.00000000000E+00  0.82398828738E+03  0.82398828738E+03  0.00000000000E+00 0. -1.
         21   -1    0    0  501  502  0.00000000000E+00 -0.00000000000E+00 -0.39107590301E+03  0.39107590301E+03  0.00000000000E+00 0. -1.
         23    2    1    2    0    0 -0.49670913715E+02  0.18535698420E+03  0.74260181141E+03  0.77223471852E+03  0.89803111979E+02 0.  0.
         24    2    1    2    0    0  0.95873110556E+01  0.35172496150E+02 -0.57124557210E+02  0.10514772766E+03  0.80397814504E+02 0.  0.
        -13    1    4    4    0    0 -0.23523305379E+02 -0.10505857850E+02 -0.13235000480E+01  0.25796716796E+02  0.00000000000E+00 0.  1.
         14    1    4    4    0    0  0.33110616434E+02  0.45678354000E+02 -0.55801057162E+02  0.79351010864E+02  0.00000000000E+00 0. -1.
        -13    1    3    3    0    0  0.22395066170E+02  0.87562735934E+02  0.32046078295E+03  0.33296228784E+03  0.00000000000E+00 0.  1.
         13    1    3    3    0    0 -0.72065979885E+02  0.97794248268E+02  0.42214102845E+03  0.43927243068E+03  0.00000000000E+00 0. -1.
          1    1    1    2  501    0  0.40083602659E+02 -0.22052948035E+03 -0.25256486983E+03  0.33768174422E+03  0.00000000000E+00 0. -1.
<scales pt_clust_5="13000.00000" pt_clust_6="13000.00000" pt_clust_7="13000.00000" pt_clust_8="13000.00000" pt_clust_9="13000.00000"></scales>
<clustering>
<clus scale="   80.398">  5  6 -1 -1</clus>
<clus scale="   89.803">  7  8 -1 -1</clus>
<clus scale="  211.870">  1  7  2 -1</clus>
<clus scale="  102.370">  5  9 -1 -1</clus>
<clus scale="  316.529">  2  5  1 -1</clus>
</clustering>
</event>
<event>
 9    2  0.6085395E-005  0.1381469E+03  0.7546771E-02  0.1223007E+00
         21   -1    0    0  501  502  0.00000000000E+00  0.00000000000E+00  0.12647867035E+03  0.12647867035E+03  0.00000000000E+00 0.  1.
         -3   -1    0    0    0  501 -0.00000000000E+00 -0.00000000000E+00 -0.13966667108E+03  0.13966667108E+03  0.00000000000E+00 0.  1.
         23    2    1    2    0    0  0.73758710495E+02 -0.64411989350E+01 -0.40059079417E+02  0.12540936460E+03  0.92956669848E+02 0.  0.
         24    2    1    2    0    0 -0.61800288884E+02 -0.24825668078E+02  0.23387263875E+02  0.10707950960E+03  0.80519983625E+02 0.  0.
        -11    1    4    4    0    0 -0.14026097140E+02 -0.45138424995E+02  0.28039315317E+02  0.54958275223E+02  0.00000000000E+00 0.  1.
         12    1    4    4    0    0 -0.47774191744E+02  0.20312756917E+02 -0.46520514417E+01  0.52121234377E+02  0.00000000000E+00 0. -1.
        -11    1    3    3    0    0  0.15794627975E+02 -0.22913944203E+02  0.24513788992E+02  0.37086991824E+02  0.00000000000E+00 0. -1.
         11    1    3    3    0    0  0.57964082521E+02  0.16472745268E+02 -0.64572868409E+02  0.88322372781E+02  0.00000000000E+00 0.  1.
         -4    1    1    2    0  502 -0.11958421611E+02  0.31266867013E+02  0.34838148135E+01  0.33656467223E+02  0.00000000000E+00 0.  1.
<scales pt_clust_5="13000.00000" pt_clust_6="13000.00000" pt_clust_7="13000.00000" pt_clust_8="13000.00000" pt_clust_9="13000.00000"></scales>
<clustering>
<clus scale="   80.520">  5  6 -1 -1</clus>
<clus scale="   33.476">  5  9 -1 -1</clus>
<clus scale="   92.957">  7  8 -1 -1</clus>
<clus scale="  118.839">  2  7  1 -1</clus>
<clus scale="  138.147">  1  5  2 -1</clus>
</clustering>
</event>
<event>
 9    2  0.6085395E-005  0.4576875E+03  0.7546771E-02  0.1043177E+00
         21   -1    0    0  501  502  0.00000000000E+00  0.00000000000E+00  0.41093401384E+03  0.41093401384E+03  0.00000000000E+00 0. -1.
          2   -1    0    0  502    0 -0.00000000000E+00 -0.00000000000E+00 -0.34902115228E+03  0.34902115228E+03  0.00000000000E+00 0. -1.
         23    2    1    2    0    0  0.25224687365E+03 -0.42512300111E+02  0.12292549320E+03  0.29821889087E+03  0.91586293006E+02 0.  0.
         24    2    1    2    0    0  0.41896675895E+02 -0.69383362244E+02  0.55359592735E+02  0.12620153547E+03  0.79326922545E+02 0.  0.
        -13    1    4    4    0    0  0.27635721870E+02 -0.14666691258E+02 -0.16011774254E+02  0.35145723360E+02  0.00000000000E+00 0.  1.
         14    1    4    4    0    0  0.14260954024E+02 -0.54716670985E+02  0.71371366989E+02  0.91055812111E+02  0.00000000000E+00 0. -1.
        -13    1    3    3    0    0  0.23716659375E+03 -0.61070467034E+02  0.98303998180E+02  0.26389632660E+03  0.00000000000E+00 0. -1.
         13    1    3    3    0    0  0.15080279908E+02  0.18558166923E+02  0.24621495016E+02  0.34322564276E+02  0.00000000000E+00 0.  1.
          1    1    1    2  501    0 -0.29414354955E+03  0.11189566235E+03 -0.11637222437E+03  0.33553473978E+03  0.00000000000E+00 0. -1.
<scales pt_clust_5="13000.00000" pt_clust_6="13000.00000" pt_clust_7="13000.00000" pt_clust_8="13000.00000" pt_clust_9="13000.00000"></scales>
<clustering>
<clus scale="   79.327">  5  6 -1 -1</clus>
<clus scale="   91.586">  7  8 -1 -1</clus>
<clus scale="  271.706">  2  7  1 -1</clus>
<clus scale="  106.934">  5  9 -1 -1</clus>
<clus scale="  457.687">  1  5  2 -1</clus>
</clustering>
</event>
<event>
 9    2  0.6085395E-005  0.1916422E+03  0.7546771E-02  0.1185132E+00
          2   -1    0    0  502    0 -0.00000000000E+00  0.00000000000E+00  0.16621047249E+04  0.16621047249E+04  0.00000000000E+00 0. -1.
         21   -1    0    0  501  502  0.00000000000E+00 -0.00000000000E+00 -0.14245924615E+02  0.14245924615E+02  0.00000000000E+00 0. -1.
         23    2    1    2    0    0 -0.22701065210E+01  0.44059880262E+02  0.34322114652E+03  0.35771266158E+03  0.90615486585E+02 0.  0.
         24    2    1    2    0    0 -0.25841859995E+02  0.45897098662E+02  0.59519319208E+03  0.60296069687E+03  0.80822773266E+02 0.  0.
        -11    1    4    4    0    0  0.14666312513E+02  0.51237707084E+02  0.26991225048E+03  0.27512365639E+03  0.00000000000E+00 0.  1.
         12    1    4    4    0    0 -0.40508172508E+02 -0.53406084219E+01  0.32528094160E+03  0.32783704047E+03  0.00000000000E+00 0. -1.
        -11    1    3    3    0    0 -0.20000391603E+02  0.65894702434E+02  0.19389274078E+03  0.20575840785E+03  0.00000000000E+00 0. -1.
         11    1    3    3    0    0  0.17730285082E+02 -0.21834822172E+02  0.14932840574E+03  0.15195425374E+03  0.00000000000E+00 0.  1.
          1    1    1    2  501    0  0.28111966516E+02 -0.89956978925E+02  0.70944446164E+03  0.71567729101E+03  0.00000000000E+00 0. -1.
<scales pt_clust_5="13000.00000" pt_clust_6="13000.00000" pt_clust_7="13000.00000" pt_clust_8="13000.00000" pt_clust_9="13000.00000"></scales>
<clustering>
<clus scale="   80.823">  5  6 -1 -1</clus>
<clus scale="   90.615">  7  8 -1 -1</clus>
<clus scale="   94.247">  5  9 -1 -1</clus>
<clus scale="  100.785">  1  7  2 -1</clus>
<clus scale="  191.642">  2  5  1 -1</clus>
</clustering>
</event>
<event>
 9    2  0.6085395E-005  0.1197076E+03  0.7546771E-02  0.1254135E+00
         21   -1    0    0  501  502  0.00000000000E+00  0.00000000000E+00  0.44188036505E+02  0.44188036505E+02  0.00000000000E+00 0.  1.
          2   -1    0    0  502    0 -0.00000000000E+00 -0.00000000000E+00 -0.48859628420E+03  0.48859628420E+03  0.00000000000E+00 0. -1.
         23    2    1    2    0    0  0.31322291079E+02  0.34680047982E+01 -0.38897350631E+03  0.40086420493E+03  0.91643926189E+02 0.  0.
         24    2    1    2    0    0  0.14191335243E+01  0.18434576574E+02 -0.39405956266E+02  0.89391937959E+02  0.78078432549E+02 0.  0.
        -11    1    4    4    0    0 -0.21691887920E+02 -0.19292259361E+02 -0.34175778672E+02  0.44840975910E+02  0.00000000000E+00 0.  1.
         12    1    4    4    0    0  0.23111021444E+02  0.37726835934E+02 -0.52301775945E+01  0.44550962049E+02  0.00000000000E+00 0. -1.
        -13    1    3    3    0    0  0.34560669101E+01 -0.38177722095E+02 -0.91588734014E+02  0.99287355999E+02  0.00000000000E+00 0. -1.
         13    1    3    3    0    0  0.27866224169E+02  0.41645726894E+02 -0.29738477230E+03  0.30157684894E+03  0.00000000000E+00 0.  1.
          1    1    1    2  501    0 -0.32741424603E+02 -0.21902581372E+02 -0.16028785115E+02  0.42528177813E+02  0.00000000000E+00 0. -1.
<scales pt_clust_5="13000.00000" pt_clust_6="13000.00000" pt_clust_7="13000.00000" pt_clust_8="13000.00000" pt_clust_9="13000.00000"></scales>
<clustering>
<clus scale="   78.078">  5  6 -1 -1</clus>
<clus scale="   39.392">  5  9 -1 -1</clus>
<clus scale="   91.644">  7  8 -1 -1</clus>
<clus scale="   96.911">  2  7  1 -1</clus>
<clus scale="  119.708">  1  5  2 -1</clus>
</clustering>
</event>
<event>
 9    2  0.6085395E-005  0.3730920E+03  0.7546771E-02  0.1096167E+00
         21   -1    0    0  501  502  0.00000000000E+00  0.00000000000E+00  0.20213580282E+03  0.20213580282E+03  0.00000000000E+00 0. -1.
         -1   -1    0    0    0  501 -0.00000000000E+00 -0.00000000000E+00 -0.33061995278E+03  0.33061995278E+03  0.00000000000E+00 0.  1.
         23    2    1    2    0    0 -0.54214694952E+02  0.49688384618E+02  0.39788369828E+02  0.12347191694E+03  0.90851698851E+02 0.  0.
         24    2    1    2    0    0 -0.21729885211E+02  0.12524255937E+03 -0.15803540662E+03  0.21830422481E+03  0.80769166365E+02 0.  0.
        -13    1    4    4    0    0 -0.45758885920E+02  0.11128954222E+03 -0.11118276496E+03  0.16383175843E+03  0.00000000000E+00 0.  1.
         14    1    4    4    0    0  0.24029000708E+02  0.13953017157E+02 -0.46852641655E+02  0.54472466374E+02  0.00000000000E+00 0. -1.
        -11    1    3    3    0    0  0.16386587244E+02  0.23523334565E+02 -0.13039127585E+02  0.31494227388E+02  0.00000000000E+00 0.  1.
         11    1    3    3    0    0 -0.70601282196E+02  0.26165050053E+02  0.52827497413E+02  0.91977689550E+02  0.00000000000E+00 0. -1.
         -2    1    1    2    0  502  0.75944580164E+02 -0.17493094399E+03 -0.10237113179E+02  0.19097961385E+03  0.00000000000E+00 0.  1.
<scales pt_clust_5="13000.00000" pt_clust_6="13000.00000" pt_clust_7="13000.00000" pt_clust_8="13000.00000" pt_clust_9="13000.00000"></scales>
<clustering>
<clus scale="   80.769">  5  6 -1 -1</clus>
<clus scale="   90.852">  7  8 -1 -1</clus>
<clus scale="  116.885">  2  7  1 -1</clus>
<clus scale="  167.629">  5  9 -1 -1</clus>
<clus scale="  373.092">  1  5  2 -1</clus>
</clustering>
</event>
<event>
 9    2  0.6085395E-005  0.1693725E+03  0.7546771E-02  0.1202659E+00
         -1   -1    0    0    0  501 -0.00000000000E+00  0.00000000000E+00  0.65971316583E+02  0.65971316583E+02  0.00000000000E+00 0.  1.
         21   -1    0    0  501  502  0.00000000000E+00 -0.00000000000E+00 -0.28900760662E+03  0.28900760662E+03  0.00000000000E+00 0.  1.
         23    2    1    2    0    0 -0.42850081199E+02  0.47307157736E+01 -0.44489487159E+02  0.10887727646E+03  0.89534561659E+02 0.  0.
         24    2    1    2    0    0  0.58625486980E+02 -0.51359196702E+02 -0.15271267490E+03  0.19050955351E+03  0.83054284030E+02 0.  0.
        -11    1    4    4    0    0  0.63617470887E+02 -0.46575345611E+02 -0.16126781290E+03  0.17950975711E+03  0.00000000000E+00 0.  1.
         12    1    4    4    0    0 -0.49919839065E+01 -0.47838510906E+01  0.85551380036E+01  0.10999796400E+02  0.00000000000E+00 0. -1.
        -13    1    3    3    0    0 -0.27401235823E+02  0.46980249018E+02 -0.24422147478E+02  0.59618896416E+02  0.00000000000E+00 0. -1.
         13    1    3    3    0    0 -0.15448845376E+02 -0.42249533244E+02 -0.20067339681E+02  0.49258380045E+02  0.00000000000E+00 0.  1.
         -2    1    1    2    0  502 -0.15775405782E+02  0.46628480929E+02 -0.25834127984E+02  0.55592093233E+02  0.00000000000E+00 0.  1.
<scales pt_clust_5="13000.00000" pt_clust_6="13000.00000" pt_clust_7="13000.00000" pt_clust_8="13000.00000" pt_clust_9="13000.00000"></scales>
<clustering>
<clus scale="   83.054">  5  6 -1 -1</clus>
<clus scale="   49.225">  5  9 -1 -1</clus>
<clus scale="   89.535">  7  8 -1 -1</clus>
<clus scale="   99.373">  1  7  2 -1</clus>
<clus scale="  169.373">  2  5  1 -1</clus>
</clustering>
</event>
<event>
 9    2  0.6085395E-005  0.2930976E+03  0.7546771E-02  0.1126005E+00
         21   -1    0    0  501  502  0.00000000000E+00  0.00000000000E+00  0.28627485920E+03  0.28627485920E+03  0.00000000000E+00 0.  1.
         -1   -1    0    0    0  501 -0.00000000000E+00 -0.00000000000E+00 -0.14843412124E+03  0.14843412124E+03  0.00000000000E+00 0.  1.
         23    2    1    2    0    0  0.24447893867E+02 -0.61721526243E+02  0.52635926370E+01  0.11302138733E+03  0.91317480643E+02 0.  0.
         24    2    1    2    0    0  0.26594316455E+02 -0.90211800723E+02  0.21290653338E+02  0.12656269368E+03  0.81971927240E+02 0.  0.
        -13    1    4    4    0    0  0.19753336239E+02 -0.30936015100E+02  0.48631110380E+02  0.60927959260E+02  0.00000000000E+00 0.  1.
         14    1    4    4    0    0  0.68409802166E+01 -0.59275785623E+02 -0.27340457042E+02  0.65634734423E+02  0.00000000000E+00 0. -1.
        -11    1    3    3    0    0  0.53645541972E+02 -0.15933410346E+02  0.14798803135E+02  0.57885424011E+02  0.00000000000E+00 0. -1.
         11    1    3    3    0    0 -0.29197648105E+02 -0.45788115897E+02 -0.95352104981E+01  0.55135963322E+02  0.00000000000E+00 0.  1.
         -2    1    1    2    0  502 -0.51042210323E+02  0.15193332697E+03  0.11128649199E+03  0.19512489943E+03  0.00000000000E+00 0.  1.
<scales pt_clust_5="13000.00000" pt_clust_6="13000.00000" pt_clust_7="13000.00000" pt_clust_8="13000.00000" pt_clust_9="13000.00000"></scales>
<clustering>
<clus scale="   81.972">  5  6 -1 -1</clus>
<clus scale="   91.317">  7  8 -1 -1</clus>
<clus scale="  112.899">  2  7  1 -1</clus>
<clus scale="  130.897">  5  9 -1 -1</clus>
<clus scale="  293.098">  1  5  2 -1</clus>
</clustering>
</event>
<event>
 9    2  0.6085395E-005  0.2242006E+03  0.7546771E-02  0.1156674E+00
         21   -1    0    0  501  502  0.00000000000E+00  0.00000000000E+00  0.20564257143E+03  0.20564257143E+03  0.00000000000E+00 0. -1.
          2   -1    0    0  502    0 -0.00000000000E+00 -0.00000000000E+00 -0.22953571289E+03  0.22953571289E+03  0.00000000000E+00 0. -1.
         23    2    1    2    0    0 -0.62727920401E+02  0.44419354135E+02 -0.13829514112E+03  0.18347665116E+03  0.92899216603E+02 0.  0.
         24    2    1    2    0    0  0.24168042319E+02 -0.19042646835E+02 -0.37578653426E+02  0.92865364055E+02  0.79152409816E+02 0.  0.
        -13    1    4    4    0    0  0.50419885130E+02 -0.21189057043E+02 -0.37872664553E+02  0.66524278840E+02  0.00000000000E+00 0.  1.
         14    1    4    4    0    0 -0.26251842811E+02  0.21464102077E+01  0.29401112680E+00  0.26341085215E+02  0.00000000000E+00 0. -1.
        -13    1    3    3    0    0 -0.43429122828E+02  0.11879411912E+02 -0.13850941627E+03  0.14564363197E+03  0.00000000000E+00 0. -1.
         13    1    3    3    0    0 -0.19298797573E+02  0.32539942223E+02  0.21427515253E+00  0.37833019196E+02  0.00000000000E+00 0.  1.
          1    1    1    2  501    0  0.38559878082E+02 -0.25376707300E+02  0.15198065308E+03  0.15883626910E+03  0.00000000000E+00 0. -1.
<scales pt_clust_5="13000.00000" pt_clust_6="13000.00000" pt_clust_7="13000.00000" pt_clust_8="13000.00000" pt_clust_9="13000.00000"></scales>
<clustering>
<clus scale="   79.152">  5  6 -1 -1</clus>
<clus scale="   46.161">  5  9 -1 -1</clus>
<clus scale="   92.899">  7  8 -1 -1</clus>
<clus scale="  120.574">  2  7  1 -1</clus>
<clus scale="  224.201">  1  5  2 -1</clus>
</clustering>
</event>
<event>
 9    2  0.6085395E-005  0.5196795E+03  0.7546771E-02  0.1034912E+00
          4   -1    0    0  502    0 -0.00000000000E+00  0.00000000000E+00  0.11921246501E+03  0.11921246501E+03  0.00000000000E+00 0. -1.
         21   -1    0    0  501  502  0.00000000000E+00 -0.00000000000E+00 -0.12013602868E+04  0.12013602868E+04  0.00000000000E+00 0. -1.
         23    2    1    2    0    0 -0.21784762073E+03  0.45554847012E+01 -0.30679220078E+03  0.38716869363E+03  0.91103263221E+02 0.  0.
         24    2    1    2    0    0 -0.48555236674E+02  0.15371229057E+03 -0.14987663638E+03  0.23537602770E+03  0.83389381854E+02 0.  0.
        -11    1    4    4    0    0 -0.34937796668E+02  0.26511870278E+02 -0.84312483377E+01  0.44661111162E+02  0.00000000000E+00 0.  1.
         12    1    4    4    0    0 -0.13617440006E+02  0.12720042029E+03 -0.14144538804E+03  0.19071491654E+03  0.00000000000E+00 0. -1.
        -11    1    3    3    0    0 -0.78109433281E+02 -0.34194503108E+02 -0.73972322900E+02  0.11288158471E+03  0.00000000000E+00 0.  1.
         11    1    3    3    0    0 -0.13973818745E+03  0.38749987809E+02 -0.23281987788E+03  0.27428710892E+03  0.00000000000E+00 0. -1.
          3    1    1    2  501    0  0.26640285740E+03 -0.15826777527E+03 -0.62547898461E+03  0.69802803046E+03  0.00000000000E+00 0. -1.
<scales pt_clust_5="13000.00000" pt_clust_6="13000.00000" pt_clust_7="13000.00000" pt_clust_8="13000.00000" pt_clust_9="13000.00000"></scales>
<clustering>
<clus scale="   83.389">  5  6 -1 -1</clus>
<clus scale="   91.103">  7  8 -1 -1</clus>
<clus scale="  236.174">  1  7  2 -1</clus>
<clus scale="  228.214">  5  9 -1 -1</clus>
<clus scale="  519.680">  2  5  1 -1</clus>
</clustering>
</event>
<event>
 9    2  0.6085395E-005  0.1260014E+03  0.7546771E-02  0.1247525E+00
         21   -1    0    0  501  502  0.00000000000E+00  0.00000000000E+00  0.12364819472E+03  0.12364819472E+03  0.00000000000E+00 0. -1.
          4   -1    0    0  502    0 -0.00000000000E+00 -0.00000000000E+00 -0.98612431975E+02  0.98612431975E+02  0.00000000000E+00 0. -1.
         23    2    1    2    0    0 -0.24386714183E+02  0.79224176922E+01  0.90053921214E+01  0.95243589517E+02  0.91283994906E+02 0.  0.
         24    2    1    2    0    0  0.87556267665E+01  0.22415839634E+02 -0.13246980793E+02  0.82051449699E+02  0.77316408550E+02 0.  0.
        -13    1    4    4    0    0  0.23223295336E+02  0.36493248917E+01  0.26719181087E+02  0.35588673148E+02  0.00000000000E+00 0.  1.
         14    1    4    4    0    0 -0.14467668569E+02  0.18766514742E+02 -0.39966161881E+02  0.46462776552E+02  0.00000000000E+00 0. -1.
        -13    1    3    3    0    0  0.25567216927E+02  0.24031440213E+02 -0.14203568923E+02  0.37854115632E+02  0.00000000000E+00 0.  1.
         13    1    3    3    0    0 -0.49953931111E+02 -0.16109022520E+02  0.23208961045E+02  0.57389473885E+02  0.00000000000E+00 0. -1.
          3    1    1    2  501    0  0.15631087417E+02 -0.30338257326E+02  0.29277351421E+02  0.44965587483E+02  0.00000000000E+00 0. -1.
<scales pt_clust_5="13000.00000" pt_clust_6="13000.00000" pt_clust_7="13000.00000" pt_clust_8="13000.00000" pt_clust_9="13000.00000"></scales>
<clustering>
<clus scale="   77.316">  5  6 -1 -1</clus>
<clus scale="   34.128">  5  9 -1 -1</clus>
<clus scale="   91.284">  7  8 -1 -1</clus>
<clus scale="   94.817">  2  7  1 -1</clus>
<clus scale="  126.001">  1  5  2 -1</clus>
</clustering>
</event>
<event>
 9    2  0.6085395E-005  0.1521222E+03  0.7546771E-02  0.1218064E+00
         21   -1    0    0  501  502  0.00000000000E+00  0.00000000000E+00  0.12176334026E+03  0.12176334026E+03  0.00000000000E+00 0.  1.
         -3   -1    0    0    0  501 -0.00000000000E+00 -0.00000000000E+00 -0.12928529842E+03  0.12928529842E+03  0.00000000000E+00 0.  1.
         23    2    1    2    0    0  0.90531595655E+01  0.33873224102E+02  0.23772972101E+00  0.98728688512E+02  0.92292699661E+02 0.  0.
         24    2    1    2    0    0 -0.55756293024E+02 -0.24762080590E+02 -0.20569724283E+02  0.10304224077E+03  0.80452874279E+02 0.  0.
        -13    1    4    4    0    0 -0.57277090056E+02  0.16401585115E+02 -0.89883663460E+01  0.60253363135E+02  0.00000000000E+00 0.  1.
         14    1    4    4    0    0  0.15207970323E+01 -0.41163665705E+02 -0.11581357937E+02  0.42788877639E+02  0.00000000000E+00 0. -1.
        -11    1    3    3    0    0  0.23182306761E+02  0.18904157780E+02 -0.42104294282E+02  0.51648408737E+02  0.00000000000E+00 0. -1.
         11    1    3    3    0    0 -0.14129147196E+02  0.14969066322E+02  0.42342024003E+02  0.47080279775E+02  0.00000000000E+00 0.  1.
         -4    1    1    2    0  502  0.46703133458E+02 -0.91111435112E+01  0.12810036404E+02  0.49277709398E+02  0.00000000000E+00 0.  1.
<scales pt_clust_5="13000.00000" pt_clust_6="13000.00000" pt_clust_7="13000.00000" pt_clust_8="13000.00000" pt_clust_9="13000.00000"></scales>
<clustering>
<clus scale="   80.453">  5  6 -1 -1</clus>
<clus scale="   47.584">  5  9 -1 -1</clus>
<clus scale="   92.293">  7  8 -1 -1</clus>
<clus scale="   98.728">  2  7  1 -1</clus>
<clus scale="  152.122">  1  5  2 -1</clus>
</clustering>
</event>
<event>
 9    2  0.6085395E-005  0.1855216E+03  0.7546771E-02  0.1176047E+00
          2   -1    0    0  502    0 -0.00000000000E+00  0.00000000000E+00  0.47146577481E+03  0.47146577481E+03  0.00000000000E+00 0. -1.
         21   -1    0    0  501  502  0.00000000000E+00 -0.00000000000E+00 -0.61511047776E+02  0.61511047776E+02  0.00000000000E+00 0. -1.
         23    2    1    2    0    0  0.16857156547E+02  0.10079403542E+03  0.90484821131E+02  0.16354581845E+03  0.90089569736E+02 0.  0.
         24    2    1    2    0    0 -0.26132484956E+02 -0.25407107679E+01  0.16040838231E+03  0.18224041727E+03  0.82409699615E+02 0.  0.
        -11    1    4    4    0    0  0.10612203757E+02 -0.26369323703E+02  0.11764531372E+03  0.12103049179E+03  0.00000000000E+00 0.  1.
         12    1    4    4    0    0 -0.36744688712E+02  0.23828612935E+02  0.42763068592E+02  0.61209925489E+02  0.00000000000E+00 0. -1.
        -11    1    3    3    0    0  0.52673809722E+02  0.69179345396E+02  0.46478424956E+02  0.98592880304E+02  0.00000000000E+00 0. -1.
         11    1    3    3    0    0 -0.35816653175E+02  0.31614690022E+02  0.44006396175E+02  0.64952938149E+02  0.00000000000E+00 0.  1.
          1    1    1    2  501    0  0.92753284080E+01 -0.98253324651E+02  0.15906152359E+03  0.18719058686E+03  0.00000000000E+00 0. -1.
<scales pt_clust_5="13000.00000" pt_clust_6="13000.00000" pt_clust_7="13000.00000" pt_clust_8="13000.00000" pt_clust_9="13000.00000"></scales>
<clustering>
<clus scale="   82.410">  5  6 -1 -1</clus>
<clus scale="   90.090">  7  8 -1 -1</clus>
<clus scale="   98.690">  5  9 -1 -1</clus>
<clus scale="  136.234">  1  7  2 -1</clus>
<clus scale="  185.522">  2  5  1 -1</clus>
</clustering>
</event>
<event>
 9    2  0.6085395E-005  0.4956647E+03  0.7546771E-02  0.1050748E+00
         -3   -1    0    0    0  501 -0.00000000000E+00  0.00000000000E+00  0.48471863260E+03  0.48471863260E+03  0.00000000000E+00 0.  1.
         21   -1    0    0  501  502  0.00000000000E+00 -0.00000000000E+00 -0.36745975451E+03  0.36745975451E+03  0.00000000000E+00 0.  1.
         23    2    1    2    0    0 -0.11616232433E+02  0.14579340151E+03  0.28154566828E+03  0.32999674403E+03  0.90770231703E+02 0.  0.
         24    2    1    2    0    0  0.78664799134E+02 -0.28902997745E+03 -0.18716531492E+03  0.36238285123E+03  0.81018499539E+02 0.  0.
        -11    1    4    4    0    0  0.46434031967E+00 -0.15341514637E+03 -0.84097426677E+02  0.17495370794E+03  0.00000000000E+00 0.  1.
         12    1    4    4    0    0  0.78200458814E+02 -0.13561483108E+03 -0.10306788825E+03  0.18742914330E+03  0.00000000000E+00 0. -1.
        -13    1    3    3    0    0  0.14966655888E+02  0.13950947712E+03  0.25906041400E+03  0.29461702785E+03  0.00000000000E+00 0.  1.
         13    1    3    3    0    0 -0.26582888321E+02  0.62839243933E+01  0.22485254276E+02  0.35379716182E+02  0.00000000000E+00 0. -1.
         -4    1    1    2    0  502 -0.67048566701E+02  0.14323657594E+03  0.22878524732E+02  0.15979879185E+03  0.00000000000E+00 0.  1.
<scales pt_clust_5="13000.00000" pt_clust_6="13000.00000" pt_clust_7="13000.00000" pt_clust_8="13000.00000" pt_clust_9="13000.00000"></scales>
<clustering>
<clus scale="   81.018">  5  6 -1 -1</clus>
<clus scale="   90.770">  7  8 -1 -1</clus>
<clus scale="  158.153">  5  9 -1 -1</clus>
<clus scale="  172.133">  1  7  2 -1</clus>
<clus scale="  495.665">  2  5  1 -1</clus>
</clustering>
</event>
<event>
 9    2  0.6085395E-005  0.5211181E+03  0.7546771E-02  0.1050582E+00
          2   -1    0    0  502    0 -0.00000000000E+00  0.00000000000E+00  0.69068232051E+03  0.69068232051E+03  0.00000000000E+00 0. -1.
         21   -1    0    0  501  502  0.00000000000E+00 -0.00000000000E+00 -0.16636150794E+03  0.16636150794E+03  0.00000000000E+00 0. -1.
         23    2    1    2    0    0 -0.96914638993E+02  0.11062499195E+02  0.17475407736E+03  0.22954009662E+03  0.11240481423E+03 0.  0.
         24    2    1    2    0    0 -0.19549053513E+03 -0.42811056299E+02  0.11216078480E+03  0.24952179836E+03  0.98141481260E+02 0.  0.
        -11    1    4    4    0    0 -0.25960922528E+02 -0.38615228499E+02  0.51525023900E+02  0.69425740604E+02  0.00000000000E+00 0.  1.
         12    1    4    4    0    0 -0.16952961260E+03 -0.41958278002E+01  0.60635760898E+02  0.18009605776E+03  0.00000000000E+00 0. -1.
        -11    1    3    3    0    0 -0.15840771174E+01  0.22025923643E+02 -0.77031847090E+01  0.23387810229E+02  0.00000000000E+00 0.  1.
         11    1    3    3    0    0 -0.95330561876E+02 -0.10963424448E+02  0.18245726207E+03  0.20615228639E+03  0.00000000000E+00 0. -1.
          1    1    1    2  501    0  0.29240517412E+03  0.31748557104E+02  0.23740595042E+03  0.37798193347E+03  0.00000000000E+00 0. -1.
<scales pt_clust_5="13000.00000" pt_clust_6="13000.00000" pt_clust_7="13000.00000" pt_clust_8="13000.00000" pt_clust_9="13000.00000"></scales>
<clustering>
<clus scale="   98.141">  5  6 -1 -1</clus>
<clus scale="  112.405">  7  8 -1 -1</clus>
<clus scale="  148.828">  1  7  2 -1</clus>
<clus scale="  234.583">  5  9 -1 -1</clus>
<clus scale="  521.118">  2  5  1 -1</clus>
</clustering>
</event>
<event>
 9    2  0.6085395E-005  0.2644088E+03  0.7546771E-02  0.1144563E+00
         21   -1    0    0  501  502  0.00000000000E+00  0.00000000000E+00  0.98726491846E+02  0.98726491846E+02  0.00000000000E+00 0.  1.
         -1   -1    0    0    0  501 -0.00000000000E+00 -0.00000000000E+00 -0.36539890831E+03  0.36539890831E+03  0.00000000000E+00 0.  1.
         23    2    1    2    0    0  0.36903156333E+02  0.57663676605E+01 -0.14931711649E+02  0.99042692066E+02  0.90506380414E+02 0.  0.
         24    2    1    2    0    0 -0.36187111593E+01 -0.88439092923E+02 -0.25787986702E+02  0.12218918282E+03  0.80191071284E+02 0.  0.
        -11    1    4    4    0    0 -0.32439796505E+02 -0.15974448922E+02  0.82659961479E+01  0.37092453518E+02  0.00000000000E+00 0.  1.
         12    1    4    4    0    0  0.28821085346E+02 -0.72464644001E+02 -0.34053982850E+02  0.85096729306E+02  0.00000000000E+00 0. -1.
        -11    1    3    3    0    0  0.36954401350E+02  0.33858459908E+02 -0.37834934248E+02  0.62797335421E+02  0.00000000000E+00 0. -1.
         11    1    3    3    0    0 -0.51245017063E-01 -0.28092092248E+02  0.22903222599E+02  0.36245356645E+02  0.00000000000E+00 0.  1.
         -2    1    1    2    0  502 -0.33284445173E+02  0.82672725262E+02 -0.22595271811E+03  0.24289352526E+03  0.00000000000E+00 0.  1.
<scales pt_clust_5="13000.00000" pt_clust_6="13000.00000" pt_clust_7="13000.00000" pt_clust_8="13000.00000" pt_clust_9="13000.00000"></scales>
<clustering>
<clus scale="   80.191">  5  6 -1 -1</clus>
<clus scale="   89.121">  5  9 -1 -1</clus>
<clus scale="   90.506">  7  8 -1 -1</clus>
<clus scale="   97.911">  2  7  1 -1</clus>
<clus scale="  264.409">  1  5  2 -1</clus>
</clustering>
</event>
<event>
 9    2  0.6085395E-005  0.1390330E+03  0.7546771E-02  0.1233501E+00
          2   -1    0    0  502    0 -0.00000000000E+00  0.00000000000E+00  0.12538308799E+03  0.12538308799E+03  0.00000000000E+00 0. -1.
         21   -1    0    0  501  502  0.00000000000E+00 -0.00000000000E+00 -0.11021105203E+03  0.11021105203E+03  0.00000000000E+00 0. -1.
         23    2    1    2    0    0  0.20951834853E+02  0.10540156777E+01 -0.98554266991E+01  0.94326476708E+02  0.91434481679E+02 0.  0.
         24    2    1    2    0    0 -0.38851714920E+02 -0.33371013972E+02 -0.46319759550E+01  0.93891758215E+02  0.78556519359E+02 0.  0.
        -13    1    4    4    0    0 -0.24541196721E+02  0.16257106973E+02  0.21069126944E+02  0.36200441625E+02  0.00000000000E+00 0.  1.
         14    1    4    4    0    0 -0.14310518199E+02 -0.49628120945E+02 -0.25701102900E+02  0.57691316590E+02  0.00000000000E+00 0. -1.
        -11    1    3    3    0    0  0.31187404598E+02 -0.39598002033E+02  0.29565550165E+01  0.50491555612E+02  0.00000000000E+00 0.  1.
         11    1    3    3    0    0 -0.10235569745E+02  0.40652017711E+02 -0.12811981716E+02  0.43834921096E+02  0.00000000000E+00 0. -1.
          1    1    1    2  501    0  0.17899880067E+02  0.32316998295E+02  0.29659438612E+02  0.47375905099E+02  0.00000000000E+00 0. -1.
<scales pt_clust_5="13000.00000" pt_clust_6="13000.00000" pt_clust_7="13000.00000" pt_clust_8="13000.00000" pt_clust_9="13000.00000"></scales>
<clustering>
<clus scale="   78.557">  5  6 -1 -1</clus>
<clus scale="   36.943">  5  9 -1 -1</clus>
<clus scale="   91.434">  7  8 -1 -1</clus>
<clus scale="   93.810">  1  7  2 -1</clus>
<clus scale="  139.033">  2  5  1 -1</clus>
</clustering>
</event>
<event>
 9    2  0.6085395E-005  0.1252067E+04  0.7546771E-02  0.9638216E-01
          2   -1    0    0  502    0 -0.00000000000E+00  0.00000000000E+00  0.11243844773E+04  0.11243844773E+04  0.00000000000E+00 0. -1.
         21   -1    0    0  501  502  0.00000000000E+00 -0.00000000000E+00 -0.63563480331E+03  0.63563480331E+03  0.00000000000E+00 0. -1.
         23    2    1    2    0    0  0.10713453606E+03  0.35735499515E+02  0.48219697956E+03  0.50793483863E+03  0.11282304045E+03 0.  0.
         24    2    1    2    0    0 -0.30514796012E+03  0.53900797008E+03  0.11261632305E+03  0.63500351922E+03  0.83079262317E+02 0.  0.
        -13    1    4    4    0    0 -0.22905199979E+03  0.39555408702E+03  0.45685547496E+02  0.45936371604E+03  0.00000000000E+00 0.  1.
         14    1    4    4    0    0 -0.76095960326E+02  0.14345388307E+03  0.66930775554E+02  0.17563980318E+03  0.00000000000E+00 0. -1.
        -13    1    3    3    0    0  0.44238149296E+02  0.69195503689E+02  0.18660242176E+03  0.20387617661E+03  0.00000000000E+00 0.  1.
         13    1    3    3    0    0  0.62896386765E+02 -0.33460004174E+02  0.29559455781E+03  0.30405866202E+03  0.00000000000E+00 0. -1.
          1    1    1    2  501    0  0.19801342405E+03 -0.57474346960E+03 -0.10606362860E+03  0.61708092278E+03  0.00000000000E+00 0. -1.
<scales pt_clust_5="13000.00000" pt_clust_6="13000.00000" pt_clust_7="13000.00000" pt_clust_8="13000.00000" pt_clust_9="13000.00000"></scales>
<clustering>
<clus scale="   83.079">  5  6 -1 -1</clus>
<clus scale="  112.823">  7  8 -1 -1</clus>
<clus scale="  159.637">  1  7  2 -1</clus>
<clus scale="  610.074">  5  9 -1 -1</clus>
<clus scale=" 1252.067">  2  5  1 -1</clus>
</clustering>
</event>
<event>
 9    2  0.6085395E-005  0.3875399E+03  0.7546771E-02  0.1064039E+00
          2   -1    0    0  502    0 -0.00000000000E+00  0.00000000000E+00  0.83310816138E+03  0.83310816138E+03  0.00000000000E+00 0. -1.
         21   -1    0    0  501  502  0.00000000000E+00 -0.00000000000E+00 -0.13256401923E+03  0.13256401923E+03  0.00000000000E+00 0. -1.
         23    2    1    2    0    0 -0.15310545010E+03 -0.17125881391E+03  0.41848779007E+03  0.48635710426E+03  0.92953441188E+02 0.  0.
         24    2    1    2    0    0  0.77735495952E+02 -0.27309959847E+02  0.23515512034E+03  0.26180665482E+03  0.80350187578E+02 0.  0.
        -13    1    4    4    0    0  0.26494948940E+02 -0.38213256327E+02  0.45532020282E+02  0.65079951978E+02  0.00000000000E+00 0.  1.
         14    1    4    4    0    0  0.51240547013E+02  0.10903296480E+02  0.18962310006E+03  0.19672670284E+03  0.00000000000E+00 0. -1.
        -13    1    3    3    0    0 -0.13098055113E+03 -0.12628238932E+03  0.24124197883E+03  0.30216028690E+03  0.00000000000E+00 0. -1.
         13    1    3    3    0    0 -0.22124898972E+02 -0.44976424589E+02  0.17724581124E+03  0.18419681736E+03  0.00000000000E+00 0.  1.
          1    1    1    2  501    0  0.75369954148E+02  0.19856877376E+03  0.46901231732E+02  0.21750842153E+03  0.00000000000E+00 0. -1.
<scales pt_clust_5="13000.00000" pt_clust_6="13000.00000" pt_clust_7="13000.00000" pt_clust_8="13000.00000" pt_clust_9="13000.00000"></scales>
<clustering>
<clus scale="   80.350">  5  6 -1 -1</clus>
<clus scale="   92.953">  7  8 -1 -1</clus>
<clus scale="  212.392">  5  9 -1 -1</clus>
<clus scale="  247.813">  1  7  2 -1</clus>
<clus scale="  387.540">  2  5  1 -1</clus>
</clustering>
</event>
<event>
 9    2  0.6085395E-005  0.2394678E+03  0.7546771E-02  0.1147154E+00
         21   -1    0    0  501  502  0.00000000000E+00  0.00000000000E+00  0.61002044609E+02  0.61002044609E+02  0.00000000000E+00 0.  1.
         -3   -1    0    0    0  501 -0.00000000000E+00 -0.00000000000E+00 -0.70593713310E+03  0.70593713310E+03  0.00000000000E+00 0.  1.
         23    2    1    2    0    0 -0.67803967680E+01  0.89759638401E+02 -0.65879668714E+02  0.14032126148E+03  0.85130248490E+02 0.  0.
         24    2    1    2    0    0  0.91806374982E+01  0.53064100780E+02 -0.26081192136E+03  0.27778657315E+03  0.79009107082E+02 0.  0.
        -11    1    4    4    0    0 -0.17108409995E+02  0.28066623653E+02 -0.31176757117E+02  0.45303677998E+02  0.00000000000E+00 0.  1.
         12    1    4    4    0    0  0.26289047493E+02  0.24997477126E+02 -0.22963516424E+03  0.23248289515E+03  0.00000000000E+00 0. -1.
        -13    1    3    3    0    0 -0.24551441944E+02 -0.31158315807E+01 -0.30690118335E+02  0.39425436857E+02  0.00000000000E+00 0. -1.
         13    1    3    3    0    0  0.17771045176E+02  0.92875469981E+02 -0.35189550379E+02  0.10089582462E+03  0.00000000000E+00 0.  1.
         -4    1    1    2    0  502 -0.24002407302E+01 -0.14282373918E+03 -0.31824349842E+03  0.34883134308E+03  0.00000000000E+00 0.  1.
<scales pt_clust_5="13000.00000" pt_clust_6="13000.00000" pt_clust_7="13000.00000" pt_clust_8="13000.00000" pt_clust_9="13000.00000"></scales>
<clustering>
<clus scale="   79.009">  5  6 -1 -1</clus>
<clus scale="   85.130">  7  8 -1 -1</clus>
<clus scale="  123.895">  2  7  1 -1</clus>
<clus scale="   93.364">  5  9 -1 -1</clus>
<clus scale="  239.468">  1  5  2 -1</clus>
</clustering>
</event>
<event>
 9    2  0.6085395E-005  0.2320038E+03  0.7546771E-02  0.1159018E+00
         21   -1    0    0  501  502  0.00000000000E+00  0.00000000000E+00  0.37042080548E+02  0.37042080548E+02  0.00000000000E+00 0. -1.
          2   -1    0    0  502    0 -0.00000000000E+00 -0.00000000000E+00 -0.98296269380E+03  0.98296269380E+03  0.00000000000E+00 0. -1.
         23    2    1    2    0    0 -0.45046757284E+02 -0.40611942060E+01 -0.56251134835E+03  0.57186591446E+03  0.92552166123E+02 0.  0.
         24    2    1    2    0    0 -0.69457093887E+02 -0.10917705861E+02 -0.11392830179E+03  0.15495719460E+03  0.78029417649E+02 0.  0.
        -13    1    4    4    0    0 -0.14974842471E+02  0.14926109881E+02 -0.85894070887E+02  0.88458046987E+02  0.00000000000E+00 0.  1.
         14    1    4    4    0    0 -0.54482251416E+02 -0.25843815742E+02 -0.28034230899E+02  0.66499147615E+02  0.00000000000E+00 0. -1.
        -13    1    3    3    0    0 -0.26728932914E+02 -0.48197659071E+02 -0.31458460625E+03  0.31937583610E+03  0.00000000000E+00 0. -1.
         13    1    3    3    0    0 -0.18317824370E+02  0.44136464865E+02 -0.24792674211E+03  0.25249007836E+03  0.00000000000E+00 0.  1.
          1    1    1    2  501    0  0.11450385117E+03  0.14978900067E+02 -0.26948096312E+03  0.29318166529E+03  0.00000000000E+00 0. -1.
<scales pt_clust_5="13000.00000" pt_clust_6="13000.00000" pt_clust_7="13000.00000" pt_clust_8="13000.00000" pt_clust_9="13000.00000"></scales>
<clustering>
<clus scale="   78.029">  5  6 -1 -1</clus>
<clus scale="   92.552">  7  8 -1 -1</clus>
<clus scale="  103.013">  2  7  1 -1</clus>
<clus scale="   84.909">  5  9 -1 -1</clus>
<clus scale="  232.004">  1  5  2 -1</clus>
</clustering>
</event>
<event>
 9    2  0.6085395E-005  0.1664531E+03  0.7546771E-02  0.1203798E+00
         -3   -1    0    0    0  501 -0.00000000000E+00  0.00000000000E+00  0.10126526055E+03  0.10126526055E+03  0.00000000000E+00 0.  1.
         21   -1    0    0  501  502  0.00000000000E+00 -0.00000000000E+00 -0.17944188495E+03  0.17944188495E+03  0.00000000000E+00 0.  1.
         23    2    1    2    0    0  0.13945036912E+02 -0.44363555000E+02 -0.41511873860E+02  0.11026380200E+03  0.90952082401E+02 0.  0.
         24    2    1    2    0    0 -0.41149536675E+02  0.53583979805E+02 -0.70841841514E+02  0.12579835958E+03  0.79007173752E+02 0.  0.
        -11    1    4    4    0    0 -0.14724478596E+02  0.66406814680E+02 -0.68177264168E+02  0.96305839155E+02  0.00000000000E+00 0.  1.
         12    1    4    4    0    0 -0.26425058079E+02 -0.12822834875E+02 -0.26645773458E+01  0.29492520428E+02  0.00000000000E+00 0. -1.
        -11    1    3    3    0    0  0.47077485286E+02 -0.31758058069E+01 -0.85048640968E+01  0.47944844109E+02  0.00000000000E+00 0.  1.
         11    1    3    3    0    0 -0.33132448374E+02 -0.41187749194E+02 -0.33007009764E+02  0.62318957889E+02  0.00000000000E+00 0. -1.
         -4    1    1    2    0  502  0.27204499763E+02 -0.92204248045E+01  0.34177090980E+02  0.44644983915E+02  0.00000000000E+00 0.  1.
<scales pt_clust_5="13000.00000" pt_clust_6="13000.00000" pt_clust_7="13000.00000" pt_clust_8="13000.00000" pt_clust_9="13000.00000"></scales>
<clustering>
<clus scale="   79.007">  5  6 -1 -1</clus>
<clus scale="   28.725">  5  9 -1 -1</clus>
<clus scale="   90.952">  7  8 -1 -1</clus>
<clus scale="  102.151">  1  7  2 -1</clus>
<clus scale="  166.453">  2  5  1 -1</clus>
</clustering>
</event>
<event>
 9    2  0.6085395E-005  0.3779780E+03  0.7546771E-02  0.1103383E+00
         21   -1    0    0  501  502  0.00000000000E+00  0.00000000000E+00  0.10072713226E+03  0.10072713226E+03  0.00000000000E+00 0. -1.
          2   -1    0    0  502    0 -0.00000000000E+00 -0.00000000000E+00 -0.58917979625E+03  0.58917979625E+03  0.00000000000E+00 0. -1.
         23    2    1    2    0    0 -0.16933990727E+02  0.71685414408E+01 -0.17739867794E+03  0.20039498016E+03  0.91376742719E+02 0.  0.
         24    2    1    2    0    0  0.10148123543E+03  0.15079243417E+03 -0.16448217533E+03  0.25803149107E+03  0.80554733179E+02 0.  0.
        -11    1    4    4    0    0  0.38711340320E+02  0.11264297764E+03 -0.13176651364E+03  0.17762157076E+03  0.00000000000E+00 0.  1.
         12    1    4    4    0    0  0.62769895112E+02  0.38149456532E+02 -0.32715661688E+02  0.80409920319E+02  0.00000000000E+00 0. -1.
        -13    1    3    3    0    0  0.26697869069E+02  0.29116323183E+02 -0.11206155226E+03  0.11882057054E+03  0.00000000000E+00 0.  1.
         13    1    3    3    0    0 -0.43631859796E+02 -0.21947781742E+02 -0.65337125684E+02  0.81574409623E+02  0.00000000000E+00 0. -1.
          1    1    1    2  501    0 -0.84547244705E+02 -0.15796097561E+03 -0.14657181071E+03  0.23148045727E+03  0.00000000000E+00 0. -1.
<scales pt_clust_5="13000.00000" pt_clust_6="13000.00000" pt_clust_7="13000.00000" pt_clust_8="13000.00000" pt_clust_9="13000.00000"></scales>
<clustering>
<clus scale="   80.555">  5  6 -1 -1</clus>
<clus scale="   91.377">  7  8 -1 -1</clus>
<clus scale="   93.209">  2  7  1 -1</clus>
<clus scale="  180.161">  5  9 -1 -1</clus>
<clus scale="  377.978">  1  5  2 -1</clus>
</clustering>
</event>
<event>
 9    2  0.6085395E-005  0.4708440E+03  0.7546771E-02  0.1048356E+00
         21   -1    0    0  501  502  0.00000000000E+00  0.00000000000E+00  0.14943929929E+03  0.14943929929E+03  0.00000000000E+00 0.  1.
          2   -1    0    0  502    0 -0.00000000000E+00 -0.00000000000E+00 -0.81128922834E+03  0.81128922834E+03  0.00000000000E+00 0. -1.
         23    2    1    2    0    0  0.15740894802E+03 -0.11230115278E+03 -0.28858160502E+03  0.35987638004E+03  0.94034782490E+02 0.  0.
         24    2    1    2    0    0  0.48091945683E+02 -0.10532730873E+03 -0.22404658683E+03  0.26639752971E+03  0.85814296978E+02 0.  0.
        -13    1    4    4    0    0  0.49196721966E+02 -0.58027867355E+02 -0.19860835044E+03  0.21268010652E+03  0.00000000000E+00 0.  1.
         14    1    4    4    0    0 -0.11047762833E+01 -0.47299441372E+02 -0.25438236383E+02  0.53717423198E+02  0.00000000000E+00 0. -1.
        -13    1    3    3    0    0  0.26428362593E+02  0.14048760095E+02 -0.22207740343E+02  0.37269420987E+02  0.00000000000E+00 0. -1.
         13    1    3    3    0    0  0.13098058542E+03 -0.12634991288E+03 -0.26637386468E+03  0.32260695905E+03  0.00000000000E+00 0.  1.
          1    1    1    2  501    0 -0.20550089370E+03  0.21762846151E+03 -0.14922173720E+03  0.33445461788E+03  0.00000000000E+00 0. -1.
<scales pt_clust_5="13000.00000" pt_clust_6="13000.00000" pt_clust_7="13000.00000" pt_clust_8="13000.00000" pt_clust_9="13000.00000"></scales>
<clustering>
<clus scale="   85.814">  5  6 -1 -1</clus>
<clus scale="   94.035">  7  8 -1 -1</clus>
<clus scale="  215.016">  2  7  1 -1</clus>
<clus scale="  205.955">  5  9 -1 -1</clus>
<clus scale="  470.844">  1  5  2 -1</clus>
</clustering>
</event>
<event>
 9    2  0.7821538E-005  0.3705618E+03  0.7546771E-02  0.1070256E+00
         21   -1    0    0  501  502  0.00000000000E+00  0.00000000000E+00  0.13375323056E+03  0.13375323056E+03  0.00000000000E+00 0.  1.
         -1   -1    0    0    0  501 -0.00000000000E+00 -0.00000000000E+00 -0.71491109586E+03  0.71491109586E+03  0.00000000000E+00 0.  1.
         23    2    1    2    0    0 -0.69314458097E+02 -0.20928866743E+03 -0.15858284078E+03  0.28662722245E+03  0.91653733396E+02 0.  0.
         24    2    1    2    0    0  0.48116172485E+00 -0.27911955620E+02 -0.24610611969E+03  0.25848573660E+03  0.73941497775E+02 0.  0.
        -11    1    4    4    0    0  0.34116113923E+02 -0.25599097082E+02 -0.16958877211E+03  0.17487016505E+03  0.00000000000E+00 0.  1.
         12    1    4    4    0    0 -0.33634952198E+02 -0.23128585379E+01 -0.76517347580E+02  0.83615571544E+02  0.00000000000E+00 0. -1.
        -11    1    3    3    0    0  0.65277635665E+01 -0.90008570956E+02 -0.28789255388E+02  0.94725792520E+02  0.00000000000E+00 0. -1.
         11    1    3    3    0    0 -0.75842221663E+02 -0.11928009647E+03 -0.12979358539E+03  0.19190142993E+03  0.00000000000E+00 0.  1.
         -2    1    1    2    0  502  0.68833296372E+02  0.23720062305E+03 -0.17646890484E+03  0.30355136738E+03  0.00000000000E+00 0.  1.
<scales pt_clust_5="13000.00000" pt_clust_6="13000.00000" pt_clust_7="13000.00000" pt_clust_8="13000.00000" pt_clust_9="13000.00000"></scales>
<clustering>
<clus scale="   73.941">  5  6 -1 -1</clus>
<clus scale="   91.654">  7  8 -1 -1</clus>
<clus scale="  238.761">  2  7  1 -1</clus>
<clus scale="  139.636">  5  9 -1 -1</clus>
<clus scale="  370.562">  1  5  2 -1</clus>
</clustering>
</event>
<event>
 9    2  0.6085395E-005  0.4141272E+03  0.7546771E-02  0.1091827E+00
         21   -1    0    0  501  502  0.00000000000E+00  0.00000000000E+00  0.34918138266E+03  0.34918138266E+03  0.00000000000E+00 0.  1.
          2   -1    0    0  502    0 -0.00000000000E+00 -0.00000000000E+00 -0.19005212082E+03  0.19005212082E+03  0.00000000000E+00 0. -1.
         23    2    1    2    0    0  0.44948295981E+01 -0.28025459309E+02  0.61280209326E+02  0.11370355055E+03  0.91474605711E+02 0.  0.
         24    2    1    2    0    0  0.17002185305E+03  0.35870293152E+02 -0.47990873391E+02  0.19796260480E+03  0.81804404068E+02 0.  0.
        -11    1    4    4    0    0  0.50508347998E+02 -0.11560149515E+00 -0.52784472566E+02  0.73056875962E+02  0.00000000000E+00 0.  1.
         12    1    4    4    0    0  0.11951350506E+03  0.35985894647E+02  0.47935991750E+01  0.12490572884E+03  0.00000000000E+00 0. -1.
        -13    1    3    3    0    0 -0.24718053128E+02  0.19923359577E+02  0.16366341759E+01  0.31789950907E+02  0.00000000000E+00 0.  1.
         13    1    3    3    0    0  0.29212882726E+02 -0.47948818886E+02  0.59643575150E+02  0.81913599642E+02  0.00000000000E+00 0. -1.
          1    1    1    2  501    0 -0.17451668265E+03 -0.78448338433E+01  0.14583992591E+03  0.22756734812E+03  0.00000000000E+00 0. -1.
<scales pt_clust_5="13000.00000" pt_clust_6="13000.00000" pt_clust_7="13000.00000" pt_clust_8="13000.00000" pt_clust_9="13000.00000"></scales>
<clustering>
<clus scale="   81.804">  5  6 -1 -1</clus>
<clus scale="   91.475">  7  8 -1 -1</clus>
<clus scale="   95.777">  2  7  1 -1</clus>
<clus scale="  174.029">  5  9 -1 -1</clus>
<clus scale="  414.127">  1  5  2 -1</clus>
</clustering>
</event>
<event>
 9    2  0.6085395E-005  0.2441501E+03  0.7546771E-02  0.1153044E+00
          2   -1    0    0  502    0 -0.00000000000E+00  0.00000000000E+00  0.67667967234E+03  0.67667967234E+03  0.00000000000E+00 0. -1.
         21   -1    0    0  501  502  0.00000000000E+00 -0.00000000000E+00 -0.51788901973E+02  0.51788901973E+02  0.00000000000E+00 0. -1.
         23    2    1    2    0    0  0.90868547618E+01 -0.43197436953E+02  0.33169052941E+03  0.34692483058E+03  0.91594985036E+02 0.  0.
         24    2    1    2    0    0  0.28860347600E+02 -0.27271482667E+02  0.30419556383E+02  0.10684473211E+03  0.94412890749E+02 0.  0.
        -11    1    4    4    0    0  0.30024674742E+02  0.54143712713E+01  0.57031677428E+02  0.64679275969E+02  0.00000000000E+00 0.  1.
         12    1    4    4    0    0 -0.11643271418E+01 -0.32685853939E+02 -0.26612121045E+02  0.42165456145E+02  0.00000000000E+00 0. -1.
        -13    1    3    3    0    0 -0.37136214768E+02 -0.16818458590E+02  0.81393163281E+02  0.91031895649E+02  0.00000000000E+00 0.  1.
         13    1    3    3    0    0  0.46223069529E+02 -0.26378978362E+02  0.25029736613E+03  0.25589293493E+03  0.00000000000E+00 0. -1.
          1    1    1    2  501    0 -0.37947202362E+02  0.70468919620E+02  0.26278068458E+03  0.27469901162E+03  0.00000000000E+00 0. -1.
<scales pt_clust_5="13000.00000" pt_clust_6="13000.00000" pt_clust_7="13000.00000" pt_clust_8="13000.00000" pt_clust_9="13000.00000"></scales>
<clustering>
<clus scale="   91.595">  7  8 -1 -1</clus>
<clus scale="   94.413">  5  6 -1 -1</clus>
<clus scale="   80.037">  5  9 -1 -1</clus>
<clus scale="  101.677">  1  7  2 -1</clus>
<clus scale="  244.150">  2  5  1 -1</clus>
</clustering>
</event>
<event>
 9    2  0.6085395E-005  0.3392400E+03  0.7546771E-02  0.1084964E+00
         21   -1    0    0  501  502  0.00000000000E+00  0.00000000000E+00  0.67252434889E+02  0.67252434889E+02  0.00000000000E+00 0. -1.
          2   -1    0    0  502    0 -0.00000000000E+00 -0.00000000000E+00 -0.11178757120E+04  0.11178757120E+04  0.00000000000E+00 0. -1.
         23    2    1    2    0    0 -0.18687631612E+03 -0.20792895735E+02 -0.41292874021E+03  0.46281372953E+03  0.91275964574E+02 0.  0.
         24    2    1    2    0    0  0.12753502820E+03  0.44017726498E+02 -0.63952328738E+03  0.65856392293E+03  0.80707259985E+02 0.  0.
        -11    1    4    4    0    0  0.76159745859E+01 -0.19886521888E+02 -0.91575517300E+02  0.94018892731E+02  0.00000000000E+00 0.  1.
         12    1    4    4    0    0  0.11991905362E+03  0.63904248386E+02 -0.54794777008E+03  0.56454503020E+03  0.00000000000E+00 0. -1.
        -11    1    3    3    0    0 -0.13298502936E+03  0.19421178710E+01 -0.36055016945E+03  0.38429834054E+03  0.00000000000E+00 0. -1.
         11    1    3    3    0    0 -0.53891286759E+02 -0.22735013606E+02 -0.52378570760E+02  0.78515388982E+02  0.00000000000E+00 0.  1.
          1    1    1    2  501    0  0.59341287915E+02 -0.23224830763E+02  0.18287504566E+01  0.63750494457E+02  0.00000000000E+00 0. -1.
<scales pt_clust_5="13000.00000" pt_clust_6="13000.00000" pt_clust_7="13000.00000" pt_clust_8="13000.00000" pt_clust_9="13000.00000"></scales>
<clustering>
<clus scale="   80.707">  5  6 -1 -1</clus>
<clus scale="   63.724">  5  9 -1 -1</clus>
<clus scale="   91.276">  7  8 -1 -1</clus>
<clus scale="  209.013">  2  7  1 -1</clus>
<clus scale="  339.240">  1  5  2 -1</clus>
</clustering>
</event>
<event>
 9    2  0.6085395E-005  0.1462436E+03  0.7546771E-02  0.1228479E+00
         21   -1    0    0  501  502  0.00000000000E+00  0.00000000000E+00  0.17403140973E+03  0.17403140973E+03  0.00000000000E+00 0. -1.
          2   -1    0    0  502    0 -0.00000000000E+00 -0.00000000000E+00 -0.81449773330E+02  0.81449773330E+02  0.00000000000E+00 0. -1.
         23    2    1    2    0    0  0.10934383166E+02 -0.10379459882E+02  0.17524706383E+02  0.91101353837E+02  0.88119506436E+02 0.  0.
         24    2    1    2    0    0 -0.44662618481E+02 -0.45928948411E+01  0.12691938843E+02  0.91914959200E+02  0.79192362261E+02 0.  0.
        -11    1    4    4    0    0  0.96101826406E+01 -0.22870739699E+02 -0.14268197416E+02  0.28618312359E+02  0.00000000000E+00 0.  1.
         12    1    4    4    0    0 -0.54272801121E+02  0.18277844858E+02  0.26960136259E+02  0.63296646841E+02  0.00000000000E+00 0. -1.
        -11    1    3    3    0    0 -0.15544911493E+02  0.30221951138E+02  0.24818279192E+02  0.42082746892E+02  0.00000000000E+00 0.  1.
         11    1    3    3    0    0  0.26479294659E+02 -0.40601411020E+02 -0.72935728093E+01  0.49018606945E+02  0.00000000000E+00 0. -1.
          1    1    1    2  501    0  0.33728235315E+02  0.14972354723E+02  0.62364991171E+02  0.72464870021E+02  0.00000000000E+00 0. -1.
<scales pt_clust_5="13000.00000" pt_clust_6="13000.00000" pt_clust_7="13000.00000" pt_clust_8="13000.00000" pt_clust_9="13000.00000"></scales>
<clustering>
<clus scale="   79.192">  5  6 -1 -1</clus>
<clus scale="   36.902">  5  9 -1 -1</clus>
<clus scale="   88.120">  7  8 -1 -1</clus>
<clus scale="   89.400">  2  7  1 -1</clus>
<clus scale="  146.244">  1  5  2 -1</clus>
</clustering>
</event>
<event>
 9    2  0.6085395E-005  0.3012525E+03  0.7546771E-02  0.1121685E+00
         21   -1    0    0  501  502  0.00000000000E+00  0.00000000000E+00  0.43302411518E+03  0.43302411518E+03  0.00000000000E+00 0.  1.
         -1   -1    0    0    0  501 -0.00000000000E+00 -0.00000000000E+00 -0.24316883381E+03  0.24316883381E+03  0.00000000000E+00 0.  1.
         23    2    1    2    0    0 -0.49678373090E+02  0.60444600328E+02 -0.17076529508E+03  0.20629905166E+03  0.85305464361E+02 0.  0.
         24    2    1    2    0    0 -0.78754860172E+02 -0.41114682683E+02  0.30689120978E+03  0.32933933153E+03  0.79933944764E+02 0.  0.
        -13    1    4    4    0    0 -0.20399515407E+02 -0.52795139487E+02  0.18877634094E+03  0.19707859824E+03  0.00000000000E+00 0.  1.
         14    1    4    4    0    0 -0.58355344765E+02  0.11680456804E+02  0.11811486883E+03  0.13226073330E+03  0.00000000000E+00 0. -1.
        -11    1    3    3    0    0 -0.62301439467E+02  0.11052238955E+02 -0.11078097810E+03  0.12757760953E+03  0.00000000000E+00 0.  1.
         11    1    3    3    0    0  0.12623066377E+02  0.49392361373E+02 -0.59984316984E+02  0.78721442129E+02  0.00000000000E+00 0. -1.
         -2    1    1    2    0  502  0.12843323326E+03 -0.19329917645E+02  0.53729366675E+02  0.14055456579E+03  0.00000000000E+00 0.  1.
<scales pt_clust_5="13000.00000" pt_clust_6="13000.00000" pt_clust_7="13000.00000" pt_clust_8="13000.00000" pt_clust_9="13000.00000"></scales>
<clustering>
<clus scale="   79.934">  5  6 -1 -1</clus>
<clus scale="   85.305">  7  8 -1 -1</clus>
<clus scale="  115.752">  2  7  1 -1</clus>
<clus scale="   93.475">  5  9 -1 -1</clus>
<clus scale="  301.253">  1  5  2 -1</clus>
</clustering>
</event>
<event>
 9    2  0.6085395E-005  0.1444150E+03  0.7546771E-02  0.1229285E+00
         21   -1    0    0  501  502  0.00000000000E+00  0.00000000000E+00  0.18045422204E+03  0.18045422204E+03  0.00000000000E+00 0. -1.
          2   -1    0    0  502    0 -0.00000000000E+00 -0.00000000000E+00 -0.12519709202E+03  0.12519709202E+03  0.00000000000E+00 0. -1.
         23    2    1    2    0    0 -0.76320832507E+01  0.86738801338E+01 -0.69552380180E+02  0.11477673363E+03  0.90568648559E+02 0.  0.
         24    2    1    2    0    0 -0.34678575613E+02  0.11680578626E+02  0.11190301939E+03  0.14218091196E+03  0.79712523810E+02 0.  0.
        -11    1    4    4    0    0  0.14146000603E+02 -0.17972869896E+02  0.91853987353E+01  0.24647615205E+02  0.00000000000E+00 0.  1.
         12    1    4    4    0    0 -0.48824576216E+02  0.29653448522E+02  0.10271762066E+03  0.11753329675E+03  0.00000000000E+00 0. -1.
        -11    1    3    3    0    0  0.41601056195E+02  0.24401073516E+01 -0.31223752131E+02  0.52072302595E+02  0.00000000000E+00 0.  1.
         11    1    3    3    0    0 -0.49233139446E+02  0.62337727823E+01 -0.38328628049E+02  0.62704431031E+02  0.00000000000E+00 0. -1.
          1    1    1    2  501    0  0.42310658864E+02 -0.20354458760E+02  0.12906490812E+02  0.48693668479E+02  0.00000000000E+00 0. -1.
<scales pt_clust_5="13000.00000" pt_clust_6="13000.00000" pt_clust_7="13000.00000" pt_clust_8="13000.00000" pt_clust_9="13000.00000"></scales>
<clustering>
<clus scale="   79.713">  5  6 -1 -1</clus>
<clus scale="   46.952">  5  9 -1 -1</clus>
<clus scale="   90.569">  7  8 -1 -1</clus>
<clus scale="   91.303">  2  7  1 -1</clus>
<clus scale="  144.415">  1  5  2 -1</clus>
</clustering>
</event>
<event>
 9    2  0.6085395E-005  0.2147919E+03  0.7546771E-02  0.1161860E+00
         21   -1    0    0  501  502  0.00000000000E+00  0.00000000000E+00  0.61319963867E+02  0.61319963867E+02  0.00000000000E+00 0.  1.
         -3   -1    0    0    0  501 -0.00000000000E+00 -0.00000000000E+00 -0.48508273574E+03  0.48508273574E+03  0.00000000000E+00 0.  1.
         23    2    1    2    0    0 -0.80017882431E+02 -0.12135591451E+01 -0.97534964673E+02  0.15581321811E+03  0.91434978909E+02 0.  0.
         24    2    1    2    0    0 -0.20587478459E+02  0.48299354726E+02 -0.20387430404E+03  0.22533546334E+03  0.80340943806E+02 0.  0.
        -11    1    4    4    0    0 -0.22323562171E+02  0.43512393964E+02 -0.21099106251E+03  0.21658462160E+03  0.00000000000E+00 0.  1.
         12    1    4    4    0    0  0.17360837111E+01  0.47869607627E+01  0.71167584651E+01  0.87508417336E+01  0.00000000000E+00 0. -1.
        -11    1    3    3    0    0 -0.18898472596E+02  0.98918454422E+01 -0.90866006845E+02  0.93336124158E+02  0.00000000000E+00 0. -1.
         11    1    3    3    0    0 -0.61119409835E+02 -0.11105404587E+02 -0.66689578272E+01  0.62477093947E+02  0.00000000000E+00 0.  1.
         -4    1    1    2    0  502  0.10060536089E+03 -0.47085795581E+02 -0.12235350316E+03  0.16525401817E+03  0.00000000000E+00 0.  1.
<scales pt_clust_5="13000.00000" pt_clust_6="13000.00000" pt_clust_7="13000.00000" pt_clust_8="13000.00000" pt_clust_9="13000.00000"></scales>
<clustering>
<clus scale="   80.341">  5  6 -1 -1</clus>
<clus scale="   91.435">  7  8 -1 -1</clus>
<clus scale="  111.079">  5  9 -1 -1</clus>
<clus scale="  121.510">  2  7  1 -1</clus>
<clus scale="  214.792">  1  5  2 -1</clus>
</clustering>
</event>
<event>
 9    2  0.6085395E-005  0.1642153E+03  0.7546771E-02  0.1195904E+00
         21   -1    0    0  501  502  0.00000000000E+00  0.00000000000E+00  0.13744510424E+03  0.13744510424E+03  0.00000000000E+00 0. -1.
          2   -1    0    0  502    0 -0.00000000000E+00 -0.00000000000E+00 -0.17919971043E+03  0.17919971043E+03  0.00000000000E+00 0. -1.
         23    2    1    2    0    0  0.13623440483E+02 -0.85288608545E+02  0.40974525210E+02  0.13276772456E+03  0.92133664262E+02 0.  0.
         24    2    1    2    0    0 -0.44888237355E+02  0.36662726457E+02 -0.31903835973E+02  0.10690193446E+03  0.83970586977E+02 0.  0.
        -13    1    4    4    0    0  0.24088557931E+02  0.18934589565E+02 -0.67703137505E+01  0.31378566785E+02  0.00000000000E+00 0.  1.
         14    1    4    4    0    0 -0.68976795286E+02  0.17728136892E+02 -0.25133522222E+02  0.75523367675E+02  0.00000000000E+00 0. -1.
        -11    1    3    3    0    0  0.39737697562E+02 -0.28885386155E+01  0.13483612115E+02  0.42062287842E+02  0.00000000000E+00 0.  1.
         11    1    3    3    0    0 -0.26114257079E+02 -0.82400069930E+02  0.27490913096E+02  0.90705436717E+02  0.00000000000E+00 0. -1.
          1    1    1    2  501    0  0.31264796873E+02  0.48625882088E+02 -0.50825295431E+02  0.76975155654E+02  0.00000000000E+00 0. -1.
<scales pt_clust_5="13000.00000" pt_clust_6="13000.00000" pt_clust_7="13000.00000" pt_clust_8="13000.00000" pt_clust_9="13000.00000"></scales>
<clustering>
<clus scale="   83.971">  5  6 -1 -1</clus>
<clus scale="   57.810">  5  9 -1 -1</clus>
<clus scale="   92.134">  7  8 -1 -1</clus>
<clus scale="  126.287">  2  7  1 -1</clus>
<clus scale="  164.215">  1  5  2 -1</clus>
</clustering>
</event>
<event>
 9    2  0.6085395E-005  0.2564762E+03  0.7546771E-02  0.1137982E+00
         21   -1    0    0  501  502  0.00000000000E+00  0.00000000000E+00  0.36067443077E+02  0.36067443077E+02  0.00000000000E+00 0. -1.
          2   -1    0    0  502    0 -0.00000000000E+00 -0.00000000000E+00 -0.12403537130E+04  0.12403537130E+04  0.00000000000E+00 0. -1.
         23    2    1    2    0    0  0.16143192120E+02  0.84404947566E+02 -0.17372696075E+03  0.21442656542E+03  0.91721847140E+02 0.  0.
         24    2    1    2    0    0  0.12142177926E+02 -0.25009176036E+01 -0.90847712873E+03  0.91228690527E+03  0.82359073789E+02 0.  0.
        -11    1    4    4    0    0 -0.23955410067E+02  0.88590808112E+01 -0.11051721498E+03  0.11343015380E+03  0.00000000000E+00 0.  1.
         12    1    4    4    0    0  0.36097587993E+02 -0.11359998415E+02 -0.79795991375E+03  0.79885675147E+03  0.00000000000E+00 0. -1.
        -13    1    3    3    0    0  0.35375951940E+02  0.21332556324E+02 -0.12715937253E+03  0.13370131622E+03  0.00000000000E+00 0. -1.
         13    1    3    3    0    0 -0.19232759820E+02  0.63072391242E+02 -0.46567588216E+02  0.80725249207E+02  0.00000000000E+00 0.  1.
          1    1    1    2  501    0 -0.28285370046E+02 -0.81904029962E+02 -0.12208218050E+03  0.14970768543E+03  0.00000000000E+00 0. -1.
<scales pt_clust_5="13000.00000" pt_clust_6="13000.00000" pt_clust_7="13000.00000" pt_clust_8="13000.00000" pt_clust_9="13000.00000"></scales>
<clustering>
<clus scale="   82.359">  5  6 -1 -1</clus>
<clus scale="   86.651">  5  9 -1 -1</clus>
<clus scale="   91.722">  7  8 -1 -1</clus>
<clus scale="  125.689">  2  7  1 -1</clus>
<clus scale="  256.476">  1  5  2 -1</clus>
</clustering>
</event>
<event>
 9    2  0.6085395E-005  0.2853425E+03  0.7546771E-02  0.1119052E+00
         21   -1    0    0  501  502  0.00000000000E+00  0.00000000000E+00  0.12904362592E+03  0.12904362592E+03  0.00000000000E+00 0.  1.
         -3   -1    0    0    0  501 -0.00000000000E+00 -0.00000000000E+00 -0.40615410489E+03  0.40615410489E+03  0.00000000000E+00 0.  1.
         23    2    1    2    0    0  0.41378220468E+02  0.10653430753E+03 -0.18501456853E+03  0.23536111724E+03  0.90015271661E+02 0.  0.
         24    2    1    2    0    0 -0.51187212435E+02  0.33176667404E+02 -0.11870051383E+03  0.15727723028E+03  0.83219548205E+02 0.  0.
        -13    1    4    4    0    0  0.19185462906E+02 -0.63084989444E+01 -0.38676630572E+02  0.43632108570E+02  0.00000000000E+00 0.  1.
         14    1    4    4    0    0 -0.70372675342E+02  0.39485166349E+02 -0.80023883261E+02  0.11364512171E+03  0.00000000000E+00 0. -1.
        -13    1    3    3    0    0 -0.18629306370E+02  0.65452658307E+02 -0.11930490525E+03  0.13734905152E+03  0.00000000000E+00 0.  1.
         13    1    3    3    0    0  0.60007526838E+02  0.41081649220E+02 -0.65709663276E+02  0.98012065725E+02  0.00000000000E+00 0. -1.
         -4    1    1    2    0  502  0.98089919672E+01 -0.13971097493E+03  0.26604603392E+02  0.14255938328E+03  0.00000000000E+00 0.  1.
<scales pt_clust_5="13000.00000" pt_clust_6="13000.00000" pt_clust_7="13000.00000" pt_clust_8="13000.00000" pt_clust_9="13000.00000"></scales>
<clustering>
<clus scale="   83.220">  5  6 -1 -1</clus>
<clus scale="   90.015">  7  8 -1 -1</clus>
<clus scale="  140.055">  5  9 -1 -1</clus>
<clus scale="  145.480">  2  7  1 -1</clus>
<clus scale="  285.342">  1  5  2 -1</clus>
</clustering>
</event>
<event>
 9    2  0.6085395E-005  0.1550627E+03  0.7546771E-02  0.1201877E+00
         21   -1    0    0  501  502  0.00000000000E+00  0.00000000000E+00  0.32563512148E+02  0.32563512148E+02  0.00000000000E+00 0.  1.
         -1   -1    0    0    0  501 -0.00000000000E+00 -0.00000000000E+00 -0.76015484692E+03  0.76015484692E+03  0.00000000000E+00 0.  1.
         23    2    1    2    0    0  0.66676693708E+02  0.67626427963E+02 -0.50187861000E+03  0.51887408410E+03  0.91263687947E+02 0.  0.
         24    2    1    2    0    0 -0.22220512213E+02 -0.19749010734E+02 -0.15731790554E+03  0.17925859713E+03  0.80628448158E+02 0.  0.
        -13    1    4    4    0    0  0.20324282450E+02 -0.35218025467E+02 -0.73717866172E+02  0.84188535846E+02  0.00000000000E+00 0.  1.
         14    1    4    4    0    0 -0.42544794663E+02  0.15469014732E+02 -0.83600039372E+02  0.95070061285E+02  0.00000000000E+00 0. -1.
        -13    1    3    3    0    0  0.27560192885E+02 -0.19385456619E+02 -0.18118087448E+03  0.18428746414E+03  0.00000000000E+00 0.  1.
         13    1    3    3    0    0  0.39116500823E+02  0.87011884581E+02 -0.32069773552E+03  0.33458661997E+03  0.00000000000E+00 0. -1.
         -2    1    1    2    0  502 -0.44456181495E+02 -0.47877417229E+02 -0.68394819226E+02  0.94585677830E+02  0.00000000000E+00 0.  1.
<scales pt_clust_5="13000.00000" pt_clust_6="13000.00000" pt_clust_7="13000.00000" pt_clust_8="13000.00000" pt_clust_9="13000.00000"></scales>
<clustering>
<clus scale="   80.628">  5  6 -1 -1</clus>
<clus scale="   65.335">  5  9 -1 -1</clus>
<clus scale="   91.264">  7  8 -1 -1</clus>
<clus scale="  131.712">  2  7  1 -1</clus>
<clus scale="  155.063">  1  5  2 -1</clus>
</clustering>
</event>
<event>
 9    2  0.6085395E-005  0.2963811E+03  0.7546771E-02  0.1142127E+00
          2   -1    0    0  502    0 -0.00000000000E+00  0.00000000000E+00  0.52509989605E+03  0.52509989605E+03  0.00000000000E+00 0. -1.
         21   -1    0    0  501  502  0.00000000000E+00 -0.00000000000E+00 -0.66416577583E+02  0.66416577583E+02  0.00000000000E+00 0. -1.
         23    2    1    2    0    0 -0.13433202279E+02 -0.12399984807E+01  0.61809294547E+02  0.96187534301E+02  0.72454567439E+02 0.  0.
         24    2    1    2    0    0 -0.10230395799E+03  0.61163383196E+00  0.34369342198E+03  0.36795680135E+03  0.82465540895E+02 0.  0.
        -13    1    4    4    0    0  0.57123281529E+01  0.20249782317E+02  0.68997561986E+02  0.72134235540E+02  0.00000000000E+00 0.  1.
         14    1    4    4    0    0 -0.10801628615E+03 -0.19638148485E+02  0.27469585999E+03  0.29582256582E+03  0.00000000000E+00 0. -1.
        -11    1    3    3    0    0 -0.40040756899E+02  0.13113410076E+02  0.26814671613E+02  0.49942470409E+02  0.00000000000E+00 0. -1.
         11    1    3    3    0    0  0.26607554620E+02 -0.14353408557E+02  0.34994622934E+02  0.46245063892E+02  0.00000000000E+00 0.  1.
          1    1    1    2  501    0  0.11573716027E+03  0.62836464874E+00  0.53180601943E+02  0.12737213798E+03  0.00000000000E+00 0. -1.
<scales pt_clust_5="13000.00000" pt_clust_6="13000.00000" pt_clust_7="13000.00000" pt_clust_8="13000.00000" pt_clust_9="13000.00000"></scales>
<clustering>
<clus scale="   72.455">  7  8 -1 -1</clus>
<clus scale="   73.700">  1  7  2 -1</clus>
<clus scale="   82.466">  5  6 -1 -1</clus>
<clus scale="  113.019">  5  9 -1 -1</clus>
<clus scale="  296.381">  2  5  1 -1</clus>
</clustering>
</event>
<event>
 9    2  0.6085395E-005  0.1032987E+04  0.7546771E-02  0.9453607E-01
         21   -1    0    0  501  502  0.00000000000E+00  0.00000000000E+00  0.24833076053E+03  0.24833076053E+03  0.00000000000E+00 0.  1.
          2   -1    0    0  502    0 -0.00000000000E+00 -0.00000000000E+00 -0.25363676212E+04  0.25363676212E+04  0.00000000000E+00 0. -1.
         23    2    1    2    0    0  0.47048639129E+03  0.24673312069E+03 -0.60783989956E+03  0.81235869799E+03  0.90678737674E+02 0.  0.
         24    2    1    2    0    0  0.18046275946E+03  0.11130864107E+03 -0.14930609130E+03  0.27070648141E+03  0.77674120854E+02 0.  0.
        -11    1    4    4    0    0  0.11714601981E+03  0.29433839679E+02 -0.64693728082E+02  0.13702123678E+03  0.00000000000E+00 0.  1.
         12    1    4    4    0    0  0.63316739646E+02  0.81874801391E+02 -0.84612363216E+02  0.13368524463E+03  0.00000000000E+00 0. -1.
        -11    1    3    3    0    0  0.43348698093E+03  0.25152284146E+03 -0.57381709154E+03  0.76186662675E+03  0.00000000000E+00 0.  1.
         11    1    3    3    0    0  0.36999410360E+02 -0.47897207789E+01 -0.34022808020E+02  0.50492071236E+02  0.00000000000E+00 0. -1.
          1    1    1    2  501    0 -0.65094915074E+03 -0.35804176176E+03 -0.15308908698E+04  0.17016332023E+04  0.00000000000E+00 0. -1.
<scales pt_clust_5="13000.00000" pt_clust_6="13000.00000" pt_clust_7="13000.00000" pt_clust_8="13000.00000" pt_clust_9="13000.00000"></scales>
<clustering>
<clus scale="   77.674">  5  6 -1 -1</clus>
<clus scale="   90.679">  7  8 -1 -1</clus>
<clus scale="  538.941">  2  7  1 -1</clus>
<clus scale="  273.005">  5  9 -1 -1</clus>
<clus scale=" 1032.987">  1  5  2 -1</clus>
</clustering>
</event>
<event>
 9    2  0.6085395E-005  0.3252782E+03  0.7546771E-02  0.1083228E+00
         -1   -1    0    0    0  501 -0.00000000000E+00  0.00000000000E+00  0.98474398552E+02  0.98474398552E+02  0.00000000000E+00 0.  1.
         21   -1    0    0  501  502  0.00000000000E+00 -0.00000000000E+00 -0.98093196458E+03  0.98093196458E+03  0.00000000000E+00 0.  1.
         23    2    1    2    0    0 -0.23034467359E+03 -0.16478452690E+02 -0.18454742995E+03  0.30941645732E+03  0.91381519503E+02 0.  0.
         24    2    1    2    0    0  0.11052808807E+02  0.48923827269E+02 -0.29672000441E+03  0.31162853523E+03  0.80956021966E+02 0.  0.
        -13    1    4    4    0    0 -0.29320254218E+01  0.54303193510E+02 -0.29026171763E+03  0.29531220483E+03  0.00000000000E+00 0.  1.
         14    1    4    4    0    0  0.13984834229E+02 -0.53793662415E+01 -0.64582867826E+01  0.16316330401E+02  0.00000000000E+00 0. -1.
        -13    1    3    3    0    0 -0.22605388877E+03  0.36639976724E+01 -0.17818848916E+03  0.28786268111E+03  0.00000000000E+00 0.  1.
         13    1    3    3    0    0 -0.42907848196E+01 -0.20142450362E+02 -0.63589407856E+01  0.21553776209E+02  0.00000000000E+00 0. -1.
         -2    1    1    2    0  502  0.21929186479E+03 -0.32445374579E+02 -0.40119013167E+03  0.45836137058E+03  0.00000000000E+00 0.  1.
<scales pt_clust_5="13000.00000" pt_clust_6="13000.00000" pt_clust_7="13000.00000" pt_clust_8="13000.00000" pt_clust_9="13000.00000"></scales>
<clustering>
<clus scale="   80.956">  5  6 -1 -1</clus>
<clus scale="   91.382">  7  8 -1 -1</clus>
<clus scale="  221.679">  5  9 -1 -1</clus>
<clus scale="  248.356">  1  7  2 -1</clus>
<clus scale="  325.278">  2  5  1 -1</clus>
</clustering>
</event>
<event>
 9    2  0.6085395E-005  0.2471641E+03  0.7546771E-02  0.1134211E+00
         21   -1    0    0  501  502  0.00000000000E+00  0.00000000000E+00  0.44116423332E+03  0.44116423332E+03  0.00000000000E+00 0. -1.
          2   -1    0    0  502    0 -0.00000000000E+00 -0.00000000000E+00 -0.95291377390E+02  0.95291377390E+02  0.00000000000E+00 0. -1.
         23    2    1    2    0    0 -0.97665176125E+02  0.72795136441E+02  0.18888380213E+03  0.24364909550E+03  0.94075355488E+02 0.  0.
         24    2    1    2    0    0  0.36855166622E+02  0.12128072268E+02  0.16502349957E+03  0.18804793107E+03  0.81387195105E+02 0.  0.
        -13    1    4    4    0    0  0.86155964798E+01 -0.34272189563E+02  0.74962778251E+02  0.82874782673E+02  0.00000000000E+00 0.  1.
         14    1    4    4    0    0  0.28239570142E+02  0.46400261831E+02  0.90060721318E+02  0.10517314840E+03  0.00000000000E+00 0. -1.
        -13    1    3    3    0    0 -0.11607956328E+02 -0.21989104445E+02  0.41954843212E+02  0.48769603580E+02  0.00000000000E+00 0.  1.
         13    1    3    3    0    0 -0.86057219797E+02  0.94784240886E+02  0.14692895892E+03  0.19487949192E+03  0.00000000000E+00 0. -1.
          1    1    1    2  501    0  0.60810009503E+02 -0.84923208709E+02 -0.80344457700E+01  0.10475858415E+03  0.00000000000E+00 0. -1.
<scales pt_clust_5="13000.00000" pt_clust_6="13000.00000" pt_clust_7="13000.00000" pt_clust_8="13000.00000" pt_clust_9="13000.00000"></scales>
<clustering>
<clus scale="   81.387">  5  6 -1 -1</clus>
<clus scale="   94.075">  7  8 -1 -1</clus>
<clus scale="  104.450">  5  9 -1 -1</clus>
<clus scale="  153.908">  2  7  1 -1</clus>
<clus scale="  247.164">  1  5  2 -1</clus>
</clustering>
</event>
<event>
 9    2  0.6085395E-005  0.5263199E+03  0.7546771E-02  0.1017420E+00
         21   -1    0    0  501  502  0.00000000000E+00  0.00000000000E+00  0.11193320738E+04  0.11193320738E+04  0.00000000000E+00 0.  1.
         -1   -1    0    0    0  501 -0.00000000000E+00 -0.00000000000E+00 -0.23267657593E+03  0.23267657593E+03  0.00000000000E+00 0.  1.
         23    2    1    2    0    0 -0.28660078302E+03  0.23802364747E+03  0.69133802376E+03  0.79061616156E+03  0.91270949579E+02 0.  0.
         24    2    1    2    0    0  0.20556888900E+03 -0.33287574599E+03  0.16801174532E+03  0.43368700173E+03  0.82411397965E+02 0.  0.
        -11    1    4    4    0    0  0.19410007489E+03 -0.33407367007E+03  0.15499540746E+03  0.41629752875E+03  0.00000000000E+00 0.  1.
         12    1    4    4    0    0  0.11468814116E+02  0.11979240878E+01  0.13016337864E+02  0.17389472986E+02  0.00000000000E+00 0. -1.
        -13    1    3    3    0    0 -0.32450253295E+02 -0.36725317954E+01  0.66028277121E+02  0.73663015199E+02  0.00000000000E+00 0. -1.
         13    1    3    3    0    0 -0.25415052973E+03  0.24169617927E+03  0.62530974664E+03  0.71695314636E+03  0.00000000000E+00 0.  1.
         -2    1    1    2    0  502  0.81031894020E+02  0.94852098510E+02  0.27305728791E+02  0.12770548643E+03  0.00000000000E+00 0.  1.
<scales pt_clust_5="13000.00000" pt_clust_6="13000.00000" pt_clust_7="13000.00000" pt_clust_8="13000.00000" pt_clust_9="13000.00000"></scales>
<clustering>
<clus scale="   82.411">  5  6 -1 -1</clus>
<clus scale="   91.271">  7  8 -1 -1</clus>
<clus scale="  124.752">  5  9 -1 -1</clus>
<clus scale="  383.570">  2  7  1 -1</clus>
<clus scale="  526.320">  1  5  2 -1</clus>
</clustering>
</event>
<event>
 9    2  0.6085395E-005  0.4214068E+03  0.7546771E-02  0.1086088E+00
         21   -1    0    0  501  502  0.00000000000E+00  0.00000000000E+00  0.10815896289E+03  0.10815896289E+03  0.00000000000E+00 0. -1.
          2   -1    0    0  502    0 -0.00000000000E+00 -0.00000000000E+00 -0.82605005598E+03  0.82605005598E+03  0.00000000000E+00 0. -1.
         23    2    1    2    0    0 -0.35603792454E+02 -0.45419460168E+02 -0.37883373876E+03  0.39333604619E+03  0.88699978606E+02 0.  0.
         24    2    1    2    0    0  0.54270995306E+01 -0.15549863168E+03 -0.27858910124E+03  0.32889391226E+03  0.79687140322E+02 0.  0.
        -11    1    4    4    0    0 -0.25718093138E+02 -0.28438577330E+02 -0.10317193607E+03  0.11006644079E+03  0.00000000000E+00 0.  1.
         12    1    4    4    0    0  0.31145192669E+02 -0.12706005435E+03 -0.17541716517E+03  0.21882747147E+03  0.00000000000E+00 0. -1.
        -11    1    3    3    0    0  0.23632513071E+02 -0.39710972781E+02 -0.15715239937E+03  0.16380578030E+03  0.00000000000E+00 0.  1.
         11    1    3    3    0    0 -0.59236305525E+02 -0.57084873870E+01 -0.22168133940E+03  0.22953026589E+03  0.00000000000E+00 0. -1.
          1    1    1    2  501    0  0.30176692924E+02  0.20091809184E+03 -0.60468253085E+02  0.21197906042E+03  0.00000000000E+00 0. -1.
<scales pt_clust_5="13000.00000" pt_clust_6="13000.00000" pt_clust_7="13000.00000" pt_clust_8="13000.00000" pt_clust_9="13000.00000"></scales>
<clustering>
<clus scale="   79.687">  5  6 -1 -1</clus>
<clus scale="   88.700">  7  8 -1 -1</clus>
<clus scale="  105.822">  2  7  1 -1</clus>
<clus scale="  187.834">  5  9 -1 -1</clus>
<clus scale="  421.407">  1  5  2 -1</clus>
</clustering>
</event>
<event>
 9    2  0.6085395E-005  0.1324979E+04  0.7546771E-02  0.9704937E-01
         21   -1    0    0  501  502  0.00000000000E+00  0.00000000000E+00  0.55503132401E+03  0.55503132401E+03  0.00000000000E+00 0.  1.
          2   -1    0    0  502    0 -0.00000000000E+00 -0.00000000000E+00 -0.97383592374E+03  0.97383592374E+03  0.00000000000E+00 0. -1.
         23    2    1    2    0    0  0.53209298182E+02  0.21438207184E+02  0.56155245981E+02  0.12133217838E+03  0.90979446688E+02 0.  0.
         24    2    1    2    0    0  0.31999933552E+03  0.52736748545E+03 -0.61684939151E+02  0.62569843621E+03  0.84719902707E+02 0.  0.
        -13    1    4    4    0    0  0.22705400273E+03  0.36562044077E+03 -0.38988105884E+01  0.43040333129E+03  0.00000000000E+00 0.  1.
         14    1    4    4    0    0  0.92945332794E+02  0.16174704468E+03 -0.57786128563E+02  0.19529510492E+03  0.00000000000E+00 0. -1.
        -13    1    3    3    0    0  0.79080847701E+02  0.13539340290E+02  0.45680421185E+02  0.92324401370E+02  0.00000000000E+00 0.  1.
         13    1    3    3    0    0 -0.25871549519E+02  0.78988668940E+01  0.10474824796E+02  0.29007777013E+02  0.00000000000E+00 0. -1.
          1    1    1    2  501    0 -0.37320863371E+03 -0.54880569263E+03 -0.41327490656E+03  0.78183663315E+03  0.00000000000E+00 0. -1.
<scales pt_clust_5="13000.00000" pt_clust_6="13000.00000" pt_clust_7="13000.00000" pt_clust_8="13000.00000" pt_clust_9="13000.00000"></scales>
<clustering>
<clus scale="   84.720">  5  6 -1 -1</clus>
<clus scale="   90.979">  7  8 -1 -1</clus>
<clus scale="  107.555">  2  7  1 -1</clus>
<clus scale="  633.756">  5  9 -1 -1</clus>
<clus scale=" 1324.979">  1  5  2 -1</clus>
</clustering>
</event>
<event>
 9    2  0.6085395E-005  0.6446254E+03  0.7546771E-02  0.1042120E+00
          2   -1    0    0  502    0 -0.00000000000E+00  0.00000000000E+00  0.32035846546E+03  0.32035846546E+03  0.00000000000E+00 0. -1.
         21   -1    0    0  501  502  0.00000000000E+00 -0.00000000000E+00 -0.43664874296E+03  0.43664874296E+03  0.00000000000E+00 0. -1.
         23    2    1    2    0    0 -0.42841237692E+02  0.20416387554E+02  0.77079364180E+01  0.10056414399E+03  0.88326294185E+02 0.  0.
         24    2    1    2    0    0 -0.22827674017E+03  0.67823163408E+02  0.12203517183E+03  0.27984831782E+03  0.81928299326E+02 0.  0.
        -13    1    4    4    0    0 -0.17288785566E+03  0.12365432012E+02  0.88147764309E+02  0.19445601790E+03  0.00000000000E+00 0.  1.
         14    1    4    4    0    0 -0.55388884503E+02  0.55457731396E+02  0.33887407518E+02  0.85392299925E+02  0.00000000000E+00 0. -1.
        -13    1    3    3    0    0 -0.82018964063E+00  0.32872779646E+02 -0.28653900836E+02  0.43615804313E+02  0.00000000000E+00 0.  1.
         13    1    3    3    0    0 -0.42021048051E+02 -0.12456392092E+02  0.36361837254E+02  0.56948339676E+02  0.00000000000E+00 0. -1.
          1    1    1    2  501    0  0.27111797786E+03 -0.88239550962E+02 -0.24603338574E+03  0.37659474661E+03  0.00000000000E+00 0. -1.
<scales pt_clust_5="13000.00000" pt_clust_6="13000.00000" pt_clust_7="13000.00000" pt_clust_8="13000.00000" pt_clust_9="13000.00000"></scales>
<clustering>
<clus scale="   81.928">  5  6 -1 -1</clus>
<clus scale="   88.326">  7  8 -1 -1</clus>
<clus scale="  100.268">  1  7  2 -1</clus>
<clus scale="  273.582">  5  9 -1 -1</clus>
<clus scale="  644.625">  2  5  1 -1</clus>
</clustering>
</event>
<event>
 9    2  0.6085395E-005  0.2998716E+03  0.7546771E-02  0.1128014E+00
         21   -1    0    0  501  502  0.00000000000E+00  0.00000000000E+00  0.21632387561E+03  0.21632387561E+03  0.00000000000E+00 0.  1.
         -1   -1    0    0    0  501 -0.00000000000E+00 -0.00000000000E+00 -0.34180978341E+03  0.34180978341E+03  0.00000000000E+00 0.  1.
         23    2    1    2    0    0  0.18102894244E+02  0.34475099223E+02 -0.22158904326E+03  0.24323873241E+03  0.92450687443E+02 0.  0.
         24    2    1    2    0    0 -0.68709511711E+02  0.89054274032E+02  0.11520886291E+03  0.18004106270E+03  0.80560793455E+02 0.  0.
        -11    1    4    4    0    0 -0.70258090904E+02  0.84829121570E+02  0.61516488129E+02  0.12616044355E+03  0.00000000000E+00 0.  1.
         12    1    4    4    0    0  0.15485791929E+01  0.42251524622E+01  0.53692374781E+02  0.53880619155E+02  0.00000000000E+00 0. -1.
        -11    1    3    3    0    0 -0.35056155983E+02  0.29734393893E+01 -0.52367059776E+02  0.63087909806E+02  0.00000000000E+00 0. -1.
         11    1    3    3    0    0  0.53159050227E+02  0.31501659833E+02 -0.16922198348E+03  0.18015082261E+03  0.00000000000E+00 0.  1.
         -2    1    1    2    0  502  0.50606617467E+02 -0.12352937325E+03 -0.19105727461E+02  0.13485386390E+03  0.00000000000E+00 0.  1.
<scales pt_clust_5="13000.00000" pt_clust_6="13000.00000" pt_clust_7="13000.00000" pt_clust_8="13000.00000" pt_clust_9="13000.00000"></scales>
<clustering>
<clus scale="   80.561">  5  6 -1 -1</clus>
<clus scale="   92.451">  7  8 -1 -1</clus>
<clus scale="  100.316">  2  7  1 -1</clus>
<clus scale="  117.759">  5  9 -1 -1</clus>
<clus scale="  299.872">  1  5  2 -1</clus>
</clustering>
</event>
<event>
 9    2  0.6085395E-005  0.2329028E+03  0.7546771E-02  0.1148566E+00
          2   -1    0    0  502    0 -0.00000000000E+00  0.00000000000E+00  0.94613145746E+03  0.94613145746E+03  0.00000000000E+00 0. -1.
         21   -1    0    0  501  502  0.00000000000E+00 -0.00000000000E+00 -0.39224837679E+02  0.39224837679E+02  0.00000000000E+00 0.  1.
         23    2    1    2    0    0  0.93705952831E+02  0.16060914296E+02  0.49829538886E+03  0.51502998289E+03  0.88987809017E+02 0.  0.
         24    2    1    2    0    0  0.36765238647E+02  0.24180398302E+02  0.21174653056E+03  0.23074792154E+03  0.80446476965E+02 0.  0.
        -13    1    4    4    0    0  0.95290279860E+01  0.19018566100E+02  0.46117485734E+01  0.21766406588E+02  0.00000000000E+00 0.  1.
         14    1    4    4    0    0  0.27236210662E+02  0.51618322014E+01  0.20713478199E+03  0.20898151495E+03  0.00000000000E+00 0. -1.
        -11    1    3    3    0    0  0.17722192209E+02 -0.23405855789E+02  0.45076078134E+02  0.53793707828E+02  0.00000000000E+00 0.  1.
         11    1    3    3    0    0  0.75983760623E+02  0.39466770085E+02  0.45321931072E+03  0.46123627506E+03  0.00000000000E+00 0. -1.
          1    1    1    2  501    0 -0.13047119148E+03 -0.40241312597E+02  0.19686470036E+03  0.23957839070E+03  0.00000000000E+00 0. -1.
<scales pt_clust_5="13000.00000" pt_clust_6="13000.00000" pt_clust_7="13000.00000" pt_clust_8="13000.00000" pt_clust_9="13000.00000"></scales>
<clustering>
<clus scale="   80.446">  5  6 -1 -1</clus>
<clus scale="   88.988">  7  8 -1 -1</clus>
<clus scale="  130.221">  1  7  2 -1</clus>
<clus scale="   89.929">  5  9 -1 -1</clus>
<clus scale="  232.903">  2  5  1 -1</clus>
</clustering>
</event>
<event>
 9    2  0.6085395E-005  0.1170744E+03  0.7546771E-02  0.1255649E+00
         -1   -1    0    0    0  501 -0.00000000000E+00  0.00000000000E+00  0.55868090561E+02  0.55868090561E+02  0.00000000000E+00 0.  1.
         21   -1    0    0  501  502  0.00000000000E+00 -0.00000000000E+00 -0.23137253758E+03  0.23137253758E+03  0.00000000000E+00 0.  1.
         23    2    1    2    0    0  0.43047433333E+02 -0.70971028224E+01 -0.12319932607E+03  0.15901335106E+03  0.90574397521E+02 0.  0.
         24    2    1    2    0    0 -0.23221361577E+02  0.21749703850E+02 -0.62503507429E+02  0.10154809185E+03  0.73437356064E+02 0.  0.
        -11    1    4    4    0    0 -0.39697265417E+02  0.33269755717E+02 -0.21889611826E+02  0.56230815688E+02  0.00000000000E+00 0.  1.
         12    1    4    4    0    0  0.16475903840E+02 -0.11520051867E+02 -0.40613895603E+02  0.45317276159E+02  0.00000000000E+00 0. -1.
        -13    1    3    3    0    0  0.64956019657E+02  0.15120562906E+02 -0.65842247546E+02  0.93718287832E+02  0.00000000000E+00 0. -1.
         13    1    3    3    0    0 -0.21908586324E+02 -0.22217665729E+02 -0.57357078522E+02  0.65295063227E+02  0.00000000000E+00 0.  1.
         -2    1    1    2    0  502 -0.19826071756E+02 -0.14652601027E+02  0.10198386477E+02  0.26679185237E+02  0.00000000000E+00 0.  1.
<scales pt_clust_5="13000.00000" pt_clust_6="13000.00000" pt_clust_7="13000.00000" pt_clust_8="13000.00000" pt_clust_9="13000.00000"></scales>
<clustering>
<clus scale="   73.437">  5  6 -1 -1</clus>
<clus scale="   24.653">  5  9 -1 -1</clus>
<clus scale="   90.574">  7  8 -1 -1</clus>
<clus scale="  100.534">  1  7  2 -1</clus>
<clus scale="  117.074">  2  5  1 -1</clus>
</clustering>
</event>
<event>
 9    2  0.6085395E-005  0.2910822E+03  0.7546771E-02  0.1120892E+00
         21   -1    0    0  501  502  0.00000000000E+00  0.00000000000E+00  0.44841715503E+03  0.44841715503E+03  0.00000000000E+00 0. -1.
          2   -1    0    0  502    0 -0.00000000000E+00 -0.00000000000E+00 -0.99697075398E+02  0.99697075398E+02  0.00000000000E+00 0. -1.
         23    2    1    2    0    0  0.72437563952E+02 -0.57669437247E+02  0.12512528011E+03  0.18106725880E+03  0.92498928767E+02 0.  0.
         24    2    1    2    0    0  0.81313365896E+02 -0.18652836540E+02  0.11415473017E+03  0.16347495320E+03  0.82054653262E+02 0.  0.
        -11    1    4    4    0    0  0.58793412827E+02 -0.17757235616E+02  0.16979521699E+02  0.63720396779E+02  0.00000000000E+00 0.  1.
         12    1    4    4    0    0  0.22519953068E+02 -0.89560092428E+00  0.97175208466E+02  0.99754556425E+02  0.00000000000E+00 0. -1.
        -13    1    3    3    0    0 -0.21118678566E+02 -0.22672670073E+02  0.28917309205E+02  0.42382299658E+02  0.00000000000E+00 0.  1.
         13    1    3    3    0    0  0.93556242517E+02 -0.34996767174E+02  0.96207970906E+02  0.13868495914E+03  0.00000000000E+00 0. -1.
          1    1    1    2  501    0 -0.15375092985E+03  0.76322273787E+02  0.10944006936E+03  0.20357201843E+03  0.00000000000E+00 0. -1.
<scales pt_clust_5="13000.00000" pt_clust_6="13000.00000" pt_clust_7="13000.00000" pt_clust_8="13000.00000" pt_clust_9="13000.00000"></scales>
<clustering>
<clus scale="   82.055">  5  6 -1 -1</clus>
<clus scale="   92.499">  7  8 -1 -1</clus>
<clus scale="  130.878">  2  7  1 -1</clus>
<clus scale="  112.974">  5  9 -1 -1</clus>
<clus scale="  291.082">  1  5  2 -1</clus>
</clustering>
</event>
<event>
 9    2  0.6085395E-005  0.2187898E+03  0.7546771E-02  0.1158287E+00
          2   -1    0    0  502    0 -0.00000000000E+00  0.00000000000E+00  0.61322314224E+03  0.61322314224E+03  0.00000000000E+00 0. -1.
         21   -1    0    0  501  502  0.00000000000E+00 -0.00000000000E+00 -0.52187610863E+02  0.52187610863E+02  0.00000000000E+00 0. -1.
         23    2    1    2    0    0  0.13901020366E+01 -0.84495865302E+02  0.29893446905E+03  0.32399320766E+03  0.92023356749E+02 0.  0.
         24    2    1    2    0    0  0.12105058713E+02 -0.39321743935E+02  0.86616452695E+02  0.12622514795E+03  0.82083165781E+02 0.  0.
        -11    1    4    4    0    0  0.18303184319E+02  0.18702934841E+02  0.62457890584E+01  0.26903832605E+02  0.00000000000E+00 0.  1.
         12    1    4    4    0    0 -0.61981256067E+01 -0.58024678776E+02  0.80370663637E+02  0.99321315343E+02  0.00000000000E+00 0. -1.
        -11    1    3    3    0    0 -0.39095642088E+02 -0.59193936837E+02  0.22557525746E+03  0.23646688598E+03  0.00000000000E+00 0.  1.
         11    1    3    3    0    0  0.40485744124E+02 -0.25301928465E+02  0.73359211592E+02  0.87526321680E+02  0.00000000000E+00 0. -1.
          1    1    1    2  501    0 -0.13495160749E+02  0.12381760924E+03  0.17548460963E+03  0.21519239749E+03  0.00000000000E+00 0. -1.
<scales pt_clust_5="13000.00000" pt_clust_6="13000.00000" pt_clust_7="13000.00000" pt_clust_8="13000.00000" pt_clust_9="13000.00000"></scales>
<clustering>
<clus scale="   82.083">  5  6 -1 -1</clus>
<clus scale="   92.023">  7  8 -1 -1</clus>
<clus scale="  124.551">  5  9 -1 -1</clus>
<clus scale="  124.939">  1  7  2 -1</clus>
<clus scale="  218.790">  2  5  1 -1</clus>
</clustering>
</event>
<event>
 9    2  0.6085395E-005  0.3012392E+03  0.7546771E-02  0.1130506E+00
          2   -1    0    0  502    0 -0.00000000000E+00  0.00000000000E+00  0.11700620553E+04  0.11700620553E+04  0.00000000000E+00 0. -1.
         21   -1    0    0  501  502  0.00000000000E+00 -0.00000000000E+00 -0.34452441101E+02  0.34452441101E+02  0.00000000000E+00 0. -1.
         23    2    1    2    0    0  0.27562505251E+00 -0.21268107669E+02  0.37612691830E+03  0.38747163647E+03  0.90611268757E+02 0.  0.
         24    2    1    2    0    0 -0.12324456709E+03 -0.88801447526E-01  0.58020956237E+03  0.59860217079E+03  0.80574136066E+02 0.  0.
        -13    1    4    4    0    0 -0.42245105329E+02 -0.36550282630E+02  0.28040324361E+03  0.28591353782E+03  0.00000000000E+00 0.  1.
         14    1    4    4    0    0 -0.80999461757E+02  0.36461481182E+02  0.29980631876E+03  0.31268863296E+03  0.00000000000E+00 0. -1.
        -13    1    3    3    0    0 -0.39740839413E+02  0.10879443032E+02  0.18845385971E+03  0.19290555679E+03  0.00000000000E+00 0.  1.
         13    1    3    3    0    0  0.40016464465E+02 -0.32147550701E+02  0.18767305859E+03  0.19456607968E+03  0.00000000000E+00 0. -1.
          1    1    1    2  501    0  0.12296894203E+03  0.21356909117E+02  0.17927313356E+03  0.21844068918E+03  0.00000000000E+00 0. -1.
<scales pt_clust_5="13000.00000" pt_clust_6="13000.00000" pt_clust_7="13000.00000" pt_clust_8="13000.00000" pt_clust_9="13000.00000"></scales>
<clustering>
<clus scale="   80.574">  5  6 -1 -1</clus>
<clus scale="   90.611">  7  8 -1 -1</clus>
<clus scale="   93.074">  1  7  2 -1</clus>
<clus scale="  124.073">  5  9 -1 -1</clus>
<clus scale="  301.239">  2  5  1 -1</clus>
</clustering>
</event>
<event>
 9    2  0.6085395E-005  0.1499728E+03  0.7546771E-02  0.1214094E+00
         -3   -1    0    0    0  501 -0.00000000000E+00  0.00000000000E+00  0.19938473809E+03  0.19938473809E+03  0.00000000000E+00 0.  1.
         21   -1    0    0  501  502  0.00000000000E+00 -0.00000000000E+00 -0.10381596160E+03  0.10381596160E+03  0.00000000000E+00 0.  1.
         23    2    1    2    0    0  0.25188829185E+02  0.39580968998E+02  0.10415332309E+03  0.15298243082E+03  0.10175745283E+03 0.  0.
         24    2    1    2    0    0 -0.53246340617E+01 -0.50886243318E+02 -0.45967812675E+02  0.10640155908E+03  0.81181835932E+02 0.  0.
        -11    1    4    4    0    0 -0.13302126960E+01 -0.30629947876E+02 -0.68979127301E+02  0.75485648807E+02  0.00000000000E+00 0.  1.
         12    1    4    4    0    0 -0.39944213657E+01 -0.20256295442E+02  0.23011314626E+02  0.30915910271E+02  0.00000000000E+00 0. -1.
        -11    1    3    3    0    0  0.36774995738E+01  0.54735960983E+02  0.11267735618E+03  0.12532252800E+03  0.00000000000E+00 0.  1.
         11    1    3    3    0    0  0.21511329611E+02 -0.15154991985E+02 -0.85240330925E+01  0.27659902817E+02  0.00000000000E+00 0. -1.
         -4    1    1    2    0  502 -0.19864195123E+02  0.11305274320E+02  0.37383266071E+02  0.43816709797E+02  0.00000000000E+00 0.  1.
<scales pt_clust_5="13000.00000" pt_clust_6="13000.00000" pt_clust_7="13000.00000" pt_clust_8="13000.00000" pt_clust_9="13000.00000"></scales>
<clustering>
<clus scale="   81.182">  5  6 -1 -1</clus>
<clus scale="   22.856">  5  9 -1 -1</clus>
<clus scale="  101.757">  7  8 -1 -1</clus>
<clus scale="  112.052">  1  7  2 -1</clus>
<clus scale="  149.973">  2  5  1 -1</clus>
</clustering>
</event>
<event>
 9    2  0.6085395E-005  0.5138717E+03  0.7546771E-02  0.1054926E+00
         -1   -1    0    0    0  501 -0.00000000000E+00  0.00000000000E+00  0.49788931155E+03  0.49788931155E+03  0.00000000000E+00 0.  1.
         21   -1    0    0  501  502  0.00000000000E+00 -0.00000000000E+00 -0.24612069600E+03  0.24612069600E+03  0.00000000000E+00 0.  1.
         23    2    1    2    0    0  0.78202290787E+02 -0.66488440876E+02 -0.52390183376E+02  0.14686953174E+03  0.91047333767E+02 0.  0.
         24    2    1    2    0    0  0.14128899809E+03 -0.74668923394E+02  0.28442265643E+03  0.33543196868E+03  0.77976464517E+02 0.  0.
        -11    1    4    4    0    0  0.85381229394E+02 -0.64636295851E+02  0.24168958951E+03  0.26435140013E+03  0.00000000000E+00 0.  1.
         12    1    4    4    0    0  0.55907768701E+02 -0.10032627544E+02  0.42733066913E+02  0.71080568543E+02  0.00000000000E+00 0. -1.
        -11    1    3    3    0    0 -0.87133710590E+01 -0.31059569462E+02 -0.41228710243E+02  0.52349080590E+02  0.00000000000E+00 0.  1.
         11    1    3    3    0    0  0.86915661846E+02 -0.35428871414E+02 -0.11161473134E+02  0.94520451154E+02  0.00000000000E+00 0. -1.
         -2    1    1    2    0  502 -0.21949128888E+03  0.14115736427E+03  0.19736142507E+02  0.26170850713E+03  0.00000000000E+00 0.  1.
<scales pt_clust_5="13000.00000" pt_clust_6="13000.00000" pt_clust_7="13000.00000" pt_clust_8="13000.00000" pt_clust_9="13000.00000"></scales>
<clustering>
<clus scale="   77.976">  5  6 -1 -1</clus>
<clus scale="   91.047">  7  8 -1 -1</clus>
<clus scale="  137.208">  1  7  2 -1</clus>
<clus scale="  229.233">  5  9 -1 -1</clus>
<clus scale="  513.872">  2  5  1 -1</clus>
</clustering>
</event>
<event>
 9    2  0.6085395E-005  0.2001102E+03  0.7546771E-02  0.1176920E+00
         21   -1    0    0  501  502  0.00000000000E+00  0.00000000000E+00  0.73008940026E+02  0.73008940026E+02  0.00000000000E+00 0.  1.
          4   -1    0    0  502    0 -0.00000000000E+00 -0.00000000000E+00 -0.50055644765E+03  0.50055644765E+03  0.00000000000E+00 0. -1.
         23    2    1    2    0    0  0.71410246662E+01 -0.55121851794E+02 -0.33794688613E+03  0.35431130369E+03  0.90768878480E+02 0.  0.
         24    2    1    2    0    0 -0.53279945139E+02  0.20744262661E+02  0.11744764742E+02  0.10271436574E+03  0.84517598424E+02 0.  0.
        -11    1    4    4    0    0 -0.10753705825E+02  0.49087095466E+02  0.11758587571E+02  0.51608618582E+02  0.00000000000E+00 0.  1.
         12    1    4    4    0    0 -0.42526239315E+02 -0.28342832805E+02 -0.13822828879E-01  0.51105747159E+02  0.00000000000E+00 0. -1.
        -11    1    3    3    0    0 -0.27069836228E+02  0.11162130340E+02 -0.63809337893E+02  0.70206842897E+02  0.00000000000E+00 0.  1.
         11    1    3    3    0    0  0.34210860894E+02 -0.66283982133E+02 -0.27413754824E+03  0.28410446079E+03  0.00000000000E+00 0. -1.
          3    1    1    2  501    0  0.46138920473E+02  0.34377589133E+02 -0.10134538624E+03  0.11653971824E+03  0.00000000000E+00 0. -1.
<scales pt_clust_5="13000.00000" pt_clust_6="13000.00000" pt_clust_7="13000.00000" pt_clust_8="13000.00000" pt_clust_9="13000.00000"></scales>
<clustering>
<clus scale="   84.518">  5  6 -1 -1</clus>
<clus scale="   57.538">  5  9 -1 -1</clus>
<clus scale="   90.769">  7  8 -1 -1</clus>
<clus scale="  106.435">  2  7  1 -1</clus>
<clus scale="  200.110">  1  5  2 -1</clus>
</clustering>
</event>
<event>
 9    2  0.6085395E-005  0.5961542E+03  0.7546771E-02  0.1052831E+00
         21   -1    0    0  501  502  0.00000000000E+00  0.00000000000E+00  0.69485979255E+02  0.69485979255E+02  0.00000000000E+00 0. -1.
          2   -1    0    0  502    0 -0.00000000000E+00 -0.00000000000E+00 -0.17246507784E+04  0.17246507784E+04  0.00000000000E+00 0. -1.
         23    2    1    2    0    0  0.12027230180E+00  0.19242138799E+02 -0.17212741666E+03  0.19576269207E+03  0.91240942940E+02 0.  0.
         24    2    1    2    0    0  0.26202517537E+03  0.46963595886E+02 -0.43683376804E+03  0.51779762779E+03  0.80174001890E+02 0.  0.
        -11    1    4    4    0    0  0.13014905209E+03  0.38353882425E+02 -0.29047286163E+03  0.32059987430E+03  0.00000000000E+00 0.  1.
         12    1    4    4    0    0  0.13187612328E+03  0.86097134604E+01 -0.14636090641E+03  0.19719775349E+03  0.00000000000E+00 0. -1.
        -13    1    3    3    0    0  0.23077106746E+02 -0.20794235146E+02 -0.12868616673E+03  0.13238233485E+03  0.00000000000E+00 0.  1.
         13    1    3    3    0    0 -0.22956834444E+02  0.40036373945E+02 -0.43441249930E+02  0.63380357224E+02  0.00000000000E+00 0. -1.
          1    1    1    2  501    0 -0.26214544767E+03 -0.66205734685E+02 -0.10462036144E+04  0.10805764378E+04  0.00000000000E+00 0. -1.
<scales pt_clust_5="13000.00000" pt_clust_6="13000.00000" pt_clust_7="13000.00000" pt_clust_8="13000.00000" pt_clust_9="13000.00000"></scales>
<clustering>
<clus scale="   80.174">  5  6 -1 -1</clus>
<clus scale="   91.241">  7  8 -1 -1</clus>
<clus scale="   93.248">  2  7  1 -1</clus>
<clus scale="  267.353">  5  9 -1 -1</clus>
<clus scale="  596.154">  1  5  2 -1</clus>
</clustering>
</event>
<event>
 9    2  0.6085395E-005  0.5141869E+03  0.7546771E-02  0.1048170E+00
          2   -1    0    0  502    0 -0.00000000000E+00  0.00000000000E+00  0.22307953298E+04  0.22307953298E+04  0.00000000000E+00 0. -1.
         21   -1    0    0  501  502  0.00000000000E+00 -0.00000000000E+00 -0.52487290223E+02  0.52487290223E+02  0.00000000000E+00 0. -1.
         23    2    1    2    0    0  0.63817130867E+02  0.12308576109E+03  0.42969073568E+03  0.46063326401E+03  0.91247711228E+02 0.  0.
         24    2    1    2    0    0  0.14903129645E+02  0.13419142032E+03  0.21309134504E+03  0.26373037230E+03  0.76917796243E+02 0.  0.
        -11    1    4    4    0    0 -0.14391873424E+01  0.13356175056E+03  0.20684680259E+03  0.24622431281E+03  0.00000000000E+00 0.  1.
         12    1    4    4    0    0  0.16342316988E+02  0.62966975640E+00  0.62445424518E+01  0.17506059493E+02  0.00000000000E+00 0. -1.
        -13    1    3    3    0    0  0.38731563783E+01  0.36591003615E+02  0.30465499527E+02  0.47770802247E+02  0.00000000000E+00 0.  1.
         13    1    3    3    0    0  0.59943974489E+02  0.86494757474E+02  0.39922523615E+03  0.41286246176E+03  0.00000000000E+00 0. -1.
          1    1    1    2  501    0 -0.78720260513E+02 -0.25727718141E+03  0.15355259589E+04  0.15589189837E+04  0.00000000000E+00 0. -1.
<scales pt_clust_5="13000.00000" pt_clust_6="13000.00000" pt_clust_7="13000.00000" pt_clust_8="13000.00000" pt_clust_9="13000.00000"></scales>
<clustering>
<clus scale="   76.918">  5  6 -1 -1</clus>
<clus scale="   91.248">  7  8 -1 -1</clus>
<clus scale="  165.979">  1  7  2 -1</clus>
<clus scale="  152.436">  5  9 -1 -1</clus>
<clus scale="  514.187">  2  5  1 -1</clus>
</clustering>
</event>
<event>
 9    2  0.6085395E-005  0.5433476E+03  0.7546771E-02  0.1029680E+00
         -1   -1    0    0    0  501 -0.00000000000E+00  0.00000000000E+00  0.91413644803E+02  0.91413644803E+02  0.00000000000E+00 0.  1.
         21   -1    0    0  501  502  0.00000000000E+00 -0.00000000000E+00 -0.16859186468E+04  0.16859186468E+04  0.00000000000E+00 0.  1.
         23    2    1    2    0    0 -0.20736966463E+03  0.82446364884E+02 -0.52364134227E+03  0.57650942144E+03  0.91450952886E+02 0.  0.
         24    2    1    2    0    0  0.27251763874E+03 -0.23763929318E+03 -0.80705971007E+03  0.88789855443E+03  0.79247525237E+02 0.  0.
        -13    1    4    4    0    0  0.17229293136E+03 -0.16354173508E+03 -0.61121673759E+03  0.65575655057E+03  0.00000000000E+00 0.  1.
         14    1    4    4    0    0  0.10022470738E+03 -0.74097558099E+02 -0.19584297249E+03  0.23214200387E+03  0.00000000000E+00 0. -1.
        -13    1    3    3    0    0 -0.10417433175E+03  0.83254842503E+02 -0.34961934782E+03  0.37418892096E+03  0.00000000000E+00 0.  1.
         13    1    3    3    0    0 -0.10319533287E+03 -0.80847761901E+00 -0.17402199444E+03  0.20232050048E+03  0.00000000000E+00 0. -1.
         -2    1    1    2    0  502 -0.65147974114E+02  0.15519292829E+03 -0.26380394967E+03  0.31292431575E+03  0.00000000000E+00 0.  1.
<scales pt_clust_5="13000.00000" pt_clust_6="13000.00000" pt_clust_7="13000.00000" pt_clust_8="13000.00000" pt_clust_9="13000.00000"></scales>
<clustering>
<clus scale="   79.248">  5  6 -1 -1</clus>
<clus scale="   91.451">  7  8 -1 -1</clus>
<clus scale="  168.313">  5  9 -1 -1</clus>
<clus scale="  241.170">  1  7  2 -1</clus>
<clus scale="  543.348">  2  5  1 -1</clus>
</clustering>
</event>
<event>
 9    2  0.6085395E-005  0.2122933E+03  0.7546771E-02  0.1169708E+00
         -3   -1    0    0    0  501 -0.00000000000E+00  0.00000000000E+00  0.26220088021E+03  0.26220088021E+03  0.00000000000E+00 0.  1.
         21   -1    0    0  501  502  0.00000000000E+00 -0.00000000000E+00 -0.97398677411E+02  0.97398677411E+02  0.00000000000E+00 0.  1.
         23    2    1    2    0    0  0.11641080123E+01 -0.48354776948E+02  0.75172691482E+02  0.12916107646E+03  0.93231488924E+02 0.  0.
         24    2    1    2    0    0 -0.82117480193E+02 -0.52133936366E+01  0.54363561076E+02  0.12715883837E+03  0.80271497914E+02 0.  0.
        -13    1    4    4    0    0 -0.84142553984E+02  0.14181088473E+02  0.19990124364E+02  0.87639475885E+02  0.00000000000E+00 0.  1.
         14    1    4    4    0    0  0.20250737913E+01 -0.19394482110E+02  0.34373436712E+02  0.39519362490E+02  0.00000000000E+00 0. -1.
        -11    1    3    3    0    0 -0.17265367974E+02 -0.32698598295E+02  0.92364318812E+02  0.99490997841E+02  0.00000000000E+00 0.  1.
         11    1    3    3    0    0  0.18429475987E+02 -0.15656178653E+02 -0.17191627330E+02  0.29670078621E+02  0.00000000000E+00 0. -1.
         -4    1    1    2    0  502  0.80953372180E+02  0.53568170584E+02  0.35265950238E+02  0.10327964278E+03  0.00000000000E+00 0.  1.
<scales pt_clust_5="13000.00000" pt_clust_6="13000.00000" pt_clust_7="13000.00000" pt_clust_8="13000.00000" pt_clust_9="13000.00000"></scales>
<clustering>
<clus scale="   80.271">  5  6 -1 -1</clus>
<clus scale="   93.231">  7  8 -1 -1</clus>
<clus scale="   97.072">  5  9 -1 -1</clus>
<clus scale="  105.032">  1  7  2 -1</clus>
<clus scale="  212.293">  2  5  1 -1</clus>
</clustering>
</event>
<event>
 9    2  0.6085395E-005  0.2016690E+03  0.7546771E-02  0.1173507E+00
         -3   -1    0    0    0  501 -0.00000000000E+00  0.00000000000E+00  0.39327393247E+03  0.39327393247E+03  0.00000000000E+00 0.  1.
         21   -1    0    0  501  502  0.00000000000E+00 -0.00000000000E+00 -0.63954284050E+02  0.63954284050E+02  0.00000000000E+00 0.  1.
         23    2    1    2    0    0 -0.29125324179E+02  0.55907595419E+02  0.87846808042E+02  0.14261812531E+03  0.92999592739E+02 0.  0.
         24    2    1    2    0    0 -0.37434331524E+01  0.27527047444E+02  0.19629971267E+03  0.21419940301E+03  0.81092881444E+02 0.  0.
        -11    1    4    4    0    0 -0.37356129812E+01  0.40875854653E+02  0.19660808729E+03  0.20084703206E+03  0.00000000000E+00 0.  1.
         12    1    4    4    0    0 -0.78201712228E-02 -0.13348807209E+02 -0.30837462063E+00  0.13352370949E+02  0.00000000000E+00 0. -1.
        -11    1    3    3    0    0  0.11704638616E+02 -0.21546608654E+02  0.15219856938E+02  0.28859988822E+02  0.00000000000E+00 0. -1.
         11    1    3    3    0    0 -0.40829962795E+02  0.77454204073E+02  0.72626951105E+02  0.11375813649E+03  0.00000000000E+00 0.  1.
         -4    1    1    2    0  502  0.32868757331E+02 -0.83434642863E+02  0.45173127701E+02  0.10041068820E+03  0.00000000000E+00 0.  1.
<scales pt_clust_5="13000.00000" pt_clust_6="13000.00000" pt_clust_7="13000.00000" pt_clust_8="13000.00000" pt_clust_9="13000.00000"></scales>
<clustering>
<clus scale="   81.093">  5  6 -1 -1</clus>
<clus scale="   89.676">  5  9 -1 -1</clus>
<clus scale="   93.000">  7  8 -1 -1</clus>
<clus scale="  112.352">  1  7  2 -1</clus>
<clus scale="  201.669">  2  5  1 -1</clus>
</clustering>
</event>
<event>
 9    2  0.6085395E-005  0.1514672E+03  0.7546771E-02  0.1213674E+00
         21   -1    0    0  501  502  0.00000000000E+00  0.00000000000E+00  0.13215383340E+02  0.13215383340E+02  0.00000000000E+00 0.  1.
          2   -1    0    0  502    0 -0.00000000000E+00 -0.00000000000E+00 -0.14469100857E+04  0.14469100857E+04  0.00000000000E+00 0. -1.
         23    2    1    2    0    0  0.41012368097E+02  0.56163374493E+02 -0.37758947660E+03  0.39321377406E+03  0.84893582248E+02 0.  0.
         24    2    1    2    0    0 -0.14967648556E+02  0.44241293779E+01 -0.68620521477E+03  0.69117882288E+03  0.81283239302E+02 0.  0.
        -11    1    4    4    0    0 -0.34147315534E+02 -0.14557142076E+02 -0.15868711506E+03  0.16297100978E+03  0.00000000000E+00 0.  1.
         12    1    4    4    0    0  0.19179666979E+02  0.18981271454E+02 -0.52751809971E+03  0.52820781310E+03  0.00000000000E+00 0. -1.
        -13    1    3    3    0    0 -0.71205995988E+01  0.55080792282E+02 -0.13654279110E+03  0.14740600537E+03  0.00000000000E+00 0.  1.
         13    1    3    3    0    0  0.48132967696E+02  0.10825822111E+01 -0.24104668549E+03  0.24580776869E+03  0.00000000000E+00 0. -1.
          1    1    1    2  501    0 -0.26044719541E+02 -0.60587503871E+02 -0.36990001097E+03  0.37573287208E+03  0.00000000000E+00 0. -1.
<scales pt_clust_5="13000.00000" pt_clust_6="13000.00000" pt_clust_7="13000.00000" pt_clust_8="13000.00000" pt_clust_9="13000.00000"></scales>
<clustering>
<clus scale="   81.283">  5  6 -1 -1</clus>
<clus scale="   65.948">  5  9 -1 -1</clus>
<clus scale="   84.894">  7  8 -1 -1</clus>
<clus scale="  109.742">  2  7  1 -1</clus>
<clus scale="  151.467">  1  5  2 -1</clus>
</clustering>
</event>
<event>
 9    2  0.6085395E-005  0.8643026E+03  0.7546771E-02  0.9865833E-01
         21   -1    0    0  501  502  0.00000000000E+00  0.00000000000E+00  0.56842311465E+03  0.56842311465E+03  0.00000000000E+00 0. -1.
          2   -1    0    0  502    0 -0.00000000000E+00 -0.00000000000E+00 -0.52790373684E+03  0.52790373684E+03  0.00000000000E+00 0. -1.
         23    2    1    2    0    0  0.14561032651E+03 -0.15059237273E+03  0.42665989144E+02  0.23202154882E+03  0.90184159227E+02 0.  0.
         24    2    1    2    0    0 -0.33180317249E+03  0.20723436579E+03 -0.30659675556E+03  0.50296615230E+03  0.77032150452E+02 0.  0.
        -11    1    4    4    0    0 -0.14038765827E+03  0.65047008414E+02 -0.16241001235E+03  0.22431411015E+03  0.00000000000E+00 0.  1.
         12    1    4    4    0    0 -0.19141551421E+03  0.14218735737E+03 -0.14418674321E+03  0.27865204215E+03  0.00000000000E+00 0. -1.
        -13    1    3    3    0    0  0.78098061905E+02 -0.10185403272E+03  0.67651384889E+02  0.14508708120E+03  0.00000000000E+00 0. -1.
         13    1    3    3    0    0  0.67512264603E+02 -0.48738340012E+02 -0.24985395745E+02  0.86934467615E+02  0.00000000000E+00 0.  1.
          1    1    1    2  501    0  0.18619284598E+03 -0.56641993053E+02  0.30445014422E+03  0.36133915037E+03  0.00000000000E+00 0. -1.
<scales pt_clust_5="13000.00000" pt_clust_6="13000.00000" pt_clust_7="13000.00000" pt_clust_8="13000.00000" pt_clust_9="13000.00000"></scales>
<clustering>
<clus scale="   77.032">  5  6 -1 -1</clus>
<clus scale="   90.184">  7  8 -1 -1</clus>
<clus scale="  194.618">  5  9 -1 -1</clus>
<clus scale="  228.065">  2  7  1 -1</clus>
<clus scale="  864.303">  1  5  2 -1</clus>
</clustering>
</event>
<event>
 9    2  0.6085395E-005  0.2929389E+03  0.7546771E-02  0.1134340E+00
         -1   -1    0    0    0  501 -0.00000000000E+00  0.00000000000E+00  0.11539654612E+03  0.11539654612E+03  0.00000000000E+00 0.  1.
         21   -1    0    0  501  502  0.00000000000E+00 -0.00000000000E+00 -0.35196922251E+03  0.35196922251E+03  0.00000000000E+00 0.  1.
         23    2    1    2    0    0 -0.65831843609E+01  0.71818311846E+01 -0.21570371891E+01  0.92180652477E+02  0.91638981150E+02 0.  0.
         24    2    1    2    0    0 -0.15659079427E+02  0.81197356467E+02  0.90884706840E+01  0.11518540339E+03  0.79667178875E+02 0.  0.
        -11    1    4    4    0    0  0.12159539135E+01  0.40490762195E+02 -0.34495751238E+02  0.53206552420E+02  0.00000000000E+00 0.  1.
         12    1    4    4    0    0 -0.16875033341E+02  0.40706594272E+02  0.43584221922E+02  0.61978850974E+02  0.00000000000E+00 0. -1.
        -11    1    3    3    0    0 -0.20392360305E+02  0.29362498220E+02  0.32814685241E+02  0.48526366317E+02  0.00000000000E+00 0.  1.
         11    1    3    3    0    0  0.13809175944E+02 -0.22180667035E+02 -0.34971722430E+02  0.43654286159E+02  0.00000000000E+00 0. -1.
         -2    1    1    2    0  502  0.22242263788E+02 -0.88379187652E+02 -0.24350410989E+03  0.25999971277E+03  0.00000000000E+00 0.  1.
<scales pt_clust_5="13000.00000" pt_clust_6="13000.00000" pt_clust_7="13000.00000" pt_clust_8="13000.00000" pt_clust_9="13000.00000"></scales>
<clustering>
<clus scale="   79.667">  5  6 -1 -1</clus>
<clus scale="   91.135">  5  9 -1 -1</clus>
<clus scale="   91.639">  7  8 -1 -1</clus>
<clus scale="   92.155">  1  7  2 -1</clus>
<clus scale="  292.939">  2  5  1 -1</clus>
</clustering>
</event>
<event>
 9    2  0.6085395E-005  0.1904449E+03  0.7546771E-02  0.1183840E+00
          2   -1    0    0  502    0 -0.00000000000E+00  0.00000000000E+00  0.37903583060E+03  0.37903583060E+03  0.00000000000E+00 0. -1.
         21   -1    0    0  501  502  0.00000000000E+00 -0.00000000000E+00 -0.62841965334E+02  0.62841965334E+02  0.00000000000E+00 0. -1.
         23    2    1    2    0    0  0.32760130192E+02  0.42593938799E+02  0.56546372116E+02  0.11987457236E+03  0.91021707009E+02 0.  0.
         24    2    1    2    0    0  0.23436321015E+02  0.23385468420E+00  0.44412958758E+02  0.95468092041E+02  0.81193163884E+02 0.  0.
        -11    1    4    4    0    0  0.32011110858E+02  0.12460606085E+02  0.62920630355E+02  0.71686704811E+02  0.00000000000E+00 0.  1.
         12    1    4    4    0    0 -0.85747898434E+01 -0.12226751401E+02 -0.18507671596E+02  0.23781387230E+02  0.00000000000E+00 0. -1.
        -13    1    3    3    0    0  0.49117714909E+02  0.54342923387E+02  0.65095389915E+02  0.97995474530E+02  0.00000000000E+00 0. -1.
         13    1    3    3    0    0 -0.16357584717E+02 -0.11748984588E+02 -0.85490177990E+01  0.21879097832E+02  0.00000000000E+00 0.  1.
          1    1    1    2  501    0 -0.56196451207E+02 -0.42827793483E+02  0.21523453439E+03  0.22653513153E+03  0.00000000000E+00 0. -1.
<scales pt_clust_5="13000.00000" pt_clust_6="13000.00000" pt_clust_7="13000.00000" pt_clust_8="13000.00000" pt_clust_9="13000.00000"></scales>
<clustering>
<clus scale="   81.193">  5  6 -1 -1</clus>
<clus scale="   70.656">  5  9 -1 -1</clus>
<clus scale="   91.022">  7  8 -1 -1</clus>
<clus scale="  105.700">  1  7  2 -1</clus>
<clus scale="  190.445">  2  5  1 -1</clus>
</clustering>
</event>
<event>
 9    2  0.6085395E-005  0.6810585E+03  0.7546771E-02  0.1018084E+00
          2   -1    0    0  502    0 -0.00000000000E+00  0.00000000000E+00  0.22054135985E+04  0.22054135985E+04  0.00000000000E+00 0. -1.
         21   -1    0    0  501  502  0.00000000000E+00 -0.00000000000E+00 -0.83880717222E+02  0.83880717222E+02  0.00000000000E+00 0. -1.
         23    2    1    2    0    0 -0.13398994138E+03 -0.57883115302E+02  0.33306785346E+03  0.37554202779E+03  0.93775584261E+02 0.  0.
         24    2    1    2    0    0  0.24492384011E+03 -0.24516699171E+03  0.85176763423E+03  0.92302139389E+03  0.79786274327E+02 0.  0.
        -13    1    4    4    0    0  0.83044820095E+02 -0.82995093341E+02  0.19718387102E+03  0.22949097293E+03  0.00000000000E+00 0.  1.
         14    1    4    4    0    0  0.16187902002E+03 -0.16217189837E+03  0.65458376321E+03  0.69353042096E+03  0.00000000000E+00 0. -1.
        -13    1    3    3    0    0 -0.11057092191E+03 -0.71836662223E+02  0.19892976470E+03  0.23866186561E+03  0.00000000000E+00 0. -1.
         13    1    3    3    0    0 -0.23419019471E+02  0.13953546921E+02  0.13413808876E+03  0.13688016218E+03  0.00000000000E+00 0.  1.
          1    1    1    2  501    0 -0.11093389874E+03  0.30305010701E+03  0.93669739357E+03  0.99073089403E+03  0.00000000000E+00 0. -1.
<scales pt_clust_5="13000.00000" pt_clust_6="13000.00000" pt_clust_7="13000.00000" pt_clust_8="13000.00000" pt_clust_9="13000.00000"></scales>
<clustering>
<clus scale="   79.786">  5  6 -1 -1</clus>
<clus scale="   93.776">  7  8 -1 -1</clus>
<clus scale="  173.487">  1  7  2 -1</clus>
<clus scale="  327.310">  5  9 -1 -1</clus>
<clus scale="  681.058">  2  5  1 -1</clus>
</clustering>
</event>
<event>
 9    2  0.6085395E-005  0.1356344E+04  0.7546771E-02  0.9590964E-01
          2   -1    0    0  502    0 -0.00000000000E+00  0.00000000000E+00  0.23813706947E+04  0.23813706947E+04  0.00000000000E+00 0. -1.
         21   -1    0    0  501  502  0.00000000000E+00 -0.00000000000E+00 -0.24320985168E+03  0.24320985168E+03  0.00000000000E+00 0.  1.
         23    2    1    2    0    0  0.10946742326E+03 -0.38583254142E+02  0.10735315077E+03  0.18248142518E+03  0.91120729259E+02 0.  0.
         24    2    1    2    0    0 -0.17449593547E+03 -0.34654140249E+03  0.21393072725E+02  0.39507767000E+03  0.71336713129E+02 0.  0.
        -11    1    4    4    0    0 -0.12620156476E+03 -0.30377107711E+03  0.71902751498E+01  0.32902188725E+03  0.00000000000E+00 0.  1.
         12    1    4    4    0    0 -0.48294370713E+02 -0.42770325377E+02  0.14202797575E+02  0.66055782747E+02  0.00000000000E+00 0. -1.
        -13    1    3    3    0    0  0.96187107552E+02 -0.21070072714E+02  0.31310271033E+02  0.10332589557E+03  0.00000000000E+00 0. -1.
         13    1    3    3    0    0  0.13280315703E+02 -0.17513181429E+02  0.76042879735E+02  0.79155529606E+02  0.00000000000E+00 0.  1.
          1    1    1    2  501    0  0.65028512216E+02  0.38512465663E+03  0.20094146195E+04  0.20470214512E+04  0.00000000000E+00 0. -1.
<scales pt_clust_5="13000.00000" pt_clust_6="13000.00000" pt_clust_7="13000.00000" pt_clust_8="13000.00000" pt_clust_9="13000.00000"></scales>
<clustering>
<clus scale="   71.337">  5  6 -1 -1</clus>
<clus scale="   91.121">  7  8 -1 -1</clus>
<clus scale="  147.563">  1  7  2 -1</clus>
<clus scale="  386.768">  5  9 -1 -1</clus>
<clus scale=" 1356.344">  2  5  1 -1</clus>
</clustering>
</event>
<event>
 9    2  0.6085395E-005  0.5320640E+03  0.7546771E-02  0.1051033E+00
         21   -1    0    0  501  502  0.00000000000E+00  0.00000000000E+00  0.99284611443E+02  0.99284611443E+02  0.00000000000E+00 0.  1.
         -1   -1    0    0    0  501 -0.00000000000E+00 -0.00000000000E+00 -0.11628799558E+04  0.11628799558E+04  0.00000000000E+00 0.  1.
         23    2    1    2    0    0 -0.35848807108E+02  0.98151395807E+02 -0.31329841073E+03  0.34236154779E+03  0.90203668276E+02 0.  0.
         24    2    1    2    0    0 -0.21027384972E+03  0.21713486375E+02 -0.50046032630E+03  0.54917883979E+03  0.80313713058E+02 0.  0.
        -11    1    4    4    0    0 -0.13015029857E+03 -0.16228026531E+02 -0.35928190748E+03  0.38247344758E+03  0.00000000000E+00 0.  1.
         12    1    4    4    0    0 -0.80123551147E+02  0.37941512906E+02 -0.14117841882E+03  0.16670539221E+03  0.00000000000E+00 0. -1.
        -11    1    3    3    0    0 -0.64475036113E+02  0.84476074388E+02 -0.23744805538E+03  0.26014383796E+03  0.00000000000E+00 0.  1.
         11    1    3    3    0    0  0.28626229005E+02  0.13675321418E+02 -0.75850355347E+02  0.82217709827E+02  0.00000000000E+00 0. -1.
         -2    1    1    2    0  502  0.24612265682E+03 -0.11986488218E+03 -0.24983660730E+03  0.37062417963E+03  0.00000000000E+00 0.  1.
<scales pt_clust_5="13000.00000" pt_clust_6="13000.00000" pt_clust_7="13000.00000" pt_clust_8="13000.00000" pt_clust_9="13000.00000"></scales>
<clustering>
<clus scale="   80.314">  5  6 -1 -1</clus>
<clus scale="   90.204">  7  8 -1 -1</clus>
<clus scale="  138.042">  2  7  1 -1</clus>
<clus scale="  247.293">  5  9 -1 -1</clus>
<clus scale="  532.064">  1  5  2 -1</clus>
</clustering>
</event>
<event>
 9    2  0.6085395E-005  0.2892246E+03  0.7546771E-02  0.1110004E+00
          2   -1    0    0  502    0 -0.00000000000E+00  0.00000000000E+00  0.42277045346E+03  0.42277045346E+03  0.00000000000E+00 0. -1.
         21   -1    0    0  501  502  0.00000000000E+00 -0.00000000000E+00 -0.17730866841E+03  0.17730866841E+03  0.00000000000E+00 0. -1.
         23    2    1    2    0    0  0.14756861670E+03 -0.23051625737E+02  0.25627829274E+03  0.31065229469E+03  0.92295237044E+02 0.  0.
         24    2    1    2    0    0 -0.87568476495E+02 -0.75167009363E+02  0.61434363127E+02  0.15353309872E+03  0.80497913363E+02 0.  0.
        -13    1    4    4    0    0 -0.25299995423E+02 -0.21821334972E+02  0.63234954328E+02  0.71518668033E+02  0.00000000000E+00 0.  1.
         14    1    4    4    0    0 -0.62268481072E+02 -0.53345674392E+02 -0.18005912012E+01  0.82014430682E+02  0.00000000000E+00 0. -1.
        -13    1    3    3    0    0  0.84722380612E+02  0.30920544603E+02  0.15974941784E+03  0.18344982517E+03  0.00000000000E+00 0. -1.
         13    1    3    3    0    0  0.62846236084E+02 -0.53972170341E+02  0.96528874903E+02  0.12720246952E+03  0.00000000000E+00 0.  1.
          1    1    1    2  501    0 -0.60000140200E+02  0.98218635101E+02 -0.72250870810E+02  0.13589372847E+03  0.00000000000E+00 0. -1.
<scales pt_clust_5="13000.00000" pt_clust_6="13000.00000" pt_clust_7="13000.00000" pt_clust_8="13000.00000" pt_clust_9="13000.00000"></scales>
<clustering>
<clus scale="   80.498">  5  6 -1 -1</clus>
<clus scale="   92.295">  7  8 -1 -1</clus>
<clus scale="  115.095">  5  9 -1 -1</clus>
<clus scale="  175.574">  1  7  2 -1</clus>
<clus scale="  289.225">  2  5  1 -1</clus>
</clustering>
</event>
<event>
 9    2  0.6085395E-005  0.2538947E+03  0.7546771E-02  0.1137562E+00
         21   -1    0    0  501  502  0.00000000000E+00  0.00000000000E+00  0.26746785542E+03  0.26746785542E+03  0.00000000000E+00 0.  1.
         -3   -1    0    0    0  501 -0.00000000000E+00 -0.00000000000E+00 -0.27510069668E+03  0.27510069668E+03  0.00000000000E+00 0.  1.
         23    2    1    2    0    0 -0.89972833429E+02  0.43378420791E+02 -0.18946490612E+03  0.23027798111E+03  0.84582502856E+02 0.  0.
         24    2    1    2    0    0  0.60147861707E+02 -0.71794943374E+02  0.22107256059E+03  0.25539730075E+03  0.87077121123E+02 0.  0.
        -13    1    4    4    0    0  0.49336703364E+02 -0.84420179811E+02  0.21739671429E+03  0.23837409348E+03  0.00000000000E+00 0.  1.
         14    1    4    4    0    0  0.10811158343E+02  0.12625236437E+02  0.36758463015E+01  0.17023207273E+02  0.00000000000E+00 0. -1.
        -11    1    3    3    0    0 -0.52367087174E+02  0.64213416614E+02 -0.15260129408E+03  0.17364570150E+03  0.00000000000E+00 0.  1.
         11    1    3    3    0    0 -0.37605746254E+02 -0.20834995823E+02 -0.36863612038E+02  0.56632279618E+02  0.00000000000E+00 0. -1.
         -4    1    1    2    0  502  0.29824971722E+02  0.28416522582E+02 -0.39240495721E+02  0.56893270237E+02  0.00000000000E+00 0.  1.
<scales pt_clust_5="13000.00000" pt_clust_6="13000.00000" pt_clust_7="13000.00000" pt_clust_8="13000.00000" pt_clust_9="13000.00000"></scales>
<clustering>
<clus scale="   84.583">  7  8 -1 -1</clus>
<clus scale="   87.077">  5  6 -1 -1</clus>
<clus scale="   41.195">  5  9 -1 -1</clus>
<clus scale="  130.885">  2  7  1 -1</clus>
<clus scale="  253.895">  1  5  2 -1</clus>
</clustering>
</event>
<event>
 9    2  0.6085397E-005  0.3647796E+03  0.7546771E-02  0.1077906E+00
         21   -1    0    0  501  502  0.00000000000E+00  0.00000000000E+00  0.91311400794E+02  0.91311400794E+02  0.00000000000E+00 0. -1.
          2   -1    0    0  502    0 -0.00000000000E+00 -0.00000000000E+00 -0.11900367851E+04  0.11900367851E+04  0.00000000000E+00 0. -1.
         23    2    1    2    0    0  0.12766295057E+03 -0.10020135803E+03 -0.11800992217E+03  0.23498926201E+03  0.12229256081E+03 0.  0.
         24    2    1    2    0    0 -0.44371204161E+02 -0.13959774802E+02 -0.56836010121E+02  0.11173412156E+03  0.84205123381E+02 0.  0.
        -13    1    4    4    0    0  0.23563130173E+02 -0.60770103440E+01 -0.29100222334E+02  0.37933812070E+02  0.00000000000E+00 0.  1.
         14    1    4    4    0    0 -0.67934334334E+02 -0.78827644579E+01 -0.27735787787E+02  0.73800309492E+02  0.00000000000E+00 0. -1.
        -13    1    3    3    0    0  0.50561605803E+02 -0.10491879550E+03 -0.10469193362E+03  0.15660405677E+03  0.00000000000E+00 0.  1.
         13    1    3    3    0    0  0.77101344770E+02  0.47174374776E+01 -0.13317988556E+02  0.78385205242E+02  0.00000000000E+00 0. -1.
          1    1    1    2  501    0 -0.83291746412E+02  0.11416113283E+03 -0.92387945199E+03  0.93462480230E+03  0.00000000000E+00 0. -1.
<scales pt_clust_5="13000.00000" pt_clust_6="13000.00000" pt_clust_7="13000.00000" pt_clust_8="13000.00000" pt_clust_9="13000.00000"></scales>
<clustering>
<clus scale="   84.205">  5  6 -1 -1</clus>
<clus scale="  122.293">  7  8 -1 -1</clus>
<clus scale="  141.316">  5  9 -1 -1</clus>
<clus scale="  203.208">  2  7  1 -1</clus>
<clus scale="  364.780">  1  5  2 -1</clus>
</clustering>
</event>
<event>
 9    2  0.6085395E-005  0.3053862E+03  0.7546771E-02  0.1125200E+00
          2   -1    0    0  502    0 -0.00000000000E+00  0.00000000000E+00  0.37873970009E+02  0.37873970009E+02  0.00000000000E+00 0. -1.
         21   -1    0    0  501  502  0.00000000000E+00 -0.00000000000E+00 -0.11037412806E+04  0.11037412806E+04  0.00000000000E+00 0. -1.
         23    2    1    2    0    0 -0.37704923603E+02 -0.25481785057E+02 -0.31395819013E+03  0.33005621730E+03  0.91084459663E+02 0.  0.
         24    2    1    2    0    0 -0.12062830732E+03  0.14348687137E+02 -0.32534766538E+03  0.35642385246E+03  0.80185945702E+02 0.  0.
        -13    1    4    4    0    0 -0.22968973064E+02 -0.29987630371E+02 -0.98676447215E+02  0.10565923024E+03  0.00000000000E+00 0.  1.
         14    1    4    4    0    0 -0.97659334256E+02  0.44336317508E+02 -0.22667121816E+03  0.25076462223E+03  0.00000000000E+00 0. -1.
        -13    1    3    3    0    0 -0.57586278097E+01  0.27685248354E+02 -0.38905455754E+02  0.48096457854E+02  0.00000000000E+00 0.  1.
         13    1    3    3    0    0 -0.31946295793E+02 -0.53167033411E+02 -0.27505273438E+03  0.28195975944E+03  0.00000000000E+00 0. -1.
          1    1    1    2  501    0  0.15833323092E+03  0.11133097920E+02 -0.42656145506E+03  0.45513518082E+03  0.00000000000E+00 0. -1.
<scales pt_clust_5="13000.00000" pt_clust_6="13000.00000" pt_clust_7="13000.00000" pt_clust_8="13000.00000" pt_clust_9="13000.00000"></scales>
<clustering>
<clus scale="   80.186">  5  6 -1 -1</clus>
<clus scale="   91.084">  7  8 -1 -1</clus>
<clus scale="  101.820">  1  7  2 -1</clus>
<clus scale="  140.276">  5  9 -1 -1</clus>
<clus scale="  305.386">  2  5  1 -1</clus>
</clustering>
</event>
<event>
 9    2  0.6085395E-005  0.2555526E+03  0.7546771E-02  0.1138330E+00
         21   -1    0    0  501  502  0.00000000000E+00  0.00000000000E+00  0.18449313586E+04  0.18449313586E+04  0.00000000000E+00 0. -1.
          2   -1    0    0  502    0 -0.00000000000E+00 -0.00000000000E+00 -0.34793012961E+02  0.34793012961E+02  0.00000000000E+00 0. -1.
         23    2    1    2    0    0 -0.76455600266E+02 -0.40623215887E+02  0.13289693537E+03  0.18312604063E+03  0.91530578755E+02 0.  0.
         24    2    1    2    0    0 -0.59916037785E+02 -0.13295895202E+02  0.50262181759E+03  0.51286031865E+03  0.81426669534E+02 0.  0.
        -11    1    4    4    0    0  0.13142037858E+01 -0.32499156255E+02  0.99998629724E+02  0.10515535286E+03  0.00000000000E+00 0.  1.
         12    1    4    4    0    0 -0.61230241570E+02  0.19203261052E+02  0.40262318787E+03  0.40770496578E+03  0.00000000000E+00 0. -1.
        -11    1    3    3    0    0 -0.37386741765E+01  0.24672360699E+02  0.46081452930E+02  0.52404230470E+02  0.00000000000E+00 0. -1.
         11    1    3    3    0    0 -0.72716926090E+02 -0.65295576586E+02  0.86815482436E+02  0.13072181016E+03  0.00000000000E+00 0.  1.
          1    1    1    2  501    0  0.13637163805E+03  0.53919111089E+02  0.11746195927E+04  0.11837380123E+04  0.00000000000E+00 0. -1.
<scales pt_clust_5="13000.00000" pt_clust_6="13000.00000" pt_clust_7="13000.00000" pt_clust_8="13000.00000" pt_clust_9="13000.00000"></scales>
<clustering>
<clus scale="   81.427">  5  6 -1 -1</clus>
<clus scale="   91.531">  7  8 -1 -1</clus>
<clus scale="  125.990">  2  7  1 -1</clus>
<clus scale="  106.213">  5  9 -1 -1</clus>
<clus scale="  255.553">  1  5  2 -1</clus>
</clustering>
</event>
<event>
 9    2  0.6085395E-005  0.2270992E+03  0.7546771E-02  0.1154117E+00
         -3   -1    0    0    0  501 -0.00000000000E+00  0.00000000000E+00  0.11697805568E+03  0.11697805568E+03  0.00000000000E+00 0.  1.
         21   -1    0    0  501  502  0.00000000000E+00 -0.00000000000E+00 -0.26223740118E+03  0.26223740118E+03  0.00000000000E+00 0.  1.
         23    2    1    2    0    0 -0.66032600106E+02 -0.57489047521E+02 -0.50756656532E+02  0.13323818428E+03  0.86665337399E+02 0.  0.
         24    2    1    2    0    0 -0.34117594165E+02  0.92599217589E+01  0.15544670166E+02  0.89559462730E+02  0.80805347665E+02 0.  0.
        -11    1    4    4    0    0 -0.85369794900E+01 -0.20338346761E+02  0.38376331968E+02  0.44263655781E+02  0.00000000000E+00 0.  1.
         12    1    4    4    0    0 -0.25580614675E+02  0.29598268520E+02 -0.22831661801E+02  0.45295806949E+02  0.00000000000E+00 0. -1.
        -11    1    3    3    0    0 -0.16140786617E+02 -0.66738656154E+02 -0.45173129961E+02  0.82189931794E+02  0.00000000000E+00 0. -1.
         11    1    3    3    0    0 -0.49891813488E+02  0.92496086323E+01 -0.55835265709E+01  0.51048252487E+02  0.00000000000E+00 0.  1.
         -4    1    1    2    0  502  0.10015019427E+03  0.48229125763E+02 -0.11004735914E+03  0.15641780985E+03  0.00000000000E+00 0.  1.
<scales pt_clust_5="13000.00000" pt_clust_6="13000.00000" pt_clust_7="13000.00000" pt_clust_8="13000.00000" pt_clust_9="13000.00000"></scales>
<clustering>
<clus scale="   80.805">  5  6 -1 -1</clus>
<clus scale="   86.665">  7  8 -1 -1</clus>
<clus scale="  111.158">  5  9 -1 -1</clus>
<clus scale="  123.192">  1  7  2 -1</clus>
<clus scale="  227.099">  2  5  1 -1</clus>
</clustering>
</event>
<event>
 9    2  0.6085395E-005  0.5541940E+03  0.7546771E-02  0.1051688E+00
         21   -1    0    0  501  502  0.00000000000E+00  0.00000000000E+00  0.10206039473E+03  0.10206039473E+03  0.00000000000E+00 0. -1.
          2   -1    0    0  502    0 -0.00000000000E+00 -0.00000000000E+00 -0.11132454387E+04  0.11132454387E+04  0.00000000000E+00 0. -1.
         23    2    1    2    0    0  0.30126930295E+02  0.69568898734E+02 -0.18557849947E+03  0.22094311832E+03  0.92892510283E+02 0.  0.
         24    2    1    2    0    0 -0.71183599239E+02  0.19627875326E+03 -0.60925920345E+03  0.64915727464E+03  0.81338406995E+02 0.  0.
        -11    1    4    4    0    0  0.36136872056E+01  0.68520446084E+02 -0.27764164138E+03  0.28599473998E+03  0.00000000000E+00 0.  1.
         12    1    4    4    0    0 -0.74797286445E+02  0.12775830717E+03 -0.33161756207E+03  0.36316253467E+03  0.00000000000E+00 0. -1.
        -13    1    3    3    0    0 -0.64829026080E+01 -0.20228823211E+02 -0.20694404850E+02  0.29656225431E+02  0.00000000000E+00 0.  1.
         13    1    3    3    0    0  0.36609832903E+02  0.89797721945E+02 -0.16488409462E+03  0.19128689289E+03  0.00000000000E+00 0. -1.
          1    1    1    2  501    0  0.41056668944E+02 -0.26584765199E+03 -0.21634734101E+03  0.34520544042E+03  0.00000000000E+00 0. -1.
<scales pt_clust_5="13000.00000" pt_clust_6="13000.00000" pt_clust_7="13000.00000" pt_clust_8="13000.00000" pt_clust_9="13000.00000"></scales>
<clustering>
<clus scale="   81.338">  5  6 -1 -1</clus>
<clus scale="   92.893">  7  8 -1 -1</clus>
<clus scale="  119.902">  2  7  1 -1</clus>
<clus scale="  249.516">  5  9 -1 -1</clus>
<clus scale="  554.194">  1  5  2 -1</clus>
</clustering>
</event>
<event>
 9    2  0.6085395E-005  0.1933016E+03  0.7546771E-02  0.1170962E+00
         21   -1    0    0  501  502  0.00000000000E+00  0.00000000000E+00  0.60832339722E+02  0.60832339722E+02  0.00000000000E+00 0.  1.
          2   -1    0    0  502    0 -0.00000000000E+00 -0.00000000000E+00 -0.45104488576E+03  0.45104488576E+03  0.00000000000E+00 0. -1.
         23    2    1    2    0    0  0.37243408572E+02 -0.92678693843E+02 -0.19379865064E+03  0.23629794347E+03  0.91117447974E+02 0.  0.
         24    2    1    2    0    0  0.11049185560E+02  0.64497241353E+02 -0.42079585703E+02  0.11142859495E+03  0.79772561675E+02 0.  0.
        -13    1    4    4    0    0  0.32109710344E+02  0.59528874019E+02 -0.54157609377E+02  0.86647371534E+02  0.00000000000E+00 0.  1.
         14    1    4    4    0    0 -0.21060524784E+02  0.49683673343E+01  0.12078023675E+02  0.24781223417E+02  0.00000000000E+00 0. -1.
        -11    1    3    3    0    0  0.68638123124E+01 -0.10289731531E+03 -0.14960177766E+03  0.18170212244E+03  0.00000000000E+00 0.  1.
         11    1    3    3    0    0  0.30379596259E+02  0.10218621471E+02 -0.44196872976E+02  0.54595821035E+02  0.00000000000E+00 0. -1.
          1    1    1    2  501    0 -0.48292594132E+02  0.28181452490E+02 -0.15433430970E+03  0.16415068706E+03  0.00000000000E+00 0. -1.
<scales pt_clust_5="13000.00000" pt_clust_6="13000.00000" pt_clust_7="13000.00000" pt_clust_8="13000.00000" pt_clust_9="13000.00000"></scales>
<clustering>
<clus scale="   79.773">  5  6 -1 -1</clus>
<clus scale="   55.914">  5  9 -1 -1</clus>
<clus scale="   91.117">  7  8 -1 -1</clus>
<clus scale="  135.199">  2  7  1 -1</clus>
<clus scale="  193.302">  1  5  2 -1</clus>
</clustering>
</event>
<event>
 9    2  0.6085395E-005  0.2767854E+03  0.7546771E-02  0.1131806E+00
          2   -1    0    0  502    0 -0.00000000000E+00  0.00000000000E+00  0.46589867607E+03  0.46589867607E+03  0.00000000000E+00 0. -1.
         21   -1    0    0  501  502  0.00000000000E+00 -0.00000000000E+00 -0.89246829921E+02  0.89246829921E+02  0.00000000000E+00 0. -1.
         23    2    1    2    0    0 -0.37279103987E-01 -0.79934453743E+02  0.18501844840E+03  0.21849506521E+03  0.84372679160E+02 0.  0.
         24    2    1    2    0    0 -0.69731019271E+02 -0.26014991471E+02  0.17918937073E+03  0.20918376196E+03  0.78165343070E+02 0.  0.
        -11    1    4    4    0    0 -0.41877371398E+02  0.13731854706E+02  0.14009028277E+03  0.14685899834E+03  0.00000000000E+00 0.  1.
         12    1    4    4    0    0 -0.27853647872E+02 -0.39746846177E+02  0.39099087964E+02  0.62324763621E+02  0.00000000000E+00 0. -1.
        -13    1    3    3    0    0 -0.38734471073E+02 -0.35682525701E+02  0.56889025803E+02  0.77523952083E+02  0.00000000000E+00 0.  1.
         13    1    3    3    0    0  0.38697191969E+02 -0.44251928042E+02  0.12812942260E+03  0.14097111313E+03  0.00000000000E+00 0. -1.
          1    1    1    2  501    0  0.69768298375E+02  0.10594944521E+03  0.12444027017E+02  0.12746667881E+03  0.00000000000E+00 0. -1.
<scales pt_clust_5="13000.00000" pt_clust_6="13000.00000" pt_clust_7="13000.00000" pt_clust_8="13000.00000" pt_clust_9="13000.00000"></scales>
<clustering>
<clus scale="   78.165">  5  6 -1 -1</clus>
<clus scale="   84.373">  7  8 -1 -1</clus>
<clus scale="  116.225">  1  7  2 -1</clus>
<clus scale="  109.790">  5  9 -1 -1</clus>
<clus scale="  276.785">  2  5  1 -1</clus>
</clustering>
</event>
<event>
 9    2  0.6085395E-005  0.5156917E+03  0.7546771E-02  0.1053643E+00
         -3   -1    0    0    0  501 -0.00000000000E+00  0.00000000000E+00  0.11230068833E+03  0.11230068833E+03  0.00000000000E+00 0.  1.
         21   -1    0    0  501  502  0.00000000000E+00 -0.00000000000E+00 -0.99389162823E+03  0.99389162823E+03  0.00000000000E+00 0.  1.
         23    2    1    2    0    0 -0.92116927334E+02 -0.55928007153E+02 -0.28311288888E+03  0.31618351545E+03  0.90584972878E+02 0.  0.
         24    2    1    2    0    0 -0.48508144721E+02 -0.12396069964E+03 -0.52879826923E+03  0.55128169809E+03  0.81022255925E+02 0.  0.
        -13    1    4    4    0    0 -0.39366111817E+02 -0.10469584913E+03 -0.27916174739E+03  0.30073608495E+03  0.00000000000E+00 0.  1.
         14    1    4    4    0    0 -0.91420329044E+01 -0.19264850510E+02 -0.24963652184E+03  0.25054561314E+03  0.00000000000E+00 0. -1.
        -11    1    3    3    0    0 -0.13020620350E+02 -0.35621582071E+02 -0.18348945331E+03  0.18736812200E+03  0.00000000000E+00 0.  1.
         11    1    3    3    0    0 -0.79096306983E+02 -0.20306425083E+02 -0.99623435563E+02  0.12881539346E+03  0.00000000000E+00 0. -1.
         -4    1    1    2    0  502  0.14062507206E+03  0.17988870679E+03 -0.69679781801E+02  0.23872710302E+03  0.00000000000E+00 0.  1.
<scales pt_clust_5="13000.00000" pt_clust_6="13000.00000" pt_clust_7="13000.00000" pt_clust_8="13000.00000" pt_clust_9="13000.00000"></scales>
<clustering>
<clus scale="   81.022">  5  6 -1 -1</clus>
<clus scale="   90.585">  7  8 -1 -1</clus>
<clus scale="  140.780">  1  7  2 -1</clus>
<clus scale="  143.374">  5  9 -1 -1</clus>
<clus scale="  515.692">  2  5  1 -1</clus>
</clustering>
</event>
<event>
 9    2  0.6085395E-005  0.2717011E+03  0.7546771E-02  0.1144878E+00
         -1   -1    0    0    0  501 -0.00000000000E+00  0.00000000000E+00  0.49779017267E+03  0.49779017267E+03  0.00000000000E+00 0.  1.
         21   -1    0    0  501  502  0.00000000000E+00 -0.00000000000E+00 -0.82538389043E+02  0.82538389043E+02  0.00000000000E+00 0.  1.
         23    2    1    2    0    0  0.39023849825E+01  0.88700536964E+01  0.24212454044E+03  0.25815699407E+03  0.89032769489E+02 0.  0.
         24    2    1    2    0    0 -0.55457360576E+02  0.10653385085E+03  0.95615417988E+02  0.17390134225E+03  0.81696930547E+02 0.  0.
        -11    1    4    4    0    0 -0.25660519663E+02  0.94898853295E+02  0.33191780150E+02  0.10375909066E+03  0.00000000000E+00 0.  1.
         12    1    4    4    0    0 -0.29796840913E+02  0.11634997551E+02  0.62423637838E+02  0.70142251584E+02  0.00000000000E+00 0. -1.
        -13    1    3    3    0    0  0.40170540152E+02  0.27557062699E+02  0.13583913811E+03  0.14430985914E+03  0.00000000000E+00 0.  1.
         13    1    3    3    0    0 -0.36268155169E+02 -0.18687009003E+02  0.10628540233E+03  0.11384713494E+03  0.00000000000E+00 0. -1.
         -2    1    1    2    0  502  0.51554975593E+02 -0.11540390454E+03  0.77511825195E+02  0.14827022539E+03  0.00000000000E+00 0.  1.
<scales pt_clust_5="13000.00000" pt_clust_6="13000.00000" pt_clust_7="13000.00000" pt_clust_8="13000.00000" pt_clust_9="13000.00000"></scales>
<clustering>
<clus scale="   81.697">  5  6 -1 -1</clus>
<clus scale="   89.033">  7  8 -1 -1</clus>
<clus scale="   89.559">  1  7  2 -1</clus>
<clus scale="  123.473">  5  9 -1 -1</clus>
<clus scale="  271.701">  2  5  1 -1</clus>
</clustering>
</event>
<event>
 9    2  0.6085395E-005  0.2788069E+03  0.7546771E-02  0.1136961E+00
         21   -1    0    0  501  502  0.00000000000E+00  0.00000000000E+00  0.65045821344E+02  0.65045821344E+02  0.00000000000E+00 0. -1.
          2   -1    0    0  502    0 -0.00000000000E+00 -0.00000000000E+00 -0.55961514870E+03  0.55961514870E+03  0.00000000000E+00 0. -1.
         23    2    1    2    0    0  0.42710406273E+02  0.37265034470E+01 -0.10093727336E+03  0.14229237248E+03  0.90668188924E+02 0.  0.
         24    2    1    2    0    0  0.17954629103E+02  0.97480462292E+02 -0.89671434112E+02  0.15630854960E+03  0.81034482463E+02 0.  0.
        -11    1    4    4    0    0  0.12179601350E+02  0.51385213406E+02 -0.95858870615E+02  0.10944270611E+03  0.00000000000E+00 0.  1.
         12    1    4    4    0    0  0.57750277537E+01  0.46095248886E+02  0.61874365032E+01  0.46865843489E+02  0.00000000000E+00 0. -1.
        -11    1    3    3    0    0  0.60377889099E+02 -0.13581552037E+02 -0.99927333455E+02  0.11753901488E+03  0.00000000000E+00 0. -1.
         11    1    3    3    0    0 -0.17667482826E+02  0.17308055484E+02 -0.10099399017E+01  0.24753357604E+02  0.00000000000E+00 0.  1.
          1    1    1    2  501    0 -0.60665035376E+02 -0.10120696574E+03 -0.30396061989E+03  0.32606004796E+03  0.00000000000E+00 0. -1.
<scales pt_clust_5="13000.00000" pt_clust_6="13000.00000" pt_clust_7="13000.00000" pt_clust_8="13000.00000" pt_clust_9="13000.00000"></scales>
<clustering>
<clus scale="   81.034">  5  6 -1 -1</clus>
<clus scale="   90.668">  7  8 -1 -1</clus>
<clus scale="  100.294">  2  7  1 -1</clus>
<clus scale="  102.978">  5  9 -1 -1</clus>
<clus scale="  278.807">  1  5  2 -1</clus>
</clustering>
</event>
<event>
 9    2  0.6085395E-005  0.1318732E+03  0.7546771E-02  0.1235523E+00
         21   -1    0    0  501  502  0.00000000000E+00  0.00000000000E+00  0.79346411913E+02  0.79346411913E+02  0.00000000000E+00 0. -1.
         -3   -1    0    0    0  501 -0.00000000000E+00 -0.00000000000E+00 -0.21461132987E+03  0.21461132987E+03  0.00000000000E+00 0.  1.
         23    2    1    2    0    0  0.19666229047E+02 -0.46233960676E+02 -0.59463519402E+00  0.10547263153E+03  0.92735013487E+02 0.  0.
         24    2    1    2    0    0 -0.22510085771E+02  0.10654678970E+01 -0.63498626439E+02  0.10414244652E+03  0.79408654598E+02 0.  0.
        -13    1    4    4    0    0  0.27806507463E+02  0.33466199004E+00 -0.39715609706E+02  0.48483435421E+02  0.00000000000E+00 0.  1.
         14    1    4    4    0    0 -0.50316593234E+02  0.73080590694E+00 -0.23783016733E+02  0.55659011102E+02  0.00000000000E+00 0. -1.
        -13    1    3    3    0    0 -0.35961868420E+02 -0.29261332863E+02  0.67487906187E+01  0.46851123316E+02  0.00000000000E+00 0.  1.
         13    1    3    3    0    0  0.55628097467E+02 -0.16972627813E+02 -0.73434258127E+01  0.58621508215E+02  0.00000000000E+00 0. -1.
         -4    1    1    2    0  502  0.28438567240E+01  0.45168492779E+02 -0.71171656322E+02  0.84342663727E+02  0.00000000000E+00 0.  1.
<scales pt_clust_5="13000.00000" pt_clust_6="13000.00000" pt_clust_7="13000.00000" pt_clust_8="13000.00000" pt_clust_9="13000.00000"></scales>
<clustering>
<clus scale="   79.409">  5  6 -1 -1</clus>
<clus scale="   45.258">  5  9 -1 -1</clus>
<clus scale="   92.735">  7  8 -1 -1</clus>
<clus scale="  105.471">  2  7  1 -1</clus>
<clus scale="  131.873">  1  5  2 -1</clus>
</clustering>
</event>
<event>
 9    2  0.6085395E-005  0.2104326E+03  0.7546771E-02  0.1169727E+00
         21   -1    0    0  501  502  0.00000000000E+00  0.00000000000E+00  0.35873199312E+02  0.35873199312E+02  0.00000000000E+00 0. -1.
          2   -1    0    0  502    0 -0.00000000000E+00 -0.00000000000E+00 -0.78089849949E+03  0.78089849949E+03  0.00000000000E+00 0. -1.
         23    2    1    2    0    0  0.18825261953E+01 -0.58556867365E+02 -0.38452556907E+03  0.39934871734E+03  0.90482231136E+02 0.  0.
         24    2    1    2    0    0  0.23896791433E+02 -0.10050359112E+02 -0.47822785875E+02  0.96271308850E+02  0.79429715470E+02 0.  0.
        -13    1    4    4    0    0  0.68942344630E+01 -0.29400431426E+02 -0.60458234034E+02  0.67580425415E+02  0.00000000000E+00 0.  1.
         14    1    4    4    0    0  0.17002556970E+02  0.19350072314E+02  0.12635448158E+02  0.28690883434E+02  0.00000000000E+00 0. -1.
        -11    1    3    3    0    0  0.71836032613E+01  0.23944718714E+02 -0.97567933817E+02  0.10071968735E+03  0.00000000000E+00 0.  1.
         11    1    3    3    0    0 -0.53010770660E+01 -0.82501586079E+02 -0.28695763526E+03  0.29862902999E+03  0.00000000000E+00 0. -1.
          1    1    1    2  501    0 -0.25779317628E+02  0.68607226477E+02 -0.31267694523E+03  0.32115167261E+03  0.00000000000E+00 0. -1.
<scales pt_clust_5="13000.00000" pt_clust_6="13000.00000" pt_clust_7="13000.00000" pt_clust_8="13000.00000" pt_clust_9="13000.00000"></scales>
<clustering>
<clus scale="   79.430">  5  6 -1 -1</clus>
<clus scale="   73.291">  5  9 -1 -1</clus>
<clus scale="   90.482">  7  8 -1 -1</clus>
<clus scale="  107.794">  2  7  1 -1</clus>
<clus scale="  210.433">  1  5  2 -1</clus>
</clustering>
</event>
<event>
 9    2  0.6085395E-005  0.2250567E+03  0.7546771E-02  0.1165731E+00
         21   -1    0    0  501  502  0.00000000000E+00  0.00000000000E+00  0.14446899745E+04  0.14446899745E+04  0.00000000000E+00 0. -1.
         -1   -1    0    0    0  501 -0.00000000000E+00 -0.00000000000E+00 -0.37508013071E+02  0.37508013071E+02  0.00000000000E+00 0.  1.
         23    2    1    2    0    0 -0.27314615530E+02 -0.30937508161E+01  0.54460370189E+02  0.11088248491E+03  0.92592300016E+02 0.  0.
         24    2    1    2    0    0  0.23884736843E+02  0.98786303643E+02  0.78240029633E+03  0.79301176918E+03  0.79926390634E+02 0.  0.
        -13    1    4    4    0    0 -0.88855860702E+01  0.35528590945E+02  0.93170907895E+02  0.10011020174E+03  0.00000000000E+00 0.  1.
         14    1    4    4    0    0  0.32770322914E+02  0.63257712698E+02  0.68922938843E+03  0.69290156744E+03  0.00000000000E+00 0. -1.
        -13    1    3    3    0    0 -0.37204091025E+02  0.31628108849E+02  0.42165598516E+01  0.49012866019E+02  0.00000000000E+00 0. -1.
         13    1    3    3    0    0  0.98894754945E+01 -0.34721859665E+02  0.50243810337E+02  0.61869618888E+02  0.00000000000E+00 0.  1.
         -2    1    1    2    0  502  0.34298786869E+01 -0.95692552827E+02  0.57032129495E+03  0.57830373352E+03  0.00000000000E+00 0.  1.
<scales pt_clust_5="13000.00000" pt_clust_6="13000.00000" pt_clust_7="13000.00000" pt_clust_8="13000.00000" pt_clust_9="13000.00000"></scales>
<clustering>
<clus scale="   79.926">  5  6 -1 -1</clus>
<clus scale="   92.592">  7  8 -1 -1</clus>
<clus scale="   95.754">  5  9 -1 -1</clus>
<clus scale="   96.587">  2  7  1 -1</clus>
<clus scale="  225.057">  1  5  2 -1</clus>
</clustering>
</event>
<event>
 9    2  0.6085395E-005  0.2001801E+03  0.7546771E-02  0.1167732E+00
         21   -1    0    0  501  502  0.00000000000E+00  0.00000000000E+00  0.18395517962E+03  0.18395517962E+03  0.00000000000E+00 0. -1.
          2   -1    0    0  502    0 -0.00000000000E+00 -0.00000000000E+00 -0.16987649992E+03  0.16987649992E+03  0.00000000000E+00 0. -1.
         23    2    1    2    0    0  0.65766594771E+02 -0.68762440404E+02 -0.54881345796E+02  0.14210650037E+03  0.90159731217E+02 0.  0.
         24    2    1    2    0    0  0.33428042147E+02  0.22026296466E+02  0.23064826619E+02  0.92854609122E+02  0.80544400615E+02 0.  0.
        -13    1    4    4    0    0  0.28821987867E+02  0.46743420915E+02 -0.50387839680E+01  0.55145659188E+02  0.00000000000E+00 0.  1.
         14    1    4    4    0    0  0.46060542802E+01 -0.24717124449E+02  0.28103610587E+02  0.37708949934E+02  0.00000000000E+00 0. -1.
        -11    1    3    3    0    0 -0.11091474914E+02 -0.49389698020E+02 -0.12141149040E+02  0.52055456835E+02  0.00000000000E+00 0.  1.
         11    1    3    3    0    0  0.76858069685E+02 -0.19372742384E+02 -0.42740196756E+02  0.90051043536E+02  0.00000000000E+00 0. -1.
          1    1    1    2  501    0 -0.99194636918E+02  0.46736143938E+02  0.45895198882E+02  0.11887057005E+03  0.00000000000E+00 0. -1.
<scales pt_clust_5="13000.00000" pt_clust_6="13000.00000" pt_clust_7="13000.00000" pt_clust_8="13000.00000" pt_clust_9="13000.00000"></scales>
<clustering>
<clus scale="   80.544">  5  6 -1 -1</clus>
<clus scale="   90.160">  7  8 -1 -1</clus>
<clus scale="  109.653">  5  9 -1 -1</clus>
<clus scale="  131.081">  2  7  1 -1</clus>
<clus scale="  200.180">  1  5  2 -1</clus>
</clustering>
</event>
<event>
 9    2  0.6085395E-005  0.4367846E+03  0.7546771E-02  0.1076032E+00
          2   -1    0    0  502    0 -0.00000000000E+00  0.00000000000E+00  0.10114482954E+04  0.10114482954E+04  0.00000000000E+00 0. -1.
         21   -1    0    0  501  502  0.00000000000E+00 -0.00000000000E+00 -0.84906223597E+02  0.84906223597E+02  0.00000000000E+00 0. -1.
         23    2    1    2    0    0 -0.72007802987E+02 -0.46900531879E+02  0.36036398141E+03  0.38127520458E+03  0.90132119435E+02 0.  0.
         24    2    1    2    0    0 -0.14423005002E+03  0.11957053681E+03  0.31965043422E+03  0.37919894293E+03  0.80721853411E+02 0.  0.
        -13    1    4    4    0    0 -0.42828986725E+02  0.56808600888E+02  0.58495443240E+02  0.92104593363E+02  0.00000000000E+00 0.  1.
         14    1    4    4    0    0 -0.10140106330E+03  0.62761935927E+02  0.26115499098E+03  0.28709434957E+03  0.00000000000E+00 0. -1.
        -11    1    3    3    0    0 -0.37867741589E+02  0.54608059744E+01  0.41920835391E+02  0.56755111618E+02  0.00000000000E+00 0.  1.
         11    1    3    3    0    0 -0.34140061398E+02 -0.52361337853E+02  0.31844314602E+03  0.32452009297E+03  0.00000000000E+00 0. -1.
          1    1    1    2  501    0  0.21623785301E+03 -0.72670004935E+02  0.24652765620E+03  0.33588037151E+03  0.00000000000E+00 0. -1.
<scales pt_clust_5="13000.00000" pt_clust_6="13000.00000" pt_clust_7="13000.00000" pt_clust_8="13000.00000" pt_clust_9="13000.00000"></scales>
<clustering>
<clus scale="   80.722">  5  6 -1 -1</clus>
<clus scale="   90.132">  7  8 -1 -1</clus>
<clus scale="  124.533">  1  7  2 -1</clus>
<clus scale="  206.176">  5  9 -1 -1</clus>
<clus scale="  436.785">  2  5  1 -1</clus>
</clustering>
</event>
<event>
 9    2  0.6085395E-005  0.9410475E+03  0.7546771E-02  0.9860302E-01
         -3   -1    0    0    0  501 -0.00000000000E+00  0.00000000000E+00  0.59905948517E+03  0.59905948517E+03  0.00000000000E+00 0.  1.
         21   -1    0    0  501  502  0.00000000000E+00 -0.00000000000E+00 -0.78263197975E+03  0.78263197975E+03  0.00000000000E+00 0.  1.
         23    2    1    2    0    0 -0.11339083521E+03 -0.11221196602E+03  0.27988417284E+03  0.33270980521E+03  0.83136378607E+02 0.  0.
         24    2    1    2    0    0 -0.33338952451E+02 -0.18129337740E+03  0.21553906168E+03  0.29485287935E+03  0.80637205517E+02 0.  0.
        -11    1    4    4    0    0  0.23364667564E+02 -0.52236318840E+02  0.86690507640E+02  0.10387388898E+03  0.00000000000E+00 0.  1.
         12    1    4    4    0    0 -0.56703620015E+02 -0.12905705856E+03  0.12884855404E+03  0.19097899038E+03  0.00000000000E+00 0. -1.
        -13    1    3    3    0    0 -0.65763866034E+02 -0.10861481933E+03  0.16429485308E+03  0.20764119004E+03  0.00000000000E+00 0.  1.
         13    1    3    3    0    0 -0.47626969177E+02 -0.35971466945E+01  0.11558931977E+03  0.12506861517E+03  0.00000000000E+00 0. -1.
         -4    1    1    2    0  502  0.14672978766E+03  0.29350534342E+03 -0.67899572911E+03  0.75412878035E+03  0.00000000000E+00 0.  1.
<scales pt_clust_5="13000.00000" pt_clust_6="13000.00000" pt_clust_7="13000.00000" pt_clust_8="13000.00000" pt_clust_9="13000.00000"></scales>
<clustering>
<clus scale="   80.637">  5  6 -1 -1</clus>
<clus scale="   83.136">  7  8 -1 -1</clus>
<clus scale="  179.891">  1  7  2 -1</clus>
<clus scale="  308.824">  5  9 -1 -1</clus>
<clus scale="  941.048">  2  5  1 -1</clus>
</clustering>
</event>
<event>
 9    2  0.6085395E-005  0.3189434E+03  0.7546771E-02  0.1118214E+00
         21   -1    0    0  501  502  0.00000000000E+00  0.00000000000E+00  0.38903816524E+03  0.38903816524E+03  0.00000000000E+00 0. -1.
         -1   -1    0    0    0  501 -0.00000000000E+00 -0.00000000000E+00 -0.12947503194E+03  0.12947503194E+03  0.00000000000E+00 0.  1.
         23    2    1    2    0    0 -0.51211735114E+02 -0.37885010930E+02  0.14452302153E+03  0.17945697024E+03  0.85205542960E+02 0.  0.
         24    2    1    2    0    0  0.12188854371E+03  0.73175456207E+02 -0.37359204446E+02  0.16739907334E+03  0.80095412590E+02 0.  0.
        -13    1    4    4    0    0  0.44704499371E+02  0.34243774616E+02  0.24180762597E+02  0.61284889196E+02  0.00000000000E+00 0.  1.
         14    1    4    4    0    0  0.77184044340E+02  0.38931681590E+02 -0.61539967043E+02  0.10611418414E+03  0.00000000000E+00 0. -1.
        -11    1    3    3    0    0 -0.28016084259E+02 -0.52807407052E+00 -0.38540835313E+00  0.28023711015E+02  0.00000000000E+00 0.  1.
         11    1    3    3    0    0 -0.23195650854E+02 -0.37356936860E+02  0.14490842988E+03  0.15143325923E+03  0.00000000000E+00 0. -1.
         -2    1    1    2    0  502 -0.70676808597E+02 -0.35290445277E+02  0.15239931622E+03  0.17165715361E+03  0.00000000000E+00 0.  1.
<scales pt_clust_5="13000.00000" pt_clust_6="13000.00000" pt_clust_7="13000.00000" pt_clust_8="13000.00000" pt_clust_9="13000.00000"></scales>
<clustering>
<clus scale="   80.095">  5  6 -1 -1</clus>
<clus scale="   78.998">  5  9 -1 -1</clus>
<clus scale="   85.206">  7  8 -1 -1</clus>
<clus scale="  106.386">  2  7  1 -1</clus>
<clus scale="  318.943">  1  5  2 -1</clus>
</clustering>
</event>
<event>
 9    2  0.6085395E-005  0.2937431E+03  0.7546771E-02  0.1105203E+00
          2   -1    0    0  502    0 -0.00000000000E+00  0.00000000000E+00  0.12398823720E+04  0.12398823720E+04  0.00000000000E+00 0. -1.
         21   -1    0    0  501  502  0.00000000000E+00 -0.00000000000E+00 -0.51215880559E+02  0.51215880559E+02  0.00000000000E+00 0.  1.
         23    2    1    2    0    0  0.27610326144E+02 -0.16303775955E+03  0.65582075736E+03  0.68264974656E+03  0.92553603592E+02 0.  0.
         24    2    1    2    0    0  0.44622214178E+02  0.47503702731E+02  0.66820449438E+02  0.12291248871E+03  0.79967266087E+02 0.  0.
        -13    1    4    4    0    0  0.63564397609E+02  0.22106580985E+02  0.60730323062E+02  0.90649355792E+02  0.00000000000E+00 0.  1.
         14    1    4    4    0    0 -0.18942183432E+02  0.25397121746E+02  0.60901263760E+01  0.32263132913E+02  0.00000000000E+00 0. -1.
        -11    1    3    3    0    0  0.22702845367E+02  0.92416921467E+00  0.48373320871E+02  0.53443909369E+02  0.00000000000E+00 0.  1.
         11    1    3    3    0    0  0.49074807770E+01 -0.16396192877E+03  0.60744743649E+03  0.62920583719E+03  0.00000000000E+00 0. -1.
          1    1    1    2  501    0 -0.72232540322E+02  0.11553405682E+03  0.46602528463E+03  0.48553601729E+03  0.00000000000E+00 0. -1.
<scales pt_clust_5="13000.00000" pt_clust_6="13000.00000" pt_clust_7="13000.00000" pt_clust_8="13000.00000" pt_clust_9="13000.00000"></scales>
<clustering>
<clus scale="   79.967">  5  6 -1 -1</clus>
<clus scale="   92.554">  7  8 -1 -1</clus>
<clus scale="  136.256">  5  9 -1 -1</clus>
<clus scale="  189.499">  1  7  2 -1</clus>
<clus scale="  293.743">  2  5  1 -1</clus>
</clustering>
</event>
