<event>
10    2  0.3984345E-006  0.1930555E+03  0.7546771E-02  0.1179555E+00
         21   -1    0    0  501  502  0.00000000000E+00  0.00000000000E+00  0.25987352948E+03  0.25987352948E+03  0.00000000000E+00 0. -1.
          1   -1    0    0  503    0 -0.00000000000E+00 -0.00000000000E+00 -0.32635769137E+03  0.32635769137E+03  0.00000000000E+00 0. -1.
         23    2    1    2    0    0 -0.37300858548E+02 -0.81304851911E+02 -0.90560463475E+02  0.15496757536E+03  0.88385060254E+02 0.  0.
         23    2    1    2    0    0  0.97543750675E+02  0.16902699028E+03  0.15958919960E+02  0.21542377985E+03  0.89820994523E+02 0.  0.
        -11    1    4    4    0    0  0.44381778109E+02  0.22977269033E+02  0.31734129209E+02  0.59200946588E+02  0.00000000000E+00 0.  1.
         11    1    4    4    0    0  0.53161972566E+02  0.14604972125E+03 -0.15775209248E+02  0.15622283326E+03  0.00000000000E+00 0. -1.
        -11    1    3    3    0    0  0.33932056281E+01 -0.81917399360E+02 -0.43720929343E+02  0.92916596069E+02  0.00000000000E+00 0. -1.
         11    1    3    3    0    0 -0.40694064176E+02  0.61254744923E+00 -0.46839534132E+02  0.62050979293E+02  0.00000000000E+00 0.  1.
         21    1    1    2  503  502  0.25260436084E+02  0.42531641881E+02 -0.26661866064E+02  0.56195064679E+02  0.00000000000E+00 0.  1.
          1    1    1    2  501    0 -0.85503328210E+02 -0.13025378025E+03  0.34779247684E+02  0.15964480096E+03  0.00000000000E+00 0. -1.
<scales pt_clust_5="13000.00000" pt_clust_6="13000.00000" pt_clust_7="13000.00000" pt_clust_8="13000.00000" pt_clust_9="49.46747" pt_clust_10="170.88771"></scales>
<clustering>
<clus scale="   49.467">  2  9  1 -1</clus>
<clus scale="   88.385">  7  8 -1 -1</clus>
<clus scale="   89.821">  5  6 -1 -1</clus>
<clus scale="  111.697">  2  7  1 -1</clus>
<clus scale="  170.888">  1 10  2 -1</clus>
<clus scale="  170.888">  1  5  2 -1</clus>
</clustering>
</event>
<event>
10    2  0.3984345E-006  0.9705742E+02  0.7546771E-02  0.1286651E+00
          2   -1    0    0  503    0 -0.00000000000E+00  0.00000000000E+00  0.50160362532E+03  0.50160362532E+03  0.00000000000E+00 0. -1.
         21   -1    0    0  501  502  0.00000000000E+00 -0.00000000000E+00 -0.37787334947E+02  0.37787334947E+02  0.00000000000E+00 0.  1.
         23    2    1    2    0    0  0.63038242970E+01  0.30630461515E+02  0.17056415238E+03  0.19646146659E+03  0.92341834530E+02 0.  0.
         23    2    1    2    0    0 -0.16702331240E+02 -0.15468202731E+02  0.83467775187E+02  0.12647978811E+03  0.92260685781E+02 0.  0.
        -13    1    3    3    0    0  0.42221270131E+02  0.39339140357E+02  0.12585379983E+03  0.13845353931E+03  0.00000000000E+00 0. -1.
         13    1    3    3    0    0 -0.35917445834E+02 -0.87086788421E+01  0.44710352558E+02  0.58007927288E+02  0.00000000000E+00 0.  1.
        -13    1    4    4    0    0  0.10719049674E+01 -0.43506651858E+02  0.82954468444E+01  0.44303410416E+02  0.00000000000E+00 0.  1.
         13    1    4    4    0    0 -0.17774236207E+02  0.28038449127E+02  0.75172328342E+02  0.82176377692E+02  0.00000000000E+00 0. -1.
         21    1    1    2  503  502  0.21488458092E+02  0.82729658939E+01  0.14240022732E+03  0.14424985455E+03  0.00000000000E+00 0.  1.
          2    1    1    2  501    0 -0.11089951149E+02 -0.23435224678E+02  0.67384135473E+02  0.72199851009E+02  0.00000000000E+00 0. -1.
<scales pt_clust_5="13000.00000" pt_clust_6="13000.00000" pt_clust_7="13000.00000" pt_clust_8="13000.00000" pt_clust_9="23.02598" pt_clust_10="22.88971"></scales>
<clustering>
<clus scale="   23.026">  1  9  2 -1</clus>
<clus scale="   22.890">  2 10  1 -1</clus>
<clus scale="   92.261">  7  8 -1 -1</clus>
<clus scale="   92.342">  5  6 -1 -1</clus>
<clus scale="   96.980">  2  7  1 -1</clus>
<clus scale="   22.890">  2  5  1 -1</clus>
</clustering>
</event>
<event>
10    2  0.3984345E-006  0.1838455E+03  0.7546771E-02  0.1164879E+00
          1   -1    0    0  503    0 -0.00000000000E+00  0.00000000000E+00  0.69988824151E+03  0.69988824151E+03  0.00000000000E+00 0. -1.
         21   -1    0    0  501  502  0.00000000000E+00 -0.00000000000E+00 -0.21773783781E+03  0.21773783781E+03  0.00000000000E+00 0. -1.
         23    2    1    2    0    0  0.18080597506E+03  0.30822775337E+02  0.32976700472E+03  0.38979450165E+03  0.97737567092E+02 0.  0.
         23    2    1    2    0    0 -0.12059506504E+03 -0.58911485980E+02  0.16546780342E+03  0.23194898047E+03  0.91689708703E+02 0.  0.
        -11    1    3    3    0    0  0.11791635989E+03  0.68076594563E+01  0.11549342154E+03  0.16519486244E+03  0.00000000000E+00 0.  1.
         11    1    3    3    0    0  0.62889615166E+02  0.24015115881E+02  0.21427358317E+03  0.22459963921E+03  0.00000000000E+00 0. -1.
        -11    1    4    4    0    0 -0.10418734052E+03 -0.73117072584E+02  0.16724747157E+03  0.21017332127E+03  0.00000000000E+00 0. -1.
         11    1    4    4    0    0 -0.16407724526E+02  0.14205586604E+02 -0.17796681564E+01  0.21775659201E+02  0.00000000000E+00 0.  1.
         21    1    1    2  503  502 -0.34410257456E+02  0.34452491921E+02  0.13599691953E+03  0.14445138330E+03  0.00000000000E+00 0. -1.
          1    1    1    2  501    0 -0.25800652562E+02 -0.63637812783E+01 -0.14908132397E+03  0.15143121389E+03  0.00000000000E+00 0. -1.
<scales pt_clust_5="13000.00000" pt_clust_6="13000.00000" pt_clust_7="13000.00000" pt_clust_8="13000.00000" pt_clust_9="49.57390" pt_clust_10="26.57389"></scales>
<clustering>
<clus scale="   26.574">  2 10  1 -1</clus>
<clus scale="   49.574">  1  9  2 -1</clus>
<clus scale="   91.690">  7  8 -1 -1</clus>
<clus scale="   97.738">  5  6 -1 -1</clus>
<clus scale="  180.703">  2  7  1 -1</clus>
<clus scale="   26.574">  2  5  1 -1</clus>
</clustering>
</event>
<event>
10    2  0.3984345E-006  0.1445551E+03  0.7546771E-02  0.1208148E+00
         21   -1    0    0  501  502  0.00000000000E+00  0.00000000000E+00  0.17285744693E+03  0.17285744693E+03  0.00000000000E+00 0. -1.
          2   -1    0    0  503    0 -0.00000000000E+00 -0.00000000000E+00 -0.88870615824E+03  0.88870615824E+03  0.00000000000E+00 0. -1.
         23    2    1    2    0    0  0.54241304246E+02  0.20969211421E+03 -0.42413120360E+03  0.48493458224E+03  0.91440523516E+02 0.  0.
         23    2    1    2    0    0 -0.88016917464E+02 -0.44309294106E+02  0.26463916104E+02  0.13434913478E+03  0.87401715405E+02 0.  0.
        -11    1    4    4    0    0  0.61412291645E+01 -0.19502042144E+02  0.30700437043E+02  0.36885785583E+02  0.00000000000E+00 0.  1.
         11    1    4    4    0    0 -0.94158146629E+02 -0.24807251962E+02 -0.42365209390E+01  0.97463349194E+02  0.00000000000E+00 0. -1.
        -13    1    3    3    0    0  0.61678217648E+02  0.18400118701E+03 -0.41230101297E+03  0.45568932909E+03  0.00000000000E+00 0. -1.
         13    1    3    3    0    0 -0.74369134026E+01  0.25690927205E+02 -0.11830190629E+02  0.29245253152E+02  0.00000000000E+00 0.  1.
         21    1    1    2  503  502  0.11580894681E+01 -0.12208009280E+03 -0.35588620700E+03  0.37624444522E+03  0.00000000000E+00 0. -1.
          2    1    1    2  501    0  0.32617523751E+02 -0.43302727307E+02  0.37704783174E+02  0.66035442923E+02  0.00000000000E+00 0. -1.
<scales pt_clust_5="13000.00000" pt_clust_6="13000.00000" pt_clust_7="13000.00000" pt_clust_8="13000.00000" pt_clust_9="125.78386" pt_clust_10="54.21281"></scales>
<clustering>
<clus scale="   54.213">  1 10  2 -1</clus>
<clus scale="   87.402">  5  6 -1 -1</clus>
<clus scale="   91.441">  7  8 -1 -1</clus>
<clus scale="  125.784">  2  9  1 -1</clus>
<clus scale="  142.035">  1  5  2 -1</clus>
<clus scale="   54.213">  1  5  2 -1</clus>
</clustering>
</event>
<event>
10    2  0.3984345E-006  0.2844994E+03  0.7546771E-02  0.1118108E+00
         21   -1    0    0  501  502  0.00000000000E+00  0.00000000000E+00  0.52923582165E+03  0.52923582165E+03  0.00000000000E+00 0. -1.
          2   -1    0    0  503    0 -0.00000000000E+00 -0.00000000000E+00 -0.44105566646E+03  0.44105566646E+03  0.00000000000E+00 0. -1.
         23    2    1    2    0    0  0.96980984621E+02  0.63532982091E+02 -0.27415920733E+02  0.14880982646E+03  0.89168270976E+02 0.  0.
         23    2    1    2    0    0 -0.23281059368E+03  0.17909315943E+03 -0.70965275949E+02  0.31438061221E+03  0.86740801575E+02 0.  0.
        -11    1    4    4    0    0 -0.14461976797E+03  0.15584396062E+03 -0.67668740873E+02  0.22311717961E+03  0.00000000000E+00 0. -1.
         11    1    4    4    0    0 -0.88190825711E+02  0.23249198810E+02 -0.32965350760E+01  0.91263432591E+02  0.00000000000E+00 0.  1.
        -13    1    3    3    0    0  0.70258617784E+02  0.78246583443E+02 -0.44107763500E+02  0.11403638014E+03  0.00000000000E+00 0. -1.
         13    1    3    3    0    0  0.26722366837E+02 -0.14713601352E+02  0.16691842766E+02  0.34773446322E+02  0.00000000000E+00 0.  1.
         21    1    1    2  503  502  0.20536448699E+02  0.34000648529E+01 -0.10588927157E+03  0.10791591171E+03  0.00000000000E+00 0. -1.
          2    1    1    2  501    0  0.11529316036E+03 -0.24602620637E+03  0.29245062343E+03  0.39918513774E+03  0.00000000000E+00 0. -1.
<scales pt_clust_5="13000.00000" pt_clust_6="13000.00000" pt_clust_7="13000.00000" pt_clust_8="13000.00000" pt_clust_9="20.81601" pt_clust_10="270.95374"></scales>
<clustering>
<clus scale="   20.816">  2  9  1 -1</clus>
<clus scale="   86.741">  5  6 -1 -1</clus>
<clus scale="   89.168">  7  8 -1 -1</clus>
<clus scale="  150.290">  2  7  1 -1</clus>
<clus scale="  270.954">  1 10  2 -1</clus>
<clus scale="  270.954">  1  5  2 -1</clus>
</clustering>
</event>
<event>
10    2  0.3984345E-006  0.1329714E+03  0.7546771E-02  0.1240801E+00
          1   -1    0    0  503    0 -0.00000000000E+00  0.00000000000E+00  0.70234939133E+03  0.70234939133E+03  0.00000000000E+00 0. -1.
         21   -1    0    0  501  502  0.00000000000E+00 -0.00000000000E+00 -0.80834690509E+02  0.80834690509E+02  0.00000000000E+00 0. -1.
         23    2    1    2    0    0  0.15053492656E+02 -0.42628070008E+01  0.20967052618E+03  0.22912461031E+03  0.91058104189E+02 0.  0.
         23    2    1    2    0    0  0.75085940364E+02 -0.46655771086E+02  0.12521533017E+03  0.18048807009E+03  0.95301653300E+02 0.  0.
        -11    1    3    3    0    0 -0.38266577736E+02 -0.55363305746E+01  0.77849908946E+02  0.86922898311E+02  0.00000000000E+00 0.  1.
         11    1    3    3    0    0  0.53320070392E+02  0.12735235737E+01  0.13182061723E+03  0.14220171200E+03  0.00000000000E+00 0. -1.
        -11    1    4    4    0    0  0.52116320038E+02 -0.72879268030E+02  0.64224508105E+02  0.11023740728E+03  0.00000000000E+00 0. -1.
         11    1    4    4    0    0  0.22969620325E+02  0.26223496944E+02  0.60990822062E+02  0.70250662813E+02  0.00000000000E+00 0.  1.
         21    1    1    2  503  502 -0.10307245523E+03 -0.55891087252E+02  0.21319357270E+03  0.24330894784E+03  0.00000000000E+00 0.  1.
          1    1    1    2  501    0  0.12933022208E+02  0.10680966534E+03  0.73435271775E+02  0.13026245359E+03  0.00000000000E+00 0. -1.
<scales pt_clust_5="13000.00000" pt_clust_6="13000.00000" pt_clust_7="13000.00000" pt_clust_8="13000.00000" pt_clust_9="92.73072" pt_clust_10="107.12857"></scales>
<clustering>
<clus scale="   91.058">  5  6 -1 -1</clus>
<clus scale="   92.392">  1  5  2 -1</clus>
<clus scale="   95.302">  7  8 -1 -1</clus>
<clus scale="  107.129">  2 10  1 -1</clus>
<clus scale="   92.731">  1  9  2 -1</clus>
<clus scale="  107.129">  2  5  1 -1</clus>
</clustering>
</event>
<event>
10    2  0.3984345E-006  0.1038639E+03  0.7546771E-02  0.1274304E+00
         21   -1    0    0  501  502  0.00000000000E+00  0.00000000000E+00  0.77788129232E+02  0.77788129232E+02  0.00000000000E+00 0. -1.
          1   -1    0    0  503    0 -0.00000000000E+00 -0.00000000000E+00 -0.11029699473E+04  0.11029699473E+04  0.00000000000E+00 0. -1.
         23    2    1    2    0    0 -0.11320124182E+02 -0.11611845221E+03 -0.44651347594E+03  0.47076947732E+03  0.92940714541E+02 0.  0.
         23    2    1    2    0    0 -0.44138944597E+02  0.20919840757E+02 -0.55983516796E+02  0.11569848432E+03  0.88691030851E+02 0.  0.
        -11    1    3    3    0    0  0.32518989158E+02 -0.10882820450E+02 -0.83195991128E+02  0.89986073237E+02  0.00000000000E+00 0.  1.
         11    1    3    3    0    0 -0.43839113340E+02 -0.10523563176E+03 -0.36331748481E+03  0.38078340408E+03  0.00000000000E+00 0. -1.
        -13    1    4    4    0    0 -0.31218082325E+02 -0.11621984365E+02  0.15012755348E+02  0.36537952977E+02  0.00000000000E+00 0.  1.
         13    1    4    4    0    0 -0.12920862273E+02  0.32541825122E+02 -0.70996272144E+02  0.79160531343E+02  0.00000000000E+00 0. -1.
         21    1    1    2  503  502  0.29269983561E+02  0.86036341732E+02 -0.54874836882E+03  0.55622275782E+03  0.00000000000E+00 0. -1.
          1    1    1    2  501    0  0.26189085218E+02  0.91622697202E+01  0.26063543524E+02  0.38067357040E+02  0.00000000000E+00 0. -1.
<scales pt_clust_5="13000.00000" pt_clust_6="13000.00000" pt_clust_7="13000.00000" pt_clust_8="13000.00000" pt_clust_9="92.29464" pt_clust_10="27.74555"></scales>
<clustering>
<clus scale="   27.746">  1 10  2 -1</clus>
<clus scale="   88.691">  7  8 -1 -1</clus>
<clus scale="   92.295">  2  9  1 -1</clus>
<clus scale="   92.941">  5  6 -1 -1</clus>
<clus scale="  100.079">  1  7  2 -1</clus>
<clus scale="   27.746">  1  5  2 -1</clus>
</clustering>
</event>
<event>
10    2  0.3984345E-006  0.1334208E+03  0.7546771E-02  0.1222698E+00
         21   -1    0    0  501  502  0.00000000000E+00  0.00000000000E+00  0.81265751867E+02  0.81265751867E+02  0.00000000000E+00 0. -1.
          2   -1    0    0  503    0 -0.00000000000E+00 -0.00000000000E+00 -0.66053124219E+03  0.66053124219E+03  0.00000000000E+00 0. -1.
         23    2    1    2    0    0 -0.67356095396E+02 -0.29662155276E+02 -0.22967093964E+03  0.25809529780E+03  0.91911670585E+02 0.  0.
         23    2    1    2    0    0  0.11521045007E+03  0.46045711150E+02 -0.34356930628E+03  0.37689889948E+03  0.92839953095E+02 0.  0.
        -11    1    4    4    0    0  0.70690834466E+02 -0.11739300616E+01 -0.26856667162E+03  0.27771681493E+03  0.00000000000E+00 0. -1.
         11    1    4    4    0    0  0.44519615604E+02  0.47219641211E+02 -0.75002634655E+02  0.99182084546E+02  0.00000000000E+00 0.  1.
        -11    1    3    3    0    0 -0.62059201467E+02  0.33346706294E+01 -0.64470097566E+02  0.89548076446E+02  0.00000000000E+00 0.  1.
         11    1    3    3    0    0 -0.52968939298E+01 -0.32996825905E+02 -0.16520084208E+03  0.16854722136E+03  0.00000000000E+00 0. -1.
         21    1    1    2  503  502  0.11663475405E+02  0.17262642175E+02 -0.28079237374E+02  0.34963967808E+02  0.00000000000E+00 0.  1.
          2    1    1    2  501    0 -0.59517830079E+02 -0.33646198048E+02  0.22053992976E+02  0.71838828962E+02  0.00000000000E+00 0. -1.
<scales pt_clust_5="13000.00000" pt_clust_6="13000.00000" pt_clust_7="13000.00000" pt_clust_8="13000.00000" pt_clust_9="20.83352" pt_clust_10="67.63286"></scales>
<clustering>
<clus scale="   20.834">  2  9  1 -1</clus>
<clus scale="   67.633">  1 10  2 -1</clus>
<clus scale="   91.912">  7  8 -1 -1</clus>
<clus scale="   92.840">  5  6 -1 -1</clus>
<clus scale="  132.777">  2  7  1 -1</clus>
<clus scale="   67.633">  1  5  2 -1</clus>
</clustering>
</event>
<event>
10    2  0.3984345E-006  0.1077453E+03  0.7546771E-02  0.1265501E+00
          1   -1    0    0  503    0 -0.00000000000E+00  0.00000000000E+00  0.34283425882E+03  0.34283425882E+03  0.00000000000E+00 0. -1.
         21   -1    0    0  501  502  0.00000000000E+00 -0.00000000000E+00 -0.10147883262E+03  0.10147883262E+03  0.00000000000E+00 0.  1.
         23    2    1    2    0    0 -0.58845215608E+02  0.38089925969E+02  0.55614820040E+02  0.12702534339E+03  0.90160012168E+02 0.  0.
         23    2    1    2    0    0  0.24023484068E+02 -0.50601967199E+02  0.15846474784E+02  0.10585776852E+03  0.88414192989E+02 0.  0.
        -13    1    4    4    0    0  0.41196184587E+02 -0.65559423228E+02 -0.11567108415E+01  0.77437081417E+02  0.00000000000E+00 0.  1.
         13    1    4    4    0    0 -0.17172700518E+02  0.14957456029E+02  0.17003185626E+02  0.28420687103E+02  0.00000000000E+00 0. -1.
        -13    1    3    3    0    0 -0.33838167094E+02 -0.27492379397E+02  0.16086739474E+02  0.46471880359E+02  0.00000000000E+00 0.  1.
         13    1    3    3    0    0 -0.25007048514E+02  0.65582305366E+02  0.39528080566E+02  0.80553463027E+02  0.00000000000E+00 0. -1.
         21    1    1    2  503  502  0.50021889487E+01 -0.22652115907E+02  0.16320060892E+03  0.16484107195E+03  0.00000000000E+00 0. -1.
          1    1    1    2  501    0  0.29819542591E+02  0.35164157136E+02  0.66935224492E+01  0.46588907588E+02  0.00000000000E+00 0. -1.
<scales pt_clust_5="13000.00000" pt_clust_6="13000.00000" pt_clust_7="13000.00000" pt_clust_8="13000.00000" pt_clust_9="23.19785" pt_clust_10="44.09948"></scales>
<clustering>
<clus scale="   23.198">  1  9  2 -1</clus>
<clus scale="   44.099">  2 10  1 -1</clus>
<clus scale="   88.414">  5  6 -1 -1</clus>
<clus scale="   90.160">  7  8 -1 -1</clus>
<clus scale="  106.289">  2  5  1 -1</clus>
<clus scale="   44.099">  2  5  1 -1</clus>
</clustering>
</event>
<event>
10    2  0.3984345E-006  0.1080142E+03  0.7546771E-02  0.1265437E+00
         21   -1    0    0  503  502  0.00000000000E+00  0.00000000000E+00  0.10357412175E+03  0.10357412175E+03  0.00000000000E+00 0.  1.
         -3   -1    0    0    0  501 -0.00000000000E+00 -0.00000000000E+00 -0.41418077864E+03  0.41418077864E+03  0.00000000000E+00 0.  1.
         23    2    1    2    0    0  0.65109035051E+02  0.42301083937E+02 -0.19947468522E+03  0.23471913750E+03  0.96303454342E+02 0.  0.
         23    2    1    2    0    0  0.66409819176E+01 -0.10250468417E+02 -0.70199630022E+02  0.12190596441E+03  0.98913605541E+02 0.  0.
        -11    1    3    3    0    0  0.52839666659E+02 -0.20775137674E+02 -0.69630887140E+02  0.89844850503E+02  0.00000000000E+00 0. -1.
         11    1    3    3    0    0  0.12269368393E+02  0.63076221611E+02 -0.12984379808E+03  0.14487428700E+03  0.00000000000E+00 0.  1.
        -13    1    4    4    0    0  0.46278897782E+02  0.34279289846E+00 -0.73655473289E+01  0.46862620225E+02  0.00000000000E+00 0.  1.
         13    1    4    4    0    0 -0.39637915864E+02 -0.10593261315E+02 -0.62834082693E+02  0.75043344190E+02  0.00000000000E+00 0. -1.
         21    1    1    2  503  501 -0.31292463894E+02  0.16579833135E+02 -0.79506889054E+02  0.87037087327E+02  0.00000000000E+00 0. -1.
         -3    1    1    2    0  502 -0.40457553075E+02 -0.48630448655E+02  0.38574547403E+02  0.74092711143E+02  0.00000000000E+00 0.  1.
<scales pt_clust_5="13000.00000" pt_clust_6="13000.00000" pt_clust_7="13000.00000" pt_clust_8="13000.00000" pt_clust_9="35.41340" pt_clust_10="63.67646"></scales>
<clustering>
<clus scale="   35.413">  2  9  1 -1</clus>
<clus scale="   63.676">  1 10  2 -1</clus>
<clus scale="   96.303">  5  6 -1 -1</clus>
<clus scale="   98.914">  7  8 -1 -1</clus>
<clus scale="  105.629">  2  5  1 -1</clus>
<clus scale="   63.676">  1  5  2 -1</clus>
</clustering>
</event>
<event>
10    2  0.3984345E-006  0.1894294E+03  0.7546771E-02  0.1162265E+00
          2   -1    0    0  503    0 -0.00000000000E+00  0.00000000000E+00  0.13913519551E+03  0.13913519551E+03  0.00000000000E+00 0. -1.
         21   -1    0    0  501  502  0.00000000000E+00 -0.00000000000E+00 -0.99666317172E+03  0.99666317172E+03  0.00000000000E+00 0.  1.
         23    2    1    2    0    0 -0.74047415017E+02 -0.13691324324E+03  0.35850874327E+02  0.18537170243E+03  0.94069798699E+02 0.  0.
         23    2    1    2    0    0  0.42425947963E+02  0.17122092017E+03 -0.70964651617E+03  0.74071050738E+03  0.11805639866E+03 0.  0.
        -11    1    3    3    0    0 -0.42493125849E+02 -0.42752804859E+02 -0.28871068473E+02  0.66835669089E+02  0.00000000000E+00 0.  1.
         11    1    3    3    0    0 -0.31554289168E+02 -0.94160438378E+02  0.64721942800E+02  0.11853603334E+03  0.00000000000E+00 0. -1.
        -13    1    4    4    0    0 -0.41094959510E+02  0.60244343157E+02 -0.26740791102E+03  0.27717353311E+03  0.00000000000E+00 0. -1.
         13    1    4    4    0    0  0.83520907472E+02  0.11097657701E+03 -0.44223860515E+03  0.46353697427E+03  0.00000000000E+00 0.  1.
         21    1    1    2  503  502  0.30408165518E+02  0.34273536508E+00 -0.91970661495E+01  0.31770426870E+02  0.00000000000E+00 0. -1.
          2    1    1    2  501    0  0.12133015364E+01 -0.34650412299E+02 -0.17453526821E+03  0.17794573056E+03  0.00000000000E+00 0. -1.
<scales pt_clust_5="13000.00000" pt_clust_6="13000.00000" pt_clust_7="13000.00000" pt_clust_8="13000.00000" pt_clust_9="30.41010" pt_clust_10="34.68364"></scales>
<clustering>
<clus scale="   30.410">  1  9  2 -1</clus>
<clus scale="   34.684">  2 10  1 -1</clus>
<clus scale="   94.070">  5  6 -1 -1</clus>
<clus scale="  118.056">  7  8 -1 -1</clus>
<clus scale="  175.486">  1  5  2 -1</clus>
<clus scale="   34.684">  2  5  1 -1</clus>
</clustering>
</event>
<event>
10    2  0.3984345E-006  0.1412368E+03  0.7546771E-02  0.1211793E+00
         -3   -1    0    0    0  501 -0.00000000000E+00  0.00000000000E+00  0.10068186701E+03  0.10068186701E+03  0.00000000000E+00 0.  1.
         21   -1    0    0  503  502  0.00000000000E+00 -0.00000000000E+00 -0.54863641494E+03  0.54863641494E+03  0.00000000000E+00 0. -1.
         23    2    1    2    0    0 -0.39829694942E+02  0.11595287713E+03 -0.48656723054E+02  0.16030493915E+03  0.91097324349E+02 0.  0.
         23    2    1    2    0    0  0.59154477400E+02 -0.85578927783E+02 -0.17362193798E+03  0.22218608686E+03  0.91646466222E+02 0.  0.
        -11    1    3    3    0    0 -0.34822409039E+02  0.21889425613E+02 -0.51692338037E+02  0.66059404604E+02  0.00000000000E+00 0.  1.
         11    1    3    3    0    0 -0.50072859033E+01  0.94063451517E+02  0.30356149833E+01  0.94245534545E+02  0.00000000000E+00 0. -1.
        -13    1    4    4    0    0 -0.13599685719E+01 -0.31972162920E+02 -0.15143074339E+01  0.32036882547E+02  0.00000000000E+00 0.  1.
         13    1    4    4    0    0  0.60514445972E+02 -0.53606764863E+02 -0.17210763055E+03  0.19014920432E+03  0.00000000000E+00 0. -1.
         21    1    1    2  503  501  0.85111876796E+01 -0.20523744518E+02  0.13392238561E+02  0.25942560753E+02  0.00000000000E+00 0. -1.
         -3    1    1    2    0  502 -0.27835970137E+02 -0.98502048295E+01 -0.23906812545E+03  0.24088469519E+03  0.00000000000E+00 0.  1.
<scales pt_clust_5="13000.00000" pt_clust_6="13000.00000" pt_clust_7="13000.00000" pt_clust_8="13000.00000" pt_clust_9="22.21856" pt_clust_10="29.51526"></scales>
<clustering>
<clus scale="   22.219">  1  9  2 -1</clus>
<clus scale="   29.515">  2 10  1 -1</clus>
<clus scale="   91.097">  5  6 -1 -1</clus>
<clus scale="   91.646">  7  8 -1 -1</clus>
<clus scale="  140.881">  1  5  2 -1</clus>
<clus scale="   29.515">  2  5  1 -1</clus>
</clustering>
</event>
<event>
10    2  0.3984345E-006  0.2579248E+03  0.7546771E-02  0.1139111E+00
         -3   -1    0    0    0  501 -0.00000000000E+00  0.00000000000E+00  0.10324573963E+04  0.10324573963E+04  0.00000000000E+00 0.  1.
         21   -1    0    0  503  502  0.00000000000E+00 -0.00000000000E+00 -0.11234515196E+03  0.11234515196E+03  0.00000000000E+00 0.  1.
         23    2    1    2    0    0  0.46737885965E+02 -0.47644531588E+02  0.20332095765E+03  0.23489241163E+03  0.96853507161E+02 0.  0.
         23    2    1    2    0    0 -0.82186553256E+02 -0.19188685637E+03  0.47003945376E+03  0.52219268104E+03  0.90404163950E+02 0.  0.
        -11    1    3    3    0    0  0.87958534599E+01 -0.71357176711E+02  0.11019334568E+03  0.13157426472E+03  0.00000000000E+00 0. -1.
         11    1    3    3    0    0  0.37942032505E+02  0.23712645123E+02  0.93127611972E+02  0.10331814691E+03  0.00000000000E+00 0.  1.
        -13    1    4    4    0    0 -0.10085816606E+03 -0.17524962445E+03  0.42589136482E+03  0.47145334357E+03  0.00000000000E+00 0.  1.
         13    1    4    4    0    0  0.18671612802E+02 -0.16637231917E+02  0.44148088943E+02  0.50739337479E+02  0.00000000000E+00 0. -1.
         21    1    1    2  503  501  0.76571164470E+01 -0.20264566265E+02  0.67424323365E+02  0.70818948449E+02  0.00000000000E+00 0.  1.
         -3    1    1    2    0  502  0.27791550844E+02  0.25979595422E+03  0.17932750951E+03  0.31689850709E+03  0.00000000000E+00 0.  1.
<scales pt_clust_5="13000.00000" pt_clust_6="13000.00000" pt_clust_7="13000.00000" pt_clust_8="13000.00000" pt_clust_9="21.66297" pt_clust_10="241.56215"></scales>
<clustering>
<clus scale="   21.663">  1  9  2 -1</clus>
<clus scale="   90.404">  7  8 -1 -1</clus>
<clus scale="   96.854">  5  6 -1 -1</clus>
<clus scale="  120.255">  1  5  2 -1</clus>
<clus scale="  241.562">  2 10  1 -1</clus>
<clus scale="  241.562">  2  5  1 -1</clus>
</clustering>
</event>
<event>
10    2  0.3984345E-006  0.1073380E+03  0.7546771E-02  0.1266035E+00
          1   -1    0    0  503    0 -0.00000000000E+00  0.00000000000E+00  0.79563778126E+03  0.79563778126E+03  0.00000000000E+00 0. -1.
         21   -1    0    0  501  502  0.00000000000E+00 -0.00000000000E+00 -0.51462631011E+02  0.51462631011E+02  0.00000000000E+00 0. -1.
         23    2    1    2    0    0 -0.53881682114E+02  0.64918621498E+01  0.38802581021E+03  0.40248071095E+03  0.92094046289E+02 0.  0.
         23    2    1    2    0    0  0.48982822832E+02  0.15365375476E+02  0.23173336389E+03  0.25419474866E+03  0.90990145671E+02 0.  0.
        -11    1    3    3    0    0 -0.57589993192E+02 -0.22752378770E+02  0.34379415256E+03  0.34932606171E+03  0.00000000000E+00 0. -1.
         11    1    3    3    0    0  0.37083110779E+01  0.29244240920E+02  0.44231657644E+02  0.53154649241E+02  0.00000000000E+00 0.  1.
        -13    1    4    4    0    0  0.71591138971E-01  0.30256218542E+02  0.19747517343E+02  0.36130434913E+02  0.00000000000E+00 0.  1.
         13    1    4    4    0    0  0.48911231693E+02 -0.14890843066E+02  0.21198584655E+03  0.21806431375E+03  0.00000000000E+00 0. -1.
         21    1    1    2  503  502 -0.20008135158E+02  0.15685409609E+02  0.14035211171E+03  0.14263615533E+03  0.00000000000E+00 0.  1.
          1    1    1    2  501    0  0.24906994440E+02 -0.37542647235E+02 -0.15936135557E+02  0.47788797327E+02  0.00000000000E+00 0. -1.
<scales pt_clust_5="13000.00000" pt_clust_6="13000.00000" pt_clust_7="13000.00000" pt_clust_8="13000.00000" pt_clust_9="25.42356" pt_clust_10="44.46630"></scales>
<clustering>
<clus scale="   25.424">  1  9  2 -1</clus>
<clus scale="   44.466">  2 10  1 -1</clus>
<clus scale="   90.990">  7  8 -1 -1</clus>
<clus scale="   92.094">  5  6 -1 -1</clus>
<clus scale="  106.392">  2  7  1 -1</clus>
<clus scale="   44.466">  2  5  1 -1</clus>
</clustering>
</event>
<event>
10    2  0.3984345E-006  0.1931073E+03  0.7546771E-02  0.1156671E+00
          1   -1    0    0  503    0 -0.00000000000E+00  0.00000000000E+00  0.56423810154E+03  0.56423810154E+03  0.00000000000E+00 0. -1.
         21   -1    0    0  501  502  0.00000000000E+00 -0.00000000000E+00 -0.11536026597E+03  0.11536026597E+03  0.00000000000E+00 0.  1.
         23    2    1    2    0    0  0.19401231810E+03  0.25365210806E+02  0.23168263597E+03  0.31806870876E+03  0.95951478323E+02 0.  0.
         23    2    1    2    0    0 -0.14048244149E+03 -0.48018280681E+02  0.10695736073E+03  0.20250565552E+03  0.86761695788E+02 0.  0.
        -11    1    3    3    0    0  0.10299515154E+03 -0.24723670732E+02  0.73891924771E+02  0.12914827789E+03  0.00000000000E+00 0.  1.
         11    1    3    3    0    0  0.91017166560E+02  0.50088881538E+02  0.15779071119E+03  0.18892043087E+03  0.00000000000E+00 0. -1.
        -13    1    4    4    0    0 -0.83547305224E+02  0.90021968374E+01  0.25234249236E+02  0.87738013954E+02  0.00000000000E+00 0.  1.
         13    1    4    4    0    0 -0.56935136270E+02 -0.57020477518E+02  0.81723111496E+02  0.11476764157E+03  0.00000000000E+00 0. -1.
         21    1    1    2  503  502 -0.49747614038E+02  0.55994768579E+02  0.97912351115E+02  0.12327638749E+03  0.00000000000E+00 0. -1.
          1    1    1    2  501    0 -0.37822625688E+01 -0.33341698704E+02  0.12325487750E+02  0.35747615737E+02  0.00000000000E+00 0. -1.
<scales pt_clust_5="13000.00000" pt_clust_6="13000.00000" pt_clust_7="13000.00000" pt_clust_8="13000.00000" pt_clust_9="72.22379" pt_clust_10="33.55554"></scales>
<clustering>
<clus scale="   33.556">  2 10  1 -1</clus>
<clus scale="   72.224">  1  9  2 -1</clus>
<clus scale="   86.762">  7  8 -1 -1</clus>
<clus scale="   95.951">  5  6 -1 -1</clus>
<clus scale="  188.710">  2  7  1 -1</clus>
<clus scale="   33.556">  2  5  1 -1</clus>
</clustering>
</event>
<event>
10    2  0.3984345E-006  0.9950957E+02  0.7546771E-02  0.1281703E+00
          2   -1    0    0  503    0 -0.00000000000E+00  0.00000000000E+00  0.19443193546E+03  0.19443193546E+03  0.00000000000E+00 0. -1.
         21   -1    0    0  501  502  0.00000000000E+00 -0.00000000000E+00 -0.37448505458E+03  0.37448505458E+03  0.00000000000E+00 0.  1.
         23    2    1    2    0    0  0.90877665934E+01 -0.13897303206E+02  0.92207488209E+02  0.13053694709E+03  0.90895275648E+02 0.  0.
         23    2    1    2    0    0  0.51015649569E+02  0.39563610329E+02 -0.92877411049E+02  0.14462698123E+03  0.90126990704E+02 0.  0.
        -11    1    4    4    0    0  0.40160099825E+02 -0.22111278471E+02 -0.24782105175E+02  0.52114249399E+02  0.00000000000E+00 0. -1.
         11    1    4    4    0    0  0.10855549744E+02  0.61674888800E+02 -0.68095305875E+02  0.92512731831E+02  0.00000000000E+00 0.  1.
        -13    1    3    3    0    0  0.25455947335E+02  0.33582226413E+02  0.43934769631E+02  0.60877213866E+02  0.00000000000E+00 0.  1.
         13    1    3    3    0    0 -0.16368180741E+02 -0.47479529619E+02  0.48272718577E+02  0.69659733221E+02  0.00000000000E+00 0. -1.
         21    1    1    2  503  502  0.14346120018E+02 -0.36299987583E+02  0.43547012419E+02  0.58479419873E+02  0.00000000000E+00 0. -1.
          2    1    1    2  501    0 -0.74449536180E+02  0.10633680461E+02 -0.22293020870E+03  0.23527364185E+03  0.00000000000E+00 0. -1.
<scales pt_clust_5="13000.00000" pt_clust_6="13000.00000" pt_clust_7="13000.00000" pt_clust_8="13000.00000" pt_clust_9="39.03204" pt_clust_10="74.38740"></scales>
<clustering>
<clus scale="   39.032">  1  9  2 -1</clus>
<clus scale="   74.387">  2 10  1 -1</clus>
<clus scale="   90.127">  5  6 -1 -1</clus>
<clus scale="   90.895">  7  8 -1 -1</clus>
<clus scale="   98.808">  2  5  1 -1</clus>
<clus scale="   74.387">  2  5  1 -1</clus>
</clustering>
</event>
<event>
10    2  0.3984345E-006  0.1329802E+03  0.7546771E-02  0.1224643E+00
         21   -1    0    0  501  502  0.00000000000E+00  0.00000000000E+00  0.18100325024E+03  0.18100325024E+03  0.00000000000E+00 0. -1.
          1   -1    0    0  503    0 -0.00000000000E+00 -0.00000000000E+00 -0.41569876973E+03  0.41569876973E+03  0.00000000000E+00 0. -1.
         23    2    1    2    0    0  0.17699608153E+02  0.86583860021E+02 -0.16873369324E+03  0.21317736567E+03  0.95726114804E+02 0.  0.
         23    2    1    2    0    0 -0.29661318991E+01 -0.97314596420E+02 -0.15413489259E+03  0.20321621910E+03  0.89779385029E+02 0.  0.
        -13    1    3    3    0    0  0.31401876947E+02 -0.88036455309E+01 -0.56609758943E+02  0.65331821175E+02  0.00000000000E+00 0. -1.
         13    1    3    3    0    0 -0.13702268793E+02  0.95387505552E+02 -0.11212393430E+03  0.14784554450E+03  0.00000000000E+00 0.  1.
        -13    1    4    4    0    0 -0.22120414803E+02  0.80210777662E+01 -0.16025512459E+02  0.28468710704E+02  0.00000000000E+00 0.  1.
         13    1    4    4    0    0  0.19154282904E+02 -0.10533567419E+03 -0.13810938013E+03  0.17474750839E+03  0.00000000000E+00 0. -1.
         21    1    1    2  503  502 -0.36166851686E+02 -0.14742745964E+02 -0.35166250326E+02  0.52555255507E+02  0.00000000000E+00 0. -1.
          1    1    1    2  501    0  0.21433375432E+02  0.25473482363E+02  0.12333931667E+03  0.12775317969E+03  0.00000000000E+00 0. -1.
<scales pt_clust_5="13000.00000" pt_clust_6="13000.00000" pt_clust_7="13000.00000" pt_clust_8="13000.00000" pt_clust_9="34.52262" pt_clust_10="33.29096"></scales>
<clustering>
<clus scale="   33.291">  1 10  2 -1</clus>
<clus scale="   34.523">  1  9  2 -1</clus>
<clus scale="   89.779">  7  8 -1 -1</clus>
<clus scale="   95.726">  5  6 -1 -1</clus>
<clus scale="  128.766">  1  7  2 -1</clus>
<clus scale="   33.291">  1  5  2 -1</clus>
</clustering>
</event>
<event>
10    2  0.3984345E-006  0.9728166E+02  0.7546771E-02  0.1287093E+00
          2   -1    0    0  503    0 -0.00000000000E+00  0.00000000000E+00  0.60126900012E+03  0.60126900012E+03  0.00000000000E+00 0. -1.
         21   -1    0    0  501  502  0.00000000000E+00 -0.00000000000E+00 -0.49443436809E+02  0.49443436809E+02  0.00000000000E+00 0. -1.
         23    2    1    2    0    0  0.40242202265E+02 -0.21526876756E+02  0.40398938177E+03  0.41630768135E+03  0.89564634178E+02 0.  0.
         23    2    1    2    0    0 -0.59870226754E+01 -0.25568603603E+02  0.10351007421E+03  0.14059507961E+03  0.91449674778E+02 0.  0.
        -11    1    4    4    0    0 -0.23242245263E+02  0.70232040014E+01 -0.60267995284E+01  0.25016987665E+02  0.00000000000E+00 0.  1.
         11    1    4    4    0    0  0.17255222587E+02 -0.32591807605E+02  0.10953687373E+03  0.11557809194E+03  0.00000000000E+00 0. -1.
        -11    1    3    3    0    0  0.58342432035E+02 -0.41352098326E+02  0.25131490654E+03  0.26129105929E+03  0.00000000000E+00 0.  1.
         11    1    3    3    0    0 -0.18100229770E+02  0.19825221570E+02  0.15267447523E+03  0.15501662206E+03  0.00000000000E+00 0. -1.
         21    1    1    2  503  502  0.87000678677E+01  0.24020690959E+02  0.36306099535E+02  0.44393891906E+02  0.00000000000E+00 0. -1.
          2    1    1    2  501    0 -0.42955247457E+02  0.23074789400E+02  0.80200077941E+01  0.49415784067E+02  0.00000000000E+00 0. -1.
<scales pt_clust_5="13000.00000" pt_clust_6="13000.00000" pt_clust_7="13000.00000" pt_clust_8="13000.00000" pt_clust_9="25.54770" pt_clust_10="51.74838"></scales>
<clustering>
<clus scale="   25.548">  2  9  1 -1</clus>
<clus scale="   51.748">  2 10  1 -1</clus>
<clus scale="   89.565">  7  8 -1 -1</clus>
<clus scale="   91.450">  5  6 -1 -1</clus>
<clus scale="   95.512">  1  7  2 -1</clus>
<clus scale="   25.548">  2  5  1 -1</clus>
</clustering>
</event>
<event>
10    2  0.3984345E-006  0.1593597E+03  0.7546771E-02  0.1191072E+00
         21   -1    0    0  503  502  0.00000000000E+00  0.00000000000E+00  0.34909193703E+03  0.34909193703E+03  0.00000000000E+00 0. -1.
         -1   -1    0    0    0  501 -0.00000000000E+00 -0.00000000000E+00 -0.15317210332E+03  0.15317210332E+03  0.00000000000E+00 0.  1.
         23    2    1    2    0    0  0.11808825954E+03 -0.35452224798E+02  0.88229107339E+00  0.15945294320E+03  0.10110769196E+03 0.  0.
         23    2    1    2    0    0 -0.11878016420E+03  0.43330853562E+02  0.92030791397E+02  0.18136555718E+03  0.91855911545E+02 0.  0.
        -13    1    4    4    0    0 -0.11733557270E+03  0.69200376800E+01  0.82799138226E+02  0.14377489639E+03  0.00000000000E+00 0. -1.
         13    1    4    4    0    0 -0.14445915060E+01  0.36410815882E+02  0.92316531705E+01  0.37590660782E+02  0.00000000000E+00 0.  1.
        -13    1    3    3    0    0  0.18677774382E+02 -0.49928194255E+02  0.20469289995E+02  0.57102326313E+02  0.00000000000E+00 0.  1.
         13    1    3    3    0    0  0.99410485158E+02  0.14475969457E+02 -0.19586998922E+02  0.10235061689E+03  0.00000000000E+00 0. -1.
         21    1    1    2  503  501 -0.17162475205E+02 -0.32627503288E+02 -0.14818268835E+02  0.39732676946E+02  0.00000000000E+00 0. -1.
         -1    1    1    2    0  502  0.17854379870E+02  0.24748874525E+02  0.11782502007E+03  0.12171286302E+03  0.00000000000E+00 0.  1.
<scales pt_clust_5="13000.00000" pt_clust_6="13000.00000" pt_clust_7="13000.00000" pt_clust_8="13000.00000" pt_clust_9="35.22546" pt_clust_10="30.51697"></scales>
<clustering>
<clus scale="   30.517">  1 10  2 -1</clus>
<clus scale="   35.225">  2  9  1 -1</clus>
<clus scale="   91.856">  5  6 -1 -1</clus>
<clus scale="  101.108">  7  8 -1 -1</clus>
<clus scale="  153.656">  1  5  2 -1</clus>
<clus scale="   30.517">  1  5  2 -1</clus>
</clustering>
</event>
<event>
10    2  0.3984345E-006  0.1137621E+03  0.7546771E-02  0.1255080E+00
         21   -1    0    0  501  502  0.00000000000E+00  0.00000000000E+00  0.43825397928E+03  0.43825397928E+03  0.00000000000E+00 0. -1.
          2   -1    0    0  503    0 -0.00000000000E+00 -0.00000000000E+00 -0.73074406267E+03  0.73074406267E+03  0.00000000000E+00 0. -1.
         23    2    1    2    0    0  0.61726800819E+01  0.12655362192E+03 -0.49375599896E+03  0.51704470938E+03  0.86523544730E+02 0.  0.
         23    2    1    2    0    0  0.38535900049E+02 -0.73975438107E+01 -0.97512143126E+02  0.13854922210E+03  0.90263667334E+02 0.  0.
        -11    1    4    4    0    0  0.94125517608E+01 -0.42323053795E+02 -0.17986666526E+02  0.46939931678E+02  0.00000000000E+00 0. -1.
         11    1    4    4    0    0  0.29123348289E+02  0.34925509985E+02 -0.79525476600E+02  0.91609290423E+02  0.00000000000E+00 0.  1.
        -11    1    3    3    0    0  0.35118918018E+02  0.24071564679E+02 -0.20258635908E+03  0.20701210475E+03  0.00000000000E+00 0. -1.
         11    1    3    3    0    0 -0.28946237936E+02  0.10248205724E+03 -0.29116963988E+03  0.31003260463E+03  0.00000000000E+00 0.  1.
         21    1    1    2  503  502 -0.37808410350E+02 -0.39059354944E+02 -0.96108484761E+02  0.11041716327E+03  0.00000000000E+00 0.  1.
          2    1    1    2  501    0 -0.69001697814E+01 -0.80096723161E+02  0.39488654345E+03  0.40298694719E+03  0.00000000000E+00 0. -1.
<scales pt_clust_5="13000.00000" pt_clust_6="13000.00000" pt_clust_7="13000.00000" pt_clust_8="13000.00000" pt_clust_9="54.36092" pt_clust_10="80.66583"></scales>
<clustering>
<clus scale="   54.361">  2  9  1 -1</clus>
<clus scale="   80.666">  1 10  2 -1</clus>
<clus scale="   86.524">  7  8 -1 -1</clus>
<clus scale="   90.264">  5  6 -1 -1</clus>
<clus scale="  110.818">  2  7  1 -1</clus>
<clus scale="   80.666">  1  5  2 -1</clus>
</clustering>
</event>
<event>
10    2  0.3984345E-006  0.1755559E+03  0.7546771E-02  0.1172398E+00
         21   -1    0    0  501  502  0.00000000000E+00  0.00000000000E+00  0.32874502330E+03  0.32874502330E+03  0.00000000000E+00 0. -1.
          1   -1    0    0  503    0 -0.00000000000E+00 -0.00000000000E+00 -0.20873465334E+03  0.20873465334E+03  0.00000000000E+00 0. -1.
         23    2    1    2    0    0  0.13202556296E+03  0.45186517909E+02 -0.14167419938E+01  0.16782058736E+03  0.93215726731E+02 0.  0.
         23    2    1    2    0    0 -0.14002351228E+03 -0.28264728035E+02  0.11681977204E+03  0.20598565702E+03  0.91530065644E+02 0.  0.
        -11    1    4    4    0    0 -0.24772119286E+02 -0.26671278136E+02  0.75007886771E+02  0.83373845114E+02  0.00000000000E+00 0.  1.
         11    1    4    4    0    0 -0.11525139299E+03 -0.15934498990E+01  0.41811885274E+02  0.12261181191E+03  0.00000000000E+00 0. -1.
        -13    1    3    3    0    0  0.20510220182E+02  0.33490849810E+02  0.32175482199E+02  0.50769752881E+02  0.00000000000E+00 0.  1.
         13    1    3    3    0    0  0.11151534278E+03  0.11695668099E+02 -0.33592224193E+02  0.11705083448E+03  0.00000000000E+00 0. -1.
         21    1    1    2  503  502  0.36271265389E+02  0.55631349226E+01 -0.70976173725E+02  0.79901003746E+02  0.00000000000E+00 0. -1.
          1    1    1    2  501    0 -0.28273316070E+02 -0.22484924797E+02  0.75583513632E+02  0.83772428505E+02  0.00000000000E+00 0. -1.
<scales pt_clust_5="13000.00000" pt_clust_6="13000.00000" pt_clust_7="13000.00000" pt_clust_8="13000.00000" pt_clust_9="36.13506" pt_clust_10="36.12412"></scales>
<clustering>
<clus scale="   36.124">  1 10  2 -1</clus>
<clus scale="   36.135">  2  9  1 -1</clus>
<clus scale="   91.530">  5  6 -1 -1</clus>
<clus scale="   93.216">  7  8 -1 -1</clus>
<clus scale="  174.667">  1  5  2 -1</clus>
<clus scale="   36.124">  1  5  2 -1</clus>
</clustering>
</event>
<event>
10    2  0.3984345E-006  0.1238586E+03  0.7546771E-02  0.1246253E+00
         21   -1    0    0  501  502  0.00000000000E+00  0.00000000000E+00  0.19520387706E+03  0.19520387706E+03  0.00000000000E+00 0. -1.
          4   -1    0    0  503    0 -0.00000000000E+00 -0.00000000000E+00 -0.22637794033E+03  0.22637794033E+03  0.00000000000E+00 0.  1.
         23    2    1    2    0    0  0.85283333737E+01 -0.33766706580E+01 -0.57348476455E+02  0.13329288594E+03  0.11997504455E+03 0.  0.
         23    2    1    2    0    0 -0.58682123474E+01  0.50653064968E+02 -0.29136730177E+02  0.11397011186E+03  0.97673273955E+02 0.  0.
        -11    1    3    3    0    0 -0.34347788272E+02 -0.22234245368E+02 -0.73186818184E+02  0.83847734509E+02  0.00000000000E+00 0.  1.
         11    1    3    3    0    0  0.42876121645E+02  0.18857574710E+02  0.15838341729E+02  0.49445151431E+02  0.00000000000E+00 0. -1.
        -11    1    4    4    0    0 -0.37867809523E+02  0.48082034263E+00 -0.38182499792E+02  0.53778299310E+02  0.00000000000E+00 0. -1.
         11    1    4    4    0    0  0.31999597176E+02  0.50172244625E+02  0.90457696148E+01  0.60191812550E+02  0.00000000000E+00 0.  1.
         21    1    1    2  503  502  0.14470017331E+02 -0.35081497840E+02 -0.52330876860E+02  0.64642196476E+02  0.00000000000E+00 0. -1.
          4    1    1    2  501    0 -0.17130138358E+02 -0.12194896470E+02  0.10764202023E+03  0.10967662312E+03  0.00000000000E+00 0.  1.
<scales pt_clust_5="13000.00000" pt_clust_6="13000.00000" pt_clust_7="13000.00000" pt_clust_8="13000.00000" pt_clust_9="38.31354" pt_clust_10="21.02753"></scales>
<clustering>
<clus scale="   21.028">  1 10  2 -1</clus>
<clus scale="   38.314">  2  9  1 -1</clus>
<clus scale="   97.673">  7  8 -1 -1</clus>
<clus scale="  102.406">  1  7  2 -1</clus>
<clus scale="  119.975">  5  6 -1 -1</clus>
<clus scale="   21.028">  1  5  2 -1</clus>
</clustering>
</event>
<event>
10    2  0.3984345E-006  0.3313888E+03  0.7546771E-02  0.1070622E+00
         -1   -1    0    0    0  501 -0.00000000000E+00  0.00000000000E+00  0.26651641291E+03  0.26651641291E+03  0.00000000000E+00 0.  1.
         21   -1    0    0  503  502  0.00000000000E+00 -0.00000000000E+00 -0.10138526686E+04  0.10138526686E+04  0.00000000000E+00 0.  1.
         23    2    1    2    0    0 -0.71370334689E+02 -0.27393529041E+03  0.12115786110E+02  0.29753849498E+03  0.90819027285E+02 0.  0.
         23    2    1    2    0    0  0.70380476757E+02  0.42699078314E+03 -0.59133840067E+03  0.73798104700E+03  0.87523603842E+02 0.  0.
        -13    1    4    4    0    0 -0.87878972101E+01  0.16842975442E+03 -0.26564776285E+03  0.31466576429E+03  0.00000000000E+00 0. -1.
         13    1    4    4    0    0  0.79168373967E+02  0.25856102872E+03 -0.32569063782E+03  0.42331528271E+03  0.00000000000E+00 0.  1.
        -13    1    3    3    0    0 -0.47604761197E+02 -0.26682992242E+03  0.19255718923E+02  0.27172633935E+03  0.00000000000E+00 0.  1.
         13    1    3    3    0    0 -0.23765573492E+02 -0.71053679935E+01 -0.71399328136E+01  0.25812155631E+02  0.00000000000E+00 0. -1.
         21    1    1    2  503  501 -0.20842163134E+02 -0.10342594047E+02 -0.21115095264E-01  0.23267261583E+02  0.00000000000E+00 0.  1.
         -1    1    1    2    0  502  0.21832021066E+02 -0.14271289868E+03 -0.16809252602E+03  0.22158227794E+03  0.00000000000E+00 0.  1.
<scales pt_clust_5="13000.00000" pt_clust_6="13000.00000" pt_clust_7="13000.00000" pt_clust_8="13000.00000" pt_clust_9="23.26725" pt_clust_10="145.13382"></scales>
<clustering>
<clus scale="   23.267">  1  9  2 -1</clus>
<clus scale="   87.524">  5  6 -1 -1</clus>
<clus scale="   90.819">  7  8 -1 -1</clus>
<clus scale="  145.134">  2 10  1 -1</clus>
<clus scale="  330.501">  2  5  1 -1</clus>
<clus scale="  145.134">  2  5  1 -1</clus>
</clustering>
</event>
<event>
10    2  0.3984345E-006  0.9702750E+02  0.7546771E-02  0.1287512E+00
         -1   -1    0    0    0  501 -0.00000000000E+00  0.00000000000E+00  0.31881225333E+03  0.31881225333E+03  0.00000000000E+00 0.  1.
         21   -1    0    0  503  502  0.00000000000E+00 -0.00000000000E+00 -0.95785615741E+02  0.95785615741E+02  0.00000000000E+00 0.  1.
         23    2    1    2    0    0 -0.13796287193E+02  0.42795696258E+01  0.72709268961E+02  0.11525120237E+03  0.88247093999E+02 0.  0.
         23    2    1    2    0    0  0.34582315733E+02  0.62123697573E+02  0.48365917249E+02  0.12439645508E+03  0.89888407054E+02 0.  0.
        -11    1    4    4    0    0  0.19693937142E+02  0.80253895889E+02  0.55888413894E+02  0.99759980820E+02  0.00000000000E+00 0.  1.
         11    1    4    4    0    0  0.14888378590E+02 -0.18130198316E+02 -0.75224966452E+01  0.24636474257E+02  0.00000000000E+00 0. -1.
        -13    1    3    3    0    0 -0.40286738758E+02  0.17066092980E+02  0.73823884855E+02  0.85815143328E+02  0.00000000000E+00 0.  1.
         13    1    3    3    0    0  0.26490451564E+02 -0.12786523354E+02 -0.11146158943E+01  0.29436059046E+02  0.00000000000E+00 0. -1.
         21    1    1    2  503  501 -0.20388645322E+02 -0.32846663040E+02  0.12720553035E+03  0.13295054375E+03  0.00000000000E+00 0.  1.
         -1    1    1    2    0  502 -0.39738321715E+00 -0.33556604159E+02 -0.25254078977E+02  0.41999667869E+02  0.00000000000E+00 0.  1.
<scales pt_clust_5="13000.00000" pt_clust_6="13000.00000" pt_clust_7="13000.00000" pt_clust_8="13000.00000" pt_clust_9="39.99534" pt_clust_10="33.55896"></scales>
<clustering>
<clus scale="   33.559">  2 10  1 -1</clus>
<clus scale="   39.995">  1  9  2 -1</clus>
<clus scale="   88.247">  7  8 -1 -1</clus>
<clus scale="   89.888">  5  6 -1 -1</clus>
<clus scale="   95.509">  1  7  2 -1</clus>
<clus scale="   33.559">  2  5  1 -1</clus>
</clustering>
</event>
<event>
10    2  0.3984345E-006  0.9152345E+02  0.7546771E-02  0.1299334E+00
          1   -1    0    0  503    0 -0.00000000000E+00  0.00000000000E+00  0.45133448314E+03  0.45133448314E+03  0.00000000000E+00 0. -1.
         21   -1    0    0  501  502  0.00000000000E+00 -0.00000000000E+00 -0.28168664336E+03  0.28168664336E+03  0.00000000000E+00 0.  1.
         23    2    1    2    0    0  0.10182541831E+02  0.29179045924E+01  0.19111915288E+03  0.21168454570E+03  0.90397001954E+02 0.  0.
         23    2    1    2    0    0 -0.16302496590E+02  0.20271806940E+02 -0.51398358867E+02  0.10700471064E+03  0.90174826053E+02 0.  0.
        -11    1    3    3    0    0  0.23916934247E+02 -0.39546927192E+02  0.10365171775E+03  0.11348857999E+03  0.00000000000E+00 0. -1.
         11    1    3    3    0    0 -0.13734392416E+02  0.42464831784E+02  0.87467435132E+02  0.98195965712E+02  0.00000000000E+00 0.  1.
        -13    1    4    4    0    0 -0.15871007288E+02 -0.15825890983E+02  0.18021204374E+02  0.28759546326E+02  0.00000000000E+00 0. -1.
         13    1    4    4    0    0 -0.43148930201E+00  0.36097697923E+02 -0.69419563241E+02  0.78245164316E+02  0.00000000000E+00 0.  1.
         21    1    1    2  503  502 -0.19782451152E+02  0.18862133404E+02  0.21808938845E+03  0.21979560234E+03  0.00000000000E+00 0.  1.
          1    1    1    2  501    0  0.25902405911E+02 -0.42051844936E+02 -0.18816234269E+03  0.19453626783E+03  0.00000000000E+00 0. -1.
<scales pt_clust_5="13000.00000" pt_clust_6="13000.00000" pt_clust_7="13000.00000" pt_clust_8="13000.00000" pt_clust_9="27.33360" pt_clust_10="49.02676"></scales>
<clustering>
<clus scale="   27.334">  1  9  2 -1</clus>
<clus scale="   49.027">  2 10  1 -1</clus>
<clus scale="   90.175">  7  8 -1 -1</clus>
<clus scale="   90.397">  5  6 -1 -1</clus>
<clus scale="   91.304">  2  7  1 -1</clus>
<clus scale="   49.027">  2  5  1 -1</clus>
</clustering>
</event>
<event>
10    2  0.3984345E-006  0.1005535E+03  0.7546771E-02  0.1279227E+00
         21   -1    0    0  503  502  0.00000000000E+00  0.00000000000E+00  0.93281400911E+02  0.93281400911E+02  0.00000000000E+00 0. -1.
         -4   -1    0    0    0  501 -0.00000000000E+00 -0.00000000000E+00 -0.51961584231E+03  0.51961584231E+03  0.00000000000E+00 0.  1.
         23    2    1    2    0    0  0.20556974164E+02 -0.46462773187E+02 -0.13777977248E+03  0.17282271053E+03  0.91121046363E+02 0.  0.
         23    2    1    2    0    0  0.34361232860E+02  0.38165975484E+02 -0.54618835601E+02  0.11785123230E+03  0.90930521517E+02 0.  0.
        -13    1    4    4    0    0  0.53789124849E+02 -0.11193456154E+01 -0.50572160954E+02  0.73838109065E+02  0.00000000000E+00 0.  1.
         13    1    4    4    0    0 -0.19427891990E+02  0.39285321099E+02 -0.40466746473E+01  0.44013123233E+02  0.00000000000E+00 0. -1.
        -13    1    3    3    0    0  0.52254756838E+02 -0.50003066908E+02 -0.99196244280E+02  0.12276302860E+03  0.00000000000E+00 0.  1.
         13    1    3    3    0    0 -0.31697782673E+02  0.35402937205E+01 -0.38583528199E+02  0.50059681924E+02  0.00000000000E+00 0. -1.
         21    1    1    2  503  501 -0.71333112320E+02  0.20405198161E+02 -0.27042584587E+03  0.28041919182E+03  0.00000000000E+00 0. -1.
         -4    1    1    2    0  502  0.16414905297E+02 -0.12108400457E+02  0.36490012555E+02  0.41804108576E+02  0.00000000000E+00 0.  1.
<scales pt_clust_5="13000.00000" pt_clust_6="13000.00000" pt_clust_7="13000.00000" pt_clust_8="13000.00000" pt_clust_9="72.43316" pt_clust_10="20.39761"></scales>
<clustering>
<clus scale="   20.398">  1 10  2 -1</clus>
<clus scale="   72.433">  2  9  1 -1</clus>
<clus scale="   90.931">  5  6 -1 -1</clus>
<clus scale="   91.121">  7  8 -1 -1</clus>
<clus scale="  100.381">  1  5  2 -1</clus>
<clus scale="   20.398">  1  5  2 -1</clus>
</clustering>
</event>
<event>
10    2  0.3984345E-006  0.1927080E+03  0.7546771E-02  0.1160272E+00
          1   -1    0    0  503    0 -0.00000000000E+00  0.00000000000E+00  0.12840941776E+03  0.12840941776E+03  0.00000000000E+00 0. -1.
         21   -1    0    0  501  502  0.00000000000E+00 -0.00000000000E+00 -0.10497846008E+04  0.10497846008E+04  0.00000000000E+00 0. -1.
         23    2    1    2    0    0  0.51517307095E+01  0.16198499079E+03 -0.96185977302E+02  0.20881359356E+03  0.89920504081E+02 0.  0.
         23    2    1    2    0    0 -0.17267550487E+03 -0.76166714945E+02 -0.25688318968E+03  0.33292118925E+03  0.96069488724E+02 0.  0.
        -11    1    3    3    0    0  0.47592886864E+02  0.86690101473E+02 -0.50065277570E+02  0.11084578743E+03  0.00000000000E+00 0. -1.
         11    1    3    3    0    0 -0.42441156155E+02  0.75294889315E+02 -0.46120699732E+02  0.97967806123E+02  0.00000000000E+00 0.  1.
        -13    1    4    4    0    0 -0.15822979118E+03 -0.31562924955E+02 -0.17120088759E+03  0.23525014126E+03  0.00000000000E+00 0. -1.
         13    1    4    4    0    0 -0.14445713693E+02 -0.44603789990E+02 -0.85682302086E+02  0.97671047994E+02  0.00000000000E+00 0.  1.
         21    1    1    2  503  502  0.53719455429E+01 -0.23856010429E+02  0.14446881511E+02  0.28402102350E+02  0.00000000000E+00 0. -1.
          1    1    1    2  501    0  0.16215182862E+03 -0.61962265415E+02 -0.58275289758E+03  0.60805713342E+03  0.00000000000E+00 0. -1.
<scales pt_clust_5="13000.00000" pt_clust_6="13000.00000" pt_clust_7="13000.00000" pt_clust_8="13000.00000" pt_clust_9="24.45336" pt_clust_10="167.05398"></scales>
<clustering>
<clus scale="   24.453">  1  9  2 -1</clus>
<clus scale="   89.921">  5  6 -1 -1</clus>
<clus scale="   96.069">  7  8 -1 -1</clus>
<clus scale="  174.580">  1  5  2 -1</clus>
<clus scale="  167.054">  2 10  1 -1</clus>
<clus scale="  167.054">  2  5  1 -1</clus>
</clustering>
</event>
<event>
10    2  0.3984345E-006  0.1442188E+03  0.7546771E-02  0.1210968E+00
         -3   -1    0    0    0  501 -0.00000000000E+00  0.00000000000E+00  0.60138489632E+03  0.60138489632E+03  0.00000000000E+00 0.  1.
         21   -1    0    0  503  502  0.00000000000E+00 -0.00000000000E+00 -0.55440858107E+02  0.55440858107E+02  0.00000000000E+00 0. -1.
         23    2    1    2    0    0 -0.53224770105E+02 -0.85894933073E+02  0.19842974246E+03  0.23946326998E+03  0.88076553628E+02 0.  0.
         23    2    1    2    0    0  0.48271247346E+02  0.92407138328E+02  0.23549629600E+03  0.27703627199E+03  0.10208524886E+03 0.  0.
        -11    1    3    3    0    0 -0.40097325552E+02  0.36332087568E+01  0.87432203741E+02  0.96256874940E+02  0.00000000000E+00 0.  1.
         11    1    3    3    0    0 -0.13127444553E+02 -0.89528141830E+02  0.11099753872E+03  0.14320639504E+03  0.00000000000E+00 0. -1.
        -11    1    4    4    0    0  0.34915292771E+02  0.34695150685E+02  0.20418251171E+03  0.21003173388E+03  0.00000000000E+00 0.  1.
         11    1    4    4    0    0  0.13355954575E+02  0.57711987642E+02  0.31313784288E+02  0.67004538105E+02  0.00000000000E+00 0. -1.
         21    1    1    2  503  501  0.24548835487E+02  0.14574021818E+02  0.10745308911E+03  0.11118099565E+03  0.00000000000E+00 0.  1.
         -3    1    1    2    0  502 -0.19595312728E+02 -0.21086227072E+02  0.45649106477E+01  0.29145216799E+02  0.00000000000E+00 0.  1.
<scales pt_clust_5="13000.00000" pt_clust_6="13000.00000" pt_clust_7="13000.00000" pt_clust_8="13000.00000" pt_clust_9="28.54904" pt_clust_10="27.84877"></scales>
<clustering>
<clus scale="   28.549">  1  9  2 -1</clus>
<clus scale="   27.849">  2 10  1 -1</clus>
<clus scale="   88.077">  5  6 -1 -1</clus>
<clus scale="  102.085">  7  8 -1 -1</clus>
<clus scale="  134.667">  1  5  2 -1</clus>
<clus scale="   27.849">  2  5  1 -1</clus>
</clustering>
</event>
<event>
10    2  0.3984345E-006  0.4085553E+03  0.7546771E-02  0.1041039E+00
          2   -1    0    0  503    0 -0.00000000000E+00  0.00000000000E+00  0.14541320517E+04  0.14541320517E+04  0.00000000000E+00 0. -1.
         21   -1    0    0  501  502  0.00000000000E+00 -0.00000000000E+00 -0.50388043164E+03  0.50388043164E+03  0.00000000000E+00 0. -1.
         23    2    1    2    0    0  0.29268060581E+03  0.26433295782E+03  0.77814838741E+03  0.87816675217E+03  0.10063837325E+03 0.  0.
         23    2    1    2    0    0 -0.70180100037E+02 -0.48033680351E+03  0.31037722470E+03  0.58339721034E+03  0.91485475184E+02 0.  0.
        -11    1    3    3    0    0  0.28566814379E+03  0.22586265629E+03  0.73269861984E+03  0.81820993357E+03  0.00000000000E+00 0. -1.
         11    1    3    3    0    0  0.70124620233E+01  0.38470301532E+02  0.45449767574E+02  0.59956818596E+02  0.00000000000E+00 0.  1.
        -13    1    4    4    0    0 -0.84995819902E+02 -0.46150132965E+03  0.28789085843E+03  0.55053511517E+03  0.00000000000E+00 0. -1.
         13    1    4    4    0    0  0.14815719865E+02 -0.18835473861E+02  0.22486366272E+02  0.32862095168E+02  0.00000000000E+00 0.  1.
         21    1    1    2  503  502 -0.19228802216E+02  0.81012744000E+01  0.11131557521E+03  0.11325429248E+03  0.00000000000E+00 0.  1.
          2    1    1    2  501    0 -0.20327170356E+03  0.20790257129E+03 -0.24958956721E+03  0.38319422840E+03  0.00000000000E+00 0. -1.
<scales pt_clust_5="13000.00000" pt_clust_6="13000.00000" pt_clust_7="13000.00000" pt_clust_8="13000.00000" pt_clust_9="20.86570" pt_clust_10="291.72045"></scales>
<clustering>
<clus scale="   20.866">  1  9  2 -1</clus>
<clus scale="   91.485">  7  8 -1 -1</clus>
<clus scale="  100.638">  5  6 -1 -1</clus>
<clus scale="  291.720">  2 10  1 -1</clus>
<clus scale="  406.398">  2  7  1 -1</clus>
<clus scale="  291.720">  2  5  1 -1</clus>
</clustering>
</event>
<event>
10    2  0.3984345E-006  0.2293657E+03  0.7546771E-02  0.1161030E+00
         -3   -1    0    0    0  501 -0.00000000000E+00  0.00000000000E+00  0.68326500924E+03  0.68326500924E+03  0.00000000000E+00 0.  1.
         21   -1    0    0  501  502  0.00000000000E+00 -0.00000000000E+00 -0.17504258867E+03  0.17504258867E+03  0.00000000000E+00 0.  1.
         23    2    1    2    0    0  0.47758918866E+02  0.14730876479E+01  0.34314939675E+03  0.35808083960E+03  0.90483671896E+02 0.  0.
         23    2    1    2    0    0 -0.22059878710E+03  0.26471187229E+02  0.79545004550E+02  0.25308778808E+03  0.91441085410E+02 0.  0.
        -11    1    4    4    0    0 -0.14265522980E+03  0.45727103486E+02  0.15922780741E+02  0.15064865591E+03  0.00000000000E+00 0.  1.
         11    1    4    4    0    0 -0.77943557303E+02 -0.19255916257E+02  0.63622223809E+02  0.10243913216E+03  0.00000000000E+00 0. -1.
        -11    1    3    3    0    0 -0.17566985302E+01 -0.38225819992E+02  0.11090088703E+03  0.11731711745E+03  0.00000000000E+00 0.  1.
         11    1    3    3    0    0  0.49515617397E+02  0.39698907639E+02  0.23224850972E+03  0.24076372214E+03  0.00000000000E+00 0. -1.
         21    1    1    2  503  502 -0.28502546101E+02  0.61552830724E+00  0.10328944386E+02  0.30322616995E+02  0.00000000000E+00 0.  1.
         -3    1    1    2    0  503  0.20134241433E+03 -0.28559803184E+02  0.75199074892E+02  0.21681635324E+03  0.00000000000E+00 0.  1.
<scales pt_clust_5="13000.00000" pt_clust_6="13000.00000" pt_clust_7="13000.00000" pt_clust_8="13000.00000" pt_clust_9="28.50919" pt_clust_10="210.35009"></scales>
<clustering>
<clus scale="   28.509">  2  9  1 -1</clus>
<clus scale="   90.484">  7  8 -1 -1</clus>
<clus scale="   91.441">  5  6 -1 -1</clus>
<clus scale="  101.730">  1  7  2 -1</clus>
<clus scale="  210.350">  2 10  1 -1</clus>
<clus scale="   28.509">  2  5  1 -1</clus>
</clustering>
</event>
<event>
10    2  0.3984345E-006  0.1997795E+03  0.7546771E-02  0.1168363E+00
          2   -1    0    0  503    0 -0.00000000000E+00  0.00000000000E+00  0.11907464446E+04  0.11907464446E+04  0.00000000000E+00 0. -1.
         21   -1    0    0  501  502  0.00000000000E+00 -0.00000000000E+00 -0.13097211230E+03  0.13097211230E+03  0.00000000000E+00 0. -1.
         23    2    1    2    0    0 -0.40385932371E+02 -0.10487296931E+03  0.15758439213E+03  0.21416428069E+03  0.91674070802E+02 0.  0.
         23    2    1    2    0    0  0.78545042987E+02  0.18679818393E+03  0.44672407210E+03  0.49869273055E+03  0.89828489981E+02 0.  0.
        -11    1    3    3    0    0 -0.26783750320E+02 -0.22978527094E+01  0.15346086266E+01  0.26925906334E+02  0.00000000000E+00 0.  1.
         11    1    3    3    0    0 -0.13602182051E+02 -0.10257511660E+03  0.15604978350E+03  0.18723837436E+03  0.00000000000E+00 0. -1.
        -13    1    4    4    0    0  0.51184475644E+02  0.16786237744E+03  0.42261148866E+03  0.45760037003E+03  0.00000000000E+00 0. -1.
         13    1    4    4    0    0  0.27360567343E+02  0.18935806492E+02  0.24112583442E+02  0.41092360519E+02  0.00000000000E+00 0.  1.
         21    1    1    2  503  502  0.26356023575E+02  0.78778425638E+02  0.42498717873E+03  0.43302977082E+03  0.00000000000E+00 0. -1.
          2    1    1    2  501    0 -0.64515134191E+02 -0.16070364027E+03  0.30478689326E+02  0.17583177482E+03  0.00000000000E+00 0. -1.
<scales pt_clust_5="13000.00000" pt_clust_6="13000.00000" pt_clust_7="13000.00000" pt_clust_8="13000.00000" pt_clust_9="83.07033" pt_clust_10="178.44517"></scales>
<clustering>
<clus scale="   83.070">  1  9  2 -1</clus>
<clus scale="   89.828">  7  8 -1 -1</clus>
<clus scale="   91.674">  5  6 -1 -1</clus>
<clus scale="  129.973">  1  5  2 -1</clus>
<clus scale="  178.445">  2 10  1 -1</clus>
<clus scale="  178.445">  2  5  1 -1</clus>
</clustering>
</event>
<event>
10    2  0.3984345E-006  0.1594407E+03  0.7546771E-02  0.1189337E+00
         -1   -1    0    0    0  501 -0.00000000000E+00  0.00000000000E+00  0.10445405699E+04  0.10445405699E+04  0.00000000000E+00 0.  1.
         21   -1    0    0  503  502  0.00000000000E+00 -0.00000000000E+00 -0.75461000609E+02  0.75461000609E+02  0.00000000000E+00 0.  1.
         23    2    1    2    0    0 -0.42748184662E+02  0.14321597387E+03  0.22815838443E+03  0.28740528139E+03  0.90594287477E+02 0.  0.
         23    2    1    2    0    0  0.25334372751E+02 -0.11264291242E+03  0.19709106867E+03  0.24574622184E+03  0.90642484743E+02 0.  0.
        -11    1    3    3    0    0 -0.54178873471E+02  0.75898454305E+02  0.74841110920E+02  0.11957055482E+03  0.00000000000E+00 0. -1.
         11    1    3    3    0    0  0.11430688809E+02  0.67317519564E+02  0.15331727351E+03  0.16783472657E+03  0.00000000000E+00 0.  1.
        -11    1    4    4    0    0  0.57632591720E+02 -0.49966169213E+02  0.10280487021E+03  0.12801162069E+03  0.00000000000E+00 0.  1.
         11    1    4    4    0    0 -0.32298218969E+02 -0.62676743212E+02  0.94286198460E+02  0.11773460115E+03  0.00000000000E+00 0. -1.
         21    1    1    2  503  501  0.68282757991E+02 -0.19155472160E+02  0.52745936945E+03  0.53220564970E+03  0.00000000000E+00 0.  1.
         -1    1    1    2    0  502 -0.50868946079E+02 -0.11417589285E+02  0.16370746714E+02  0.54644417540E+02  0.00000000000E+00 0.  1.
<scales pt_clust_5="13000.00000" pt_clust_6="13000.00000" pt_clust_7="13000.00000" pt_clust_8="13000.00000" pt_clust_9="68.99292" pt_clust_10="52.13455"></scales>
<clustering>
<clus scale="   52.135">  2 10  1 -1</clus>
<clus scale="   68.993">  1  9  2 -1</clus>
<clus scale="   90.594">  5  6 -1 -1</clus>
<clus scale="   90.642">  7  8 -1 -1</clus>
<clus scale="  159.413">  1  5  2 -1</clus>
<clus scale="   52.135">  2  5  1 -1</clus>
</clustering>
</event>
<event>
10    2  0.3984345E-006  0.1315401E+03  0.7546771E-02  0.1234797E+00
         21   -1    0    0  501  502  0.00000000000E+00  0.00000000000E+00  0.83226150733E+02  0.83226150733E+02  0.00000000000E+00 0.  1.
          2   -1    0    0  503    0 -0.00000000000E+00 -0.00000000000E+00 -0.33711286866E+03  0.33711286866E+03  0.00000000000E+00 0. -1.
         23    2    1    2    0    0 -0.33164396870E+02 -0.35786345420E+02 -0.12163880618E+03  0.17671205053E+03  0.11853526856E+03 0.  0.
         23    2    1    2    0    0  0.55583220220E+02  0.44623211672E+02 -0.38913262387E+02  0.12238372331E+03  0.91557677733E+02 0.  0.
        -11    1    3    3    0    0 -0.28943605125E+00  0.28447441387E+02 -0.96012940300E+02  0.10013903035E+03  0.00000000000E+00 0.  1.
         11    1    3    3    0    0 -0.32874960819E+02 -0.64233786807E+02 -0.25625865882E+02  0.76573020174E+02  0.00000000000E+00 0. -1.
        -13    1    4    4    0    0 -0.12868071207E+02  0.43240066822E+02 -0.33640391979E+01  0.45239445123E+02  0.00000000000E+00 0.  1.
         13    1    4    4    0    0  0.68451291427E+02  0.13831448507E+01 -0.35549223189E+02  0.77144278187E+02  0.00000000000E+00 0. -1.
         21    1    1    2  503  502 -0.12056619795E+02  0.18119800728E+02 -0.89502109368E+02  0.92110351430E+02  0.00000000000E+00 0.  1.
          2    1    1    2  501    0 -0.10362203554E+02 -0.26956666981E+02 -0.38325399868E+01  0.29132894123E+02  0.00000000000E+00 0. -1.
<scales pt_clust_5="13000.00000" pt_clust_6="13000.00000" pt_clust_7="13000.00000" pt_clust_8="13000.00000" pt_clust_9="21.76440" pt_clust_10="28.06253"></scales>
<clustering>
<clus scale="   21.764">  2  9  1 -1</clus>
<clus scale="   28.063">  1 10  2 -1</clus>
<clus scale="   91.558">  7  8 -1 -1</clus>
<clus scale="  107.866">  1  7  2 -1</clus>
<clus scale="  118.535">  5  6 -1 -1</clus>
<clus scale="   28.063">  1  5  2 -1</clus>
</clustering>
</event>
<event>
10    2  0.3984345E-006  0.1227549E+03  0.7546771E-02  0.1239114E+00
         21   -1    0    0  501  502  0.00000000000E+00  0.00000000000E+00  0.17518541230E+03  0.17518541230E+03  0.00000000000E+00 0.  1.
          1   -1    0    0  503    0 -0.00000000000E+00 -0.00000000000E+00 -0.20378823932E+03  0.20378823932E+03  0.00000000000E+00 0. -1.
         23    2    1    2    0    0  0.23948728009E+01  0.55486611980E+02 -0.32801693128E+02  0.10904053288E+03  0.87916933597E+02 0.  0.
         23    2    1    2    0    0 -0.36151090679E+02 -0.10448129801E+03  0.21160457259E+02  0.14387436437E+03  0.89603709633E+02 0.  0.
        -11    1    3    3    0    0  0.38446978695E+02  0.11463892213E+02  0.54339600599E+01  0.40486033609E+02  0.00000000000E+00 0.  1.
         11    1    3    3    0    0 -0.36052105894E+02  0.44022719767E+02 -0.38235653188E+02  0.68554499267E+02  0.00000000000E+00 0. -1.
        -13    1    4    4    0    0 -0.43551440200E+02 -0.74937695950E+01 -0.62176022534E+00  0.44195826862E+02  0.00000000000E+00 0. -1.
         13    1    4    4    0    0  0.74003495211E+01 -0.96987528412E+02  0.21782217484E+02  0.99678537504E+02  0.00000000000E+00 0.  1.
         21    1    1    2  503  502 -0.96966517184E+01  0.58804963227E+02 -0.43880540598E+02  0.74010476271E+02  0.00000000000E+00 0. -1.
          1    1    1    2  501    0  0.43452869597E+02 -0.98102771995E+01  0.26918949440E+02  0.52048278107E+02  0.00000000000E+00 0. -1.
<scales pt_clust_5="13000.00000" pt_clust_6="13000.00000" pt_clust_7="13000.00000" pt_clust_8="13000.00000" pt_clust_9="57.92120" pt_clust_10="44.54653"></scales>
<clustering>
<clus scale="   44.547">  1 10  2 -1</clus>
<clus scale="   57.921">  2  9  1 -1</clus>
<clus scale="   87.917">  5  6 -1 -1</clus>
<clus scale="   89.604">  7  8 -1 -1</clus>
<clus scale="  121.529">  2  5  1 -1</clus>
<clus scale="   44.547">  1  5  2 -1</clus>
</clustering>
</event>
<event>
10    2  0.3984345E-006  0.1267855E+03  0.7546771E-02  0.1233751E+00
         21   -1    0    0  501  502  0.00000000000E+00  0.00000000000E+00  0.32428423232E+03  0.32428423232E+03  0.00000000000E+00 0. -1.
          3   -1    0    0  503    0 -0.00000000000E+00 -0.00000000000E+00 -0.16153745445E+03  0.16153745445E+03  0.00000000000E+00 0. -1.
         23    2    1    2    0    0  0.58884752479E+02 -0.59955186462E+02 -0.10166481394E+03  0.15991764464E+03  0.90420574081E+02 0.  0.
         23    2    1    2    0    0 -0.50709126701E+02  0.62059193407E+02  0.17569161530E+03  0.21539205890E+03  0.95411929722E+02 0.  0.
        -11    1    3    3    0    0  0.28607390429E+02  0.31485201047E+01 -0.82461680660E+02  0.87339708858E+02  0.00000000000E+00 0. -1.
         11    1    3    3    0    0  0.30277362049E+02 -0.63103706567E+02 -0.19203133276E+02  0.72577935785E+02  0.00000000000E+00 0.  1.
        -11    1    4    4    0    0  0.23499240068E+02  0.39691992207E+02  0.78885741758E+02  0.91381774889E+02  0.00000000000E+00 0.  1.
         11    1    4    4    0    0 -0.74208366769E+02  0.22367201199E+02  0.96805873538E+02  0.12401028401E+03  0.00000000000E+00 0. -1.
         21    1    1    2  503  502  0.85389796052E+01  0.22022163814E+02  0.85188226820E+01  0.25108966757E+02  0.00000000000E+00 0. -1.
          3    1    1    2  501    0 -0.16714605383E+02 -0.24126170758E+02  0.80201153829E+02  0.85403016481E+02  0.00000000000E+00 0. -1.
<scales pt_clust_5="13000.00000" pt_clust_6="13000.00000" pt_clust_7="13000.00000" pt_clust_8="13000.00000" pt_clust_9="23.61969" pt_clust_10="23.21363"></scales>
<clustering>
<clus scale="   23.620">  1  9  2 -1</clus>
<clus scale="   23.214">  1 10  2 -1</clus>
<clus scale="   90.421">  5  6 -1 -1</clus>
<clus scale="   95.412">  7  8 -1 -1</clus>
<clus scale="  123.073">  2  5  1 -1</clus>
<clus scale="   23.620">  1  5  2 -1</clus>
</clustering>
</event>
<event>
10    2  0.3984345E-006  0.1380827E+03  0.7546771E-02  0.1216560E+00
         -3   -1    0    0    0  501 -0.00000000000E+00  0.00000000000E+00  0.14857128812E+03  0.14857128812E+03  0.00000000000E+00 0.  1.
         21   -1    0    0  503  502  0.00000000000E+00 -0.00000000000E+00 -0.24138281726E+03  0.24138281726E+03  0.00000000000E+00 0. -1.
         23    2    1    2    0    0  0.79072702714E+02 -0.17168900476E+02  0.18312849973E+01  0.12222881995E+03  0.91592943856E+02 0.  0.
         23    2    1    2    0    0 -0.11649568072E+03  0.13739681585E+02 -0.89940556630E+02  0.17245130231E+03  0.88826378196E+02 0.  0.
        -11    1    4    4    0    0 -0.10672547334E+02  0.36613103134E+02 -0.16071127876E+02  0.41384824984E+02  0.00000000000E+00 0.  1.
         11    1    4    4    0    0 -0.10582313339E+03 -0.22873421549E+02 -0.73869428755E+02  0.13106647732E+03  0.00000000000E+00 0. -1.
        -11    1    3    3    0    0  0.57002348346E+02 -0.51613659187E+02  0.16720765258E+02  0.78694482160E+02  0.00000000000E+00 0. -1.
         11    1    3    3    0    0  0.22070354368E+02  0.34444758711E+02 -0.14889480261E+02  0.43534337792E+02  0.00000000000E+00 0.  1.
         21    1    1    2  503  501  0.38719730472E+02 -0.25660258903E+02  0.25774916588E+02  0.53122619852E+02  0.00000000000E+00 0. -1.
         -3    1    1    2    0  502 -0.12967524657E+01  0.29089477794E+02 -0.30477174087E+02  0.42151363271E+02  0.00000000000E+00 0.  1.
<scales pt_clust_5="13000.00000" pt_clust_6="13000.00000" pt_clust_7="13000.00000" pt_clust_8="13000.00000" pt_clust_9="45.33426" pt_clust_10="29.11837"></scales>
<clustering>
<clus scale="   29.118">  2 10  1 -1</clus>
<clus scale="   45.334">  1  9  2 -1</clus>
<clus scale="   88.826">  5  6 -1 -1</clus>
<clus scale="   91.593">  7  8 -1 -1</clus>
<clus scale="  136.263">  2  5  1 -1</clus>
<clus scale="   29.118">  2  5  1 -1</clus>
</clustering>
</event>
<event>
10    2  0.3984345E-006  0.9307611E+02  0.7546771E-02  0.1296150E+00
          1   -1    0    0  503    0 -0.00000000000E+00  0.00000000000E+00  0.84940880416E+02  0.84940880416E+02  0.00000000000E+00 0. -1.
         21   -1    0    0  501  502  0.00000000000E+00 -0.00000000000E+00 -0.29870234827E+03  0.29870234827E+03  0.00000000000E+00 0.  1.
         23    2    1    2    0    0 -0.65582713252E+01 -0.33463229753E+02 -0.22583631610E+02  0.10011639022E+03  0.91380919816E+02 0.  0.
         23    2    1    2    0    0 -0.12835213700E+02 -0.15542342246E+02 -0.13968294767E+03  0.16867974171E+03  0.92386266725E+02 0.  0.
        -11    1    3    3    0    0 -0.30346702143E+02 -0.54855357656E+02 -0.26150958631E+02  0.67925733208E+02  0.00000000000E+00 0.  1.
         11    1    3    3    0    0  0.23788430818E+02  0.21392127903E+02  0.35673270201E+01  0.32190657015E+02  0.00000000000E+00 0. -1.
        -13    1    4    4    0    0 -0.36633660271E+02  0.89324006603E+01 -0.12664144766E+03  0.13213579800E+03  0.00000000000E+00 0.  1.
         13    1    4    4    0    0  0.23798446570E+02 -0.24474742906E+02 -0.13041500009E+02  0.36543943711E+02  0.00000000000E+00 0. -1.
         21    1    1    2  503  502  0.17636581054E+02  0.23497290884E+02  0.22212000413E+02  0.36831299631E+02  0.00000000000E+00 0. -1.
          1    1    1    2  501    0  0.17569039715E+01  0.25508281114E+02 -0.73706888985E+02  0.78015797124E+02  0.00000000000E+00 0. -1.
<scales pt_clust_5="13000.00000" pt_clust_6="13000.00000" pt_clust_7="13000.00000" pt_clust_8="13000.00000" pt_clust_9="30.08703" pt_clust_10="25.56871"></scales>
<clustering>
<clus scale="   25.569">  2 10  1 -1</clus>
<clus scale="   30.087">  1  9  2 -1</clus>
<clus scale="   91.381">  5  6 -1 -1</clus>
<clus scale="   92.078">  1  5  2 -1</clus>
<clus scale="   92.386">  7  8 -1 -1</clus>
<clus scale="   25.569">  2  5  1 -1</clus>
</clustering>
</event>
<event>
10    2  0.3984345E-006  0.1369320E+03  0.7546771E-02  0.1221659E+00
         21   -1    0    0  501  502  0.00000000000E+00  0.00000000000E+00  0.19854901018E+03  0.19854901018E+03  0.00000000000E+00 0.  1.
          2   -1    0    0  503    0 -0.00000000000E+00 -0.00000000000E+00 -0.51594348328E+03  0.51594348328E+03  0.00000000000E+00 0. -1.
         23    2    1    2    0    0 -0.72474313944E+02 -0.56708765367E+02 -0.29108585723E+03  0.31877173017E+03  0.91738919888E+02 0.  0.
         23    2    1    2    0    0  0.83476185231E+02  0.99734466897E+01  0.70043483503E+02  0.15292128693E+03  0.10682269082E+03 0.  0.
        -11    1    4    4    0    0  0.79359328957E+02  0.46810841118E+02  0.70235364347E+02  0.11585406486E+03  0.00000000000E+00 0.  1.
         11    1    4    4    0    0  0.41168562742E+01 -0.36837394429E+02 -0.19188084417E+00  0.37067222072E+02  0.00000000000E+00 0. -1.
        -11    1    3    3    0    0 -0.29098615497E+02  0.16373456488E+02 -0.15322671903E+03  0.15682234192E+03  0.00000000000E+00 0. -1.
         11    1    3    3    0    0 -0.43375698447E+02 -0.73082221855E+02 -0.13785913820E+03  0.16194938824E+03  0.00000000000E+00 0.  1.
         21    1    1    2  503  502 -0.81176147886E+01  0.26882197517E+02 -0.16700715412E+03  0.16935152122E+03  0.00000000000E+00 0. -1.
          2    1    1    2  501    0 -0.28842564982E+01  0.19853121160E+02  0.70655054739E+02  0.73447955148E+02  0.00000000000E+00 0. -1.
<scales pt_clust_5="13000.00000" pt_clust_6="13000.00000" pt_clust_7="13000.00000" pt_clust_8="13000.00000" pt_clust_9="28.26495" pt_clust_10="20.06154"></scales>
<clustering>
<clus scale="   20.062">  1 10  2 -1</clus>
<clus scale="   28.265">  2  9  1 -1</clus>
<clus scale="   91.739">  7  8 -1 -1</clus>
<clus scale="  106.823">  5  6 -1 -1</clus>
<clus scale="  125.520">  2  7  1 -1</clus>
<clus scale="   20.062">  1  5  2 -1</clus>
</clustering>
</event>
<event>
10    2  0.3984345E-006  0.1417528E+03  0.7546771E-02  0.1211561E+00
         21   -1    0    0  501  502  0.00000000000E+00  0.00000000000E+00  0.96488738068E+03  0.96488738068E+03  0.00000000000E+00 0.  1.
          3   -1    0    0  503    0 -0.00000000000E+00 -0.00000000000E+00 -0.41619712554E+02  0.41619712554E+02  0.00000000000E+00 0. -1.
         23    2    1    2    0    0  0.89470836419E+02  0.77822444138E+02  0.33509058101E+03  0.36644324879E+03  0.89070723118E+02 0.  0.
         23    2    1    2    0    0 -0.60940509665E+02 -0.87030701502E+02  0.33157588419E+03  0.36006641626E+03  0.91745127486E+02 0.  0.
        -11    1    3    3    0    0  0.46918963623E+02 -0.12110068635E+02  0.12199364287E+03  0.13126496795E+03  0.00000000000E+00 0.  1.
         11    1    3    3    0    0  0.42551872796E+02  0.89932512774E+02  0.21309693814E+03  0.23517828083E+03  0.00000000000E+00 0. -1.
        -11    1    4    4    0    0 -0.40772402161E+02 -0.82618773477E+02  0.32587540054E+03  0.33864882575E+03  0.00000000000E+00 0. -1.
         11    1    4    4    0    0 -0.20168107505E+02 -0.44119280245E+01  0.57004836566E+01  0.21417590507E+02  0.00000000000E+00 0.  1.
         21    1    1    2  503  502 -0.44250985456E+02 -0.17438682708E+02  0.42849398318E+02  0.64018187296E+02  0.00000000000E+00 0.  1.
          3    1    1    2  501    0  0.15720658703E+02  0.26646940072E+02  0.21375180460E+03  0.21597924089E+03  0.00000000000E+00 0. -1.
<scales pt_clust_5="13000.00000" pt_clust_6="13000.00000" pt_clust_7="13000.00000" pt_clust_8="13000.00000" pt_clust_9="45.84521" pt_clust_10="30.93863"></scales>
<clustering>
<clus scale="   30.939">  1 10  2 -1</clus>
<clus scale="   45.845">  2  9  1 -1</clus>
<clus scale="   89.071">  5  6 -1 -1</clus>
<clus scale="   91.745">  7  8 -1 -1</clus>
<clus scale="  140.037">  2  5  1 -1</clus>
<clus scale="   30.939">  1  5  2 -1</clus>
</clustering>
</event>
<event>
10    2  0.3984345E-006  0.1131723E+03  0.7546771E-02  0.1255934E+00
         -1   -1    0    0    0  501 -0.00000000000E+00  0.00000000000E+00  0.10531082750E+03  0.10531082750E+03  0.00000000000E+00 0.  1.
         21   -1    0    0  503  502  0.00000000000E+00 -0.00000000000E+00 -0.26080854559E+03  0.26080854559E+03  0.00000000000E+00 0. -1.
         23    2    1    2    0    0  0.30070439520E+02  0.58818217569E+02 -0.60858043583E+02  0.12998069560E+03  0.93954593863E+02 0.  0.
         23    2    1    2    0    0 -0.35334318509E+02 -0.44988507434E+02 -0.10878582041E+03  0.15650587249E+03  0.96887839970E+02 0.  0.
        -13    1    4    4    0    0 -0.24020982250E+02 -0.75741874777E+02 -0.81993607271E+02  0.11417876692E+03  0.00000000000E+00 0. -1.
         13    1    4    4    0    0 -0.11313336259E+02  0.30753367343E+02 -0.26792213143E+02  0.42327105563E+02  0.00000000000E+00 0.  1.
        -13    1    3    3    0    0  0.17315613456E+01  0.28188661074E+02 -0.79433407933E+02  0.84304597821E+02  0.00000000000E+00 0. -1.
         13    1    3    3    0    0  0.28338878174E+02  0.30629556494E+02  0.18575364350E+02  0.45676097775E+02  0.00000000000E+00 0.  1.
         21    1    1    2  503  501 -0.24676835474E+02 -0.10533103191E+02  0.34183171496E+02  0.43455513866E+02  0.00000000000E+00 0. -1.
         -1    1    1    2    0  502  0.29940714463E+02 -0.32966069437E+01 -0.20037025585E+02  0.36177291140E+02  0.00000000000E+00 0.  1.
<scales pt_clust_5="13000.00000" pt_clust_6="13000.00000" pt_clust_7="13000.00000" pt_clust_8="13000.00000" pt_clust_9="26.83081" pt_clust_10="27.33131"></scales>
<clustering>
<clus scale="   26.831">  1  9  2 -1</clus>
<clus scale="   27.331">  2 10  1 -1</clus>
<clus scale="   93.955">  7  8 -1 -1</clus>
<clus scale="   96.888">  5  6 -1 -1</clus>
<clus scale="  110.671">  1  7  2 -1</clus>
<clus scale="   27.331">  2  5  1 -1</clus>
</clustering>
</event>
<event>
10    2  0.3984345E-006  0.2123649E+03  0.7546771E-02  0.1163108E+00
         21   -1    0    0  501  502  0.00000000000E+00  0.00000000000E+00  0.16982144017E+03  0.16982144017E+03  0.00000000000E+00 0. -1.
          1   -1    0    0  503    0 -0.00000000000E+00 -0.00000000000E+00 -0.51004432760E+03  0.51004432760E+03  0.00000000000E+00 0. -1.
         23    2    1    2    0    0  0.77546001728E+02  0.39678407514E+02 -0.13922395730E+03  0.18901538808E+03  0.93572155254E+02 0.  0.
         23    2    1    2    0    0 -0.20995309022E+03 -0.60633000101E+02 -0.27725856258E+02  0.23792433453E+03  0.89903309534E+02 0.  0.
        -11    1    4    4    0    0 -0.18495986334E+03 -0.82966397850E+02 -0.21764223472E+02  0.20388049353E+03  0.00000000000E+00 0. -1.
         11    1    4    4    0    0 -0.24993226875E+02  0.22333397749E+02 -0.59616327861E+01  0.34043841002E+02  0.00000000000E+00 0.  1.
        -13    1    3    3    0    0  0.94322596948E+02  0.51334480108E+02 -0.11554769593E+03  0.15774425878E+03  0.00000000000E+00 0.  1.
         13    1    3    3    0    0 -0.16776595219E+02 -0.11656072595E+02 -0.23676261370E+02  0.31271129304E+02  0.00000000000E+00 0. -1.
         21    1    1    2  503  502 -0.17621299109E+02 -0.21680075933E+02 -0.20999365305E+02  0.34950096108E+02  0.00000000000E+00 0. -1.
          1    1    1    2  501    0  0.15002838760E+03  0.42634668521E+02 -0.15227370856E+03  0.21797594905E+03  0.00000000000E+00 0. -1.
<scales pt_clust_5="13000.00000" pt_clust_6="13000.00000" pt_clust_7="13000.00000" pt_clust_8="13000.00000" pt_clust_9="27.93807" pt_clust_10="192.39615"></scales>
<clustering>
<clus scale="   27.938">  2  9  1 -1</clus>
<clus scale="   89.903">  5  6 -1 -1</clus>
<clus scale="   93.572">  7  8 -1 -1</clus>
<clus scale="  122.139">  2  7  1 -1</clus>
<clus scale="  192.396">  1 10  2 -1</clus>
<clus scale="  192.396">  1  5  2 -1</clus>
</clustering>
</event>
<event>
10    2  0.3984345E-006  0.1193626E+03  0.7546771E-02  0.1244248E+00
         21   -1    0    0  501  502  0.00000000000E+00  0.00000000000E+00  0.68148203042E+03  0.68148203042E+03  0.00000000000E+00 0.  1.
          2   -1    0    0  503    0 -0.00000000000E+00 -0.00000000000E+00 -0.39475735937E+02  0.39475735937E+02  0.00000000000E+00 0. -1.
         23    2    1    2    0    0  0.54466218361E+02  0.84680293085E+00  0.14428520938E+03  0.17934854745E+03  0.91544490872E+02 0.  0.
         23    2    1    2    0    0 -0.10015514610E+03 -0.16299202264E+02  0.29222282891E+03  0.32268550176E+03  0.91842441305E+02 0.  0.
        -11    1    4    4    0    0  0.13370359055E+02 -0.19023062994E+02  0.46333853607E+02  0.51840808413E+02  0.00000000000E+00 0.  1.
         11    1    4    4    0    0 -0.11352550515E+03  0.27238607303E+01  0.24588897531E+03  0.27084469335E+03  0.00000000000E+00 0. -1.
        -13    1    3    3    0    0  0.68124510048E+02 -0.25981988873E+02  0.12108004012E+03  0.14133785314E+03  0.00000000000E+00 0.  1.
         13    1    3    3    0    0 -0.13658291686E+02  0.26828791804E+02  0.23205169255E+02  0.38010694305E+02  0.00000000000E+00 0. -1.
         21    1    1    2  503  502  0.22421415338E+02  0.20153144640E+01  0.16216598710E+02  0.27744538776E+02  0.00000000000E+00 0. -1.
          2    1    1    2  501    0  0.23267512401E+02  0.13437084869E+02  0.18928165749E+03  0.19117917837E+03  0.00000000000E+00 0. -1.
<scales pt_clust_5="13000.00000" pt_clust_6="13000.00000" pt_clust_7="13000.00000" pt_clust_8="13000.00000" pt_clust_9="22.51180" pt_clust_10="27.44489"></scales>
<clustering>
<clus scale="   22.512">  2  9  1 -1</clus>
<clus scale="   27.445">  1 10  2 -1</clus>
<clus scale="   91.544">  7  8 -1 -1</clus>
<clus scale="   91.842">  5  6 -1 -1</clus>
<clus scale="  119.133">  2  7  1 -1</clus>
<clus scale="   27.445">  1  5  2 -1</clus>
</clustering>
</event>
<event>
10    2  0.3984345E-006  0.2382505E+03  0.7546771E-02  0.1120997E+00
         21   -1    0    0  501  502  0.00000000000E+00  0.00000000000E+00  0.10306108380E+03  0.10306108380E+03  0.00000000000E+00 0. -1.
          2   -1    0    0  503    0 -0.00000000000E+00 -0.00000000000E+00 -0.10880376418E+04  0.10880376418E+04  0.00000000000E+00 0. -1.
         23    2    1    2    0    0 -0.23458554366E+03 -0.12614915855E+03 -0.68170464428E+03  0.73726790975E+03  0.88874975202E+02 0.  0.
         23    2    1    2    0    0  0.17115695427E+03  0.41903432495E+02 -0.19365085623E+03  0.27666779553E+03  0.89408133395E+02 0.  0.
        -11    1    3    3    0    0 -0.22038107543E+02 -0.28627988464E+02 -0.38149345205E+02  0.52541530689E+02  0.00000000000E+00 0.  1.
         11    1    3    3    0    0 -0.21254743612E+03 -0.97521170084E+02 -0.64355529907E+03  0.68472637906E+03  0.00000000000E+00 0. -1.
        -11    1    4    4    0    0  0.12681038150E+03  0.67288823077E+02 -0.16247235566E+03  0.21680849827E+03  0.00000000000E+00 0. -1.
         11    1    4    4    0    0  0.44346572771E+02 -0.25385390581E+02 -0.31178500568E+02  0.59859297266E+02  0.00000000000E+00 0.  1.
         21    1    1    2  503  502  0.34063142807E+02 -0.97328526418E+00 -0.71677495528E+02  0.79365662268E+02  0.00000000000E+00 0. -1.
          2    1    1    2  501    0  0.29365446585E+02  0.85219011317E+02 -0.37943561931E+02  0.97797358016E+02  0.00000000000E+00 0. -1.
<scales pt_clust_5="13000.00000" pt_clust_6="13000.00000" pt_clust_7="13000.00000" pt_clust_8="13000.00000" pt_clust_9="34.07704" pt_clust_10="90.84497"></scales>
<clustering>
<clus scale="   34.077">  2  9  1 -1</clus>
<clus scale="   88.875">  5  6 -1 -1</clus>
<clus scale="   89.408">  7  8 -1 -1</clus>
<clus scale="   90.845">  1 10  2 -1</clus>
<clus scale="  238.051">  2  5  1 -1</clus>
<clus scale="   90.845">  1  5  2 -1</clus>
</clustering>
</event>
<event>
10    2  0.3984345E-006  0.2051106E+03  0.7546771E-02  0.1146139E+00
         21   -1    0    0  501  502  0.00000000000E+00  0.00000000000E+00  0.15135204596E+03  0.15135204596E+03  0.00000000000E+00 0. -1.
          2   -1    0    0  503    0 -0.00000000000E+00 -0.00000000000E+00 -0.85436823204E+03  0.85436823204E+03  0.00000000000E+00 0. -1.
         23    2    1    2    0    0 -0.51665795681E+02 -0.12802472262E+03 -0.18566995589E+03  0.24695593154E+03  0.86337799129E+02 0.  0.
         23    2    1    2    0    0  0.12230161488E+02  0.22728205472E+03 -0.64872436161E+02  0.25443923874E+03  0.93403340349E+02 0.  0.
        -11    1    3    3    0    0  0.23179683007E+02 -0.20180314162E+02 -0.45575256085E+02  0.54969507467E+02  0.00000000000E+00 0.  1.
         11    1    3    3    0    0 -0.74845478688E+02 -0.10784440846E+03 -0.14009469980E+03  0.19198642408E+03  0.00000000000E+00 0. -1.
        -11    1    4    4    0    0  0.33174694660E+02  0.12339263898E+03 -0.74694687981E+02  0.14800540576E+03  0.00000000000E+00 0.  1.
         11    1    4    4    0    0 -0.20944533173E+02  0.10388941574E+03  0.98222518203E+01  0.10643383298E+03  0.00000000000E+00 0. -1.
         21    1    1    2  503  502 -0.40388188450E+02 -0.72932545234E+02 -0.39202841758E+03  0.40079501259E+03  0.00000000000E+00 0.  1.
          2    1    1    2  501    0  0.79823822643E+02 -0.26324786862E+02 -0.60445376450E+02  0.10353009514E+03  0.00000000000E+00 0. -1.
<scales pt_clust_5="13000.00000" pt_clust_6="13000.00000" pt_clust_7="13000.00000" pt_clust_8="13000.00000" pt_clust_9="83.36883" pt_clust_10="82.58755"></scales>
<clustering>
<clus scale="   83.369">  2  9  1 -1</clus>
<clus scale="   82.588">  1 10  2 -1</clus>
<clus scale="   86.338">  5  6 -1 -1</clus>
<clus scale="   93.403">  7  8 -1 -1</clus>
<clus scale="  201.991">  2  5  1 -1</clus>
<clus scale="   82.588">  1  5  2 -1</clus>
</clustering>
</event>
<event>
10    2  0.3984345E-006  0.1232036E+03  0.7546771E-02  0.1238381E+00
          2   -1    0    0  503    0 -0.00000000000E+00  0.00000000000E+00  0.18140791420E+03  0.18140791420E+03  0.00000000000E+00 0. -1.
         21   -1    0    0  501  502  0.00000000000E+00 -0.00000000000E+00 -0.19895359681E+03  0.19895359681E+03  0.00000000000E+00 0.  1.
         23    2    1    2    0    0  0.40669935674E+02 -0.29806423949E+02  0.47975530554E+01  0.10252418010E+03  0.89138792978E+02 0.  0.
         23    2    1    2    0    0 -0.10469158874E+03  0.48382330569E+02 -0.60679936088E+02  0.15881115899E+03  0.90762056567E+02 0.  0.
        -11    1    3    3    0    0 -0.27097529532E+02  0.27182194027E+01  0.19088157597E+01  0.27300337013E+02  0.00000000000E+00 0.  1.
         11    1    3    3    0    0  0.67767465206E+02 -0.32524643351E+02  0.28887372957E+01  0.75223843087E+02  0.00000000000E+00 0. -1.
        -13    1    4    4    0    0 -0.68488134356E+02  0.23378015158E+02 -0.82463513594E+02  0.10971502730E+03  0.00000000000E+00 0.  1.
         13    1    4    4    0    0 -0.36203454380E+02  0.25004315411E+02  0.21783577506E+02  0.49096131693E+02  0.00000000000E+00 0. -1.
         21    1    1    2  503  502  0.47323103579E+02 -0.32684174493E+02  0.63513144863E+02  0.85683434601E+02  0.00000000000E+00 0.  1.
          2    1    1    2  501    0  0.16698549483E+02  0.14108267873E+02 -0.25176444441E+02  0.33342737318E+02  0.00000000000E+00 0. -1.
<scales pt_clust_5="13000.00000" pt_clust_6="13000.00000" pt_clust_7="13000.00000" pt_clust_8="13000.00000" pt_clust_9="57.90310" pt_clust_10="21.86058"></scales>
<clustering>
<clus scale="   21.861">  2 10  1 -1</clus>
<clus scale="   57.903">  1  9  2 -1</clus>
<clus scale="   89.139">  5  6 -1 -1</clus>
<clus scale="   90.762">  7  8 -1 -1</clus>
<clus scale="  122.013">  1  5  2 -1</clus>
<clus scale="   21.861">  2  5  1 -1</clus>
</clustering>
</event>
<event>
10    2  0.3984345E-006  0.1141801E+03  0.7546771E-02  0.1253880E+00
          1   -1    0    0  503    0 -0.00000000000E+00  0.00000000000E+00  0.20498210030E+03  0.20498210030E+03  0.00000000000E+00 0. -1.
         21   -1    0    0  501  502  0.00000000000E+00 -0.00000000000E+00 -0.10959821623E+03  0.10959821623E+03  0.00000000000E+00 0. -1.
         23    2    1    2    0    0 -0.62834482375E+02  0.56509005005E+01  0.10125711333E+03  0.15093891310E+03  0.92463223154E+02 0.  0.
         23    2    1    2    0    0  0.64318307496E+02 -0.11065285582E+02 -0.17991021805E+02  0.11649400320E+03  0.94804486662E+02 0.  0.
        -11    1    3    3    0    0 -0.67083056243E+02 -0.31559790290E+02  0.72778839095E+02  0.10388896100E+03  0.00000000000E+00 0. -1.
         11    1    3    3    0    0  0.42485738676E+01  0.37210690790E+02  0.28478274235E+02  0.47049952098E+02  0.00000000000E+00 0.  1.
        -13    1    4    4    0    0 -0.98562951246E+01 -0.32964826484E+02 -0.18680894138E+02  0.39151017158E+02  0.00000000000E+00 0. -1.
         13    1    4    4    0    0  0.74174602620E+02  0.21899540902E+02  0.68987233253E+00  0.77342986039E+02  0.00000000000E+00 0.  1.
         21    1    1    2  503  502 -0.20465447517E+02  0.13924229411E+02  0.70372473191E+01  0.25734054414E+02  0.00000000000E+00 0.  1.
          1    1    1    2  501    0  0.18981622397E+02 -0.85098443289E+01  0.50805452262E+01  0.21413345818E+02  0.00000000000E+00 0. -1.
<scales pt_clust_5="13000.00000" pt_clust_6="13000.00000" pt_clust_7="13000.00000" pt_clust_8="13000.00000" pt_clust_9="22.86803" pt_clust_10="20.80191"></scales>
<clustering>
<clus scale="   20.802">  2 10  1 -1</clus>
<clus scale="   22.868">  2  9  1 -1</clus>
<clus scale="   92.463">  5  6 -1 -1</clus>
<clus scale="   94.804">  7  8 -1 -1</clus>
<clus scale="  112.244">  1  5  2 -1</clus>
<clus scale="   20.802">  2  5  1 -1</clus>
</clustering>
</event>
<event>
10    2  0.3984345E-006  0.2925457E+03  0.7546771E-02  0.1089411E+00
          1   -1    0    0  503    0 -0.00000000000E+00  0.00000000000E+00  0.68018739289E+03  0.68018739289E+03  0.00000000000E+00 0. -1.
         21   -1    0    0  501  502  0.00000000000E+00 -0.00000000000E+00 -0.28338073209E+03  0.28338073209E+03  0.00000000000E+00 0. -1.
         23    2    1    2    0    0  0.15069958011E+03 -0.22398274726E+03  0.17414276928E+03  0.33175571021E+03  0.82810099942E+02 0.  0.
         23    2    1    2    0    0 -0.25574461344E+03  0.18909879355E+03  0.17004572461E+03  0.37236994481E+03  0.92629187141E+02 0.  0.
        -11    1    4    4    0    0 -0.57925954480E+02  0.97142523144E+02  0.60311323084E+02  0.12817777380E+03  0.00000000000E+00 0.  1.
         11    1    4    4    0    0 -0.19781865896E+03  0.91956270405E+02  0.10973440152E+03  0.24419217100E+03  0.00000000000E+00 0. -1.
        -11    1    3    3    0    0 -0.93949535684E+01 -0.20068943810E+02  0.67684302142E+01  0.23169792959E+02  0.00000000000E+00 0.  1.
         11    1    3    3    0    0  0.16009453368E+03 -0.20391380345E+03  0.16737433906E+03  0.30858591725E+03  0.00000000000E+00 0. -1.
         21    1    1    2  503  502 -0.61684418039E+02  0.34623619052E+02  0.59699692055E+02  0.92562495950E+02  0.00000000000E+00 0. -1.
          1    1    1    2  501    0  0.16672945137E+03  0.26033465553E+00 -0.70815251405E+01  0.16687997402E+03  0.00000000000E+00 0. -1.
<scales pt_clust_5="13000.00000" pt_clust_6="13000.00000" pt_clust_7="13000.00000" pt_clust_8="13000.00000" pt_clust_9="70.73728" pt_clust_10="158.64423"></scales>
<clustering>
<clus scale="   70.737">  1  9  2 -1</clus>
<clus scale="   82.810">  7  8 -1 -1</clus>
<clus scale="   92.629">  5  6 -1 -1</clus>
<clus scale="  158.644">  2 10  1 -1</clus>
<clus scale="  289.587">  1  7  2 -1</clus>
<clus scale="  158.644">  2  5  1 -1</clus>
</clustering>
</event>
<event>
10    2  0.3984345E-006  0.1418668E+03  0.7546771E-02  0.1230617E+00
          2   -1    0    0  502    0 -0.00000000000E+00  0.00000000000E+00  0.14099803683E+03  0.14099803683E+03  0.00000000000E+00 0. -1.
         21   -1    0    0  503  502  0.00000000000E+00 -0.00000000000E+00 -0.46716091390E+03  0.46716091390E+03  0.00000000000E+00 0. -1.
         23    2    1    2    0    0 -0.27775160803E+01 -0.50983893550E+00  0.79805984285E+02  0.12307928539E+03  0.93656504486E+02 0.  0.
         23    2    1    2    0    0  0.10930314856E+03  0.12655064600E+02 -0.20693778051E+03  0.25158871757E+03  0.91467528998E+02 0.  0.
        -13    1    3    3    0    0  0.21754494271E+02  0.34430138465E+02  0.11139153248E+02  0.42222898891E+02  0.00000000000E+00 0.  1.
         13    1    3    3    0    0 -0.24532010352E+02 -0.34939977400E+02  0.68666831036E+02  0.80856386496E+02  0.00000000000E+00 0. -1.
        -13    1    4    4    0    0  0.73448837962E+02 -0.72470928087E+01 -0.19557208317E+03  0.20903514505E+03  0.00000000000E+00 0.  1.
         13    1    4    4    0    0  0.35854310595E+02  0.19902157409E+02 -0.11365697339E+02  0.42553572515E+02  0.00000000000E+00 0. -1.
         21    1    1    2  503  501 -0.59000528191E+02  0.22393213505E+02 -0.11018175941E+03  0.12697455826E+03  0.00000000000E+00 0. -1.
          2    1    1    2  501    0 -0.47525104286E+02 -0.34538439169E+02 -0.88849321425E+02  0.10651638952E+03  0.00000000000E+00 0. -1.
<scales pt_clust_5="13000.00000" pt_clust_6="13000.00000" pt_clust_7="13000.00000" pt_clust_8="13000.00000" pt_clust_9="56.33846" pt_clust_10="123.16380"></scales>
<clustering>
<clus scale="   56.338">  9 10 -1 -1</clus>
<clus scale="   91.468">  7  8 -1 -1</clus>
<clus scale="   93.657">  5  6 -1 -1</clus>
<clus scale="   93.699">  1  5  2 -1</clus>
<clus scale="  123.164">  2  9  1 -1</clus>
<clus scale="  123.164">  2  5  1 -1</clus>
</clustering>
</event>
<event>
10    2  0.3984345E-006  0.9551918E+02  0.7546771E-02  0.1290685E+00
          3   -1    0    0  503    0 -0.00000000000E+00  0.00000000000E+00  0.43392411968E+03  0.43392411968E+03  0.00000000000E+00 0. -1.
         21   -1    0    0  501  502  0.00000000000E+00 -0.00000000000E+00 -0.19098094566E+03  0.19098094566E+03  0.00000000000E+00 0. -1.
         23    2    1    2    0    0 -0.16241415724E+02 -0.71623632303E+01  0.15053265538E+03  0.17697465629E+03  0.91350235917E+02 0.  0.
         23    2    1    2    0    0 -0.35637741608E+02 -0.77241274427E+01  0.88748617816E+01  0.99902873072E+02  0.92585690604E+02 0.  0.
        -11    1    3    3    0    0 -0.15887976451E+02 -0.47412588600E+02  0.10435277423E+03  0.11571466132E+03  0.00000000000E+00 0. -1.
         11    1    3    3    0    0 -0.35343927280E+00  0.40250225370E+02  0.46179881146E+02  0.61259994975E+02  0.00000000000E+00 0.  1.
        -13    1    4    4    0    0 -0.57653157628E+02  0.16274866941E+02 -0.12166968605E+02  0.61129313782E+02  0.00000000000E+00 0.  1.
         13    1    4    4    0    0  0.22015416020E+02 -0.23998994383E+02  0.21041830386E+02  0.38773559289E+02  0.00000000000E+00 0. -1.
         21    1    1    2  503  502  0.33651785124E+02 -0.35655595632E+02  0.20734502846E+03  0.21306272544E+03  0.00000000000E+00 0. -1.
          3    1    1    2  501    0  0.18227372208E+02  0.50542086305E+02 -0.12380937160E+03  0.13496481054E+03  0.00000000000E+00 0. -1.
<scales pt_clust_5="13000.00000" pt_clust_6="13000.00000" pt_clust_7="13000.00000" pt_clust_8="13000.00000" pt_clust_9="49.02820" pt_clust_10="53.18797"></scales>
<clustering>
<clus scale="   49.028">  1  9  2 -1</clus>
<clus scale="   53.188">  2 10  1 -1</clus>
<clus scale="   91.350">  5  6 -1 -1</clus>
<clus scale="   92.586">  7  8 -1 -1</clus>
<clus scale="   94.322">  1  5  2 -1</clus>
<clus scale="   53.188">  2  5  1 -1</clus>
</clustering>
</event>
<event>
10    2  0.3984345E-006  0.1161057E+03  0.7546771E-02  0.1250483E+00
          2   -1    0    0  503    0 -0.00000000000E+00  0.00000000000E+00  0.51313576076E+03  0.51313576076E+03  0.00000000000E+00 0. -1.
         21   -1    0    0  501  502  0.00000000000E+00 -0.00000000000E+00 -0.77065706154E+02  0.77065706154E+02  0.00000000000E+00 0. -1.
         23    2    1    2    0    0  0.35846339170E+02 -0.68230995239E+02  0.25986063289E+03  0.28515222692E+03  0.88565316286E+02 0.  0.
         23    2    1    2    0    0 -0.65833949308E+02  0.51792583665E+01  0.66710289832E+02  0.13072526284E+03  0.90982954316E+02 0.  0.
        -11    1    3    3    0    0  0.11550385490E+02 -0.75978458858E+02  0.24228398580E+03  0.25418038357E+03  0.00000000000E+00 0.  1.
         11    1    3    3    0    0  0.24295953679E+02  0.77474636188E+01  0.17576647087E+02  0.30971843350E+02  0.00000000000E+00 0. -1.
        -11    1    4    4    0    0  0.17528338566E+02  0.11945113177E+02 -0.35339938611E+01  0.21503894863E+02  0.00000000000E+00 0.  1.
         11    1    4    4    0    0 -0.83362287874E+02 -0.67658548101E+01  0.70244283693E+02  0.10922136798E+03  0.00000000000E+00 0. -1.
         21    1    1    2  503  502 -0.14158401543E+01 -0.26811265302E+02  0.62790664102E+02  0.68289941052E+02  0.00000000000E+00 0. -1.
          2    1    1    2  501    0  0.31403450293E+02  0.89863002175E+02  0.46708467786E+02  0.10603403611E+03  0.00000000000E+00 0. -1.
<scales pt_clust_5="13000.00000" pt_clust_6="13000.00000" pt_clust_7="13000.00000" pt_clust_8="13000.00000" pt_clust_9="26.84862" pt_clust_10="90.80286"></scales>
<clustering>
<clus scale="   26.849">  1  9  2 -1</clus>
<clus scale="   88.565">  5  6 -1 -1</clus>
<clus scale="   90.803">  2 10  1 -1</clus>
<clus scale="   90.983">  7  8 -1 -1</clus>
<clus scale="  114.221">  1  5  2 -1</clus>
<clus scale="   90.803">  2  5  1 -1</clus>
</clustering>
</event>
<event>
10    2  0.3984345E-006  0.9444768E+02  0.7546771E-02  0.1293726E+00
         21   -1    0    0  503  502  0.00000000000E+00  0.00000000000E+00  0.16874550511E+03  0.16874550511E+03  0.00000000000E+00 0. -1.
         -2   -1    0    0    0  501 -0.00000000000E+00 -0.00000000000E+00 -0.21599289972E+03  0.21599289972E+03  0.00000000000E+00 0.  1.
         23    2    1    2    0    0 -0.23956369153E+02  0.12033758509E+02 -0.11624773567E+03  0.15138353005E+03  0.93191835241E+02 0.  0.
         23    2    1    2    0    0  0.21686042187E+02 -0.29419511643E+02  0.19901028109E+02  0.99971732737E+02  0.90898318662E+02 0.  0.
        -11    1    3    3    0    0 -0.34078203206E+02 -0.25596287477E+02 -0.10084630438E+03  0.10948274281E+03  0.00000000000E+00 0.  1.
         11    1    3    3    0    0  0.10121834053E+02  0.37630045985E+02 -0.15401431286E+02  0.41900787237E+02  0.00000000000E+00 0. -1.
        -13    1    4    4    0    0  0.16897343874E+02  0.28883058236E+02  0.24228344312E+02  0.41312999784E+02  0.00000000000E+00 0. -1.
         13    1    4    4    0    0  0.47886983134E+01 -0.58302569880E+02 -0.43273162027E+01  0.58658732953E+02  0.00000000000E+00 0.  1.
         21    1    1    2  503  501  0.40570173203E+02 -0.51597911686E+01 -0.24304223694E+02  0.47573707948E+02  0.00000000000E+00 0.  1.
         -2    1    1    2    0  502 -0.38299846237E+02  0.22545544303E+02  0.73403536633E+02  0.85809434096E+02  0.00000000000E+00 0.  1.
<scales pt_clust_5="13000.00000" pt_clust_6="13000.00000" pt_clust_7="13000.00000" pt_clust_8="13000.00000" pt_clust_9="40.89697" pt_clust_10="43.15193"></scales>
<clustering>
<clus scale="   40.897">  2  9  1 -1</clus>
<clus scale="   43.152">  1 10  2 -1</clus>
<clus scale="   90.898">  7  8 -1 -1</clus>
<clus scale="   92.185">  1  7  2 -1</clus>
<clus scale="   93.192">  5  6 -1 -1</clus>
<clus scale="   43.152">  1  5  2 -1</clus>
</clustering>
</event>
<event>
10    2  0.3984345E-006  0.1045202E+03  0.7546771E-02  0.1276156E+00
         -1   -1    0    0    0  501 -0.00000000000E+00  0.00000000000E+00  0.24298022493E+03  0.24298022493E+03  0.00000000000E+00 0.  1.
         21   -1    0    0  503  502  0.00000000000E+00 -0.00000000000E+00 -0.11604499207E+03  0.11604499207E+03  0.00000000000E+00 0. -1.
         23    2    1    2    0    0 -0.50468198987E+01 -0.24419334004E+02  0.78216218088E+02  0.13177928349E+03  0.10308359967E+03 0.  0.
         23    2    1    2    0    0 -0.22418056496E+02 -0.51223221740E+02  0.18162095707E+02  0.11018680451E+03  0.93192716800E+02 0.  0.
        -11    1    4    4    0    0 -0.21002489986E+02 -0.99797777888E+01 -0.35533111627E+02  0.42465310222E+02  0.00000000000E+00 0.  1.
         11    1    4    4    0    0 -0.14155665094E+01 -0.41243443951E+02  0.53695207335E+02  0.67721494285E+02  0.00000000000E+00 0. -1.
        -13    1    3    3    0    0  0.42147894036E+02 -0.37527048019E+02  0.34617951156E+02  0.66205187463E+02  0.00000000000E+00 0.  1.
         13    1    3    3    0    0 -0.47194713935E+02  0.13107714015E+02  0.43598266931E+02  0.65574096025E+02  0.00000000000E+00 0. -1.
         21    1    1    2  503  501  0.86511327743E+01  0.42191968168E+02  0.56271462038E+02  0.70862413987E+02  0.00000000000E+00 0.  1.
         -1    1    1    2    0  502  0.18813743620E+02  0.33450587576E+02 -0.25714542968E+02  0.46196715016E+02  0.00000000000E+00 0.  1.
<scales pt_clust_5="13000.00000" pt_clust_6="13000.00000" pt_clust_7="13000.00000" pt_clust_8="13000.00000" pt_clust_9="46.41123" pt_clust_10="38.37836"></scales>
<clustering>
<clus scale="   38.378">  2 10  1 -1</clus>
<clus scale="   46.411">  1  9  2 -1</clus>
<clus scale="   93.193">  5  6 -1 -1</clus>
<clus scale="   94.779">  2  5  1 -1</clus>
<clus scale="  103.084">  7  8 -1 -1</clus>
<clus scale="   38.378">  2  5  1 -1</clus>
</clustering>
</event>
<event>
10    2  0.3984345E-006  0.1318281E+03  0.7546771E-02  0.1224768E+00
         21   -1    0    0  501  502  0.00000000000E+00  0.00000000000E+00  0.78172891620E+02  0.78172891620E+02  0.00000000000E+00 0.  1.
          1   -1    0    0  503    0 -0.00000000000E+00 -0.00000000000E+00 -0.69168546430E+03  0.69168546430E+03  0.00000000000E+00 0. -1.
         23    2    1    2    0    0  0.56159962290E+02 -0.57291275640E+02 -0.45460811947E+03  0.47053222633E+03  0.91081293916E+02 0.  0.
         23    2    1    2    0    0 -0.85245915011E+02  0.85078434221E+02 -0.25709358005E+02  0.15317228683E+03  0.91080032770E+02 0.  0.
        -13    1    4    4    0    0  0.16865646496E+02  0.13132406590E+02 -0.18133224529E+02  0.28030768209E+02  0.00000000000E+00 0. -1.
         13    1    4    4    0    0 -0.10211156151E+03  0.71946027631E+02 -0.75761334761E+01  0.12514151862E+03  0.00000000000E+00 0.  1.
        -13    1    3    3    0    0 -0.88232514272E+01 -0.52015825145E+02 -0.25982804963E+03  0.26513036643E+03  0.00000000000E+00 0.  1.
         13    1    3    3    0    0  0.64983213718E+02 -0.52754504944E+01 -0.19478006984E+03  0.20540185990E+03  0.00000000000E+00 0. -1.
         21    1    1    2  503  502  0.25205716796E+02  0.59614267827E+01 -0.50552326096E+02  0.56801447537E+02  0.00000000000E+00 0.  1.
          1    1    1    2  501    0  0.38802359242E+01 -0.33748585364E+02 -0.82642769108E+02  0.89352395216E+02  0.00000000000E+00 0. -1.
<scales pt_clust_5="13000.00000" pt_clust_6="13000.00000" pt_clust_7="13000.00000" pt_clust_8="13000.00000" pt_clust_9="25.90110" pt_clust_10="33.73933"></scales>
<clustering>
<clus scale="   25.901">  2  9  1 -1</clus>
<clus scale="   33.739">  1 10  2 -1</clus>
<clus scale="   91.080">  5  6 -1 -1</clus>
<clus scale="   91.081">  7  8 -1 -1</clus>
<clus scale="  131.827">  1  5  2 -1</clus>
<clus scale="   33.739">  1  5  2 -1</clus>
</clustering>
</event>
<event>
10    2  0.3984345E-006  0.2624388E+03  0.7546771E-02  0.1105825E+00
         21   -1    0    0  501  502  0.00000000000E+00  0.00000000000E+00  0.95764572209E+02  0.95764572209E+02  0.00000000000E+00 0. -1.
          1   -1    0    0  503    0 -0.00000000000E+00 -0.00000000000E+00 -0.12608927031E+04  0.12608927031E+04  0.00000000000E+00 0. -1.
         23    2    1    2    0    0 -0.82535078075E+02 -0.20992936244E+03 -0.60796224792E+03  0.65521941526E+03  0.93872311757E+02 0.  0.
         23    2    1    2    0    0  0.17718191576E+03  0.21213457063E+03 -0.35825966821E+03  0.46159511973E+03  0.91244492286E+02 0.  0.
        -11    1    3    3    0    0 -0.76630185169E+02 -0.76078739275E+02 -0.22676760337E+03  0.25116469853E+03  0.00000000000E+00 0. -1.
         11    1    3    3    0    0 -0.59048929060E+01 -0.13385062317E+03 -0.38119464455E+03  0.40405471674E+03  0.00000000000E+00 0.  1.
        -13    1    4    4    0    0  0.51828823629E+02  0.11476043719E+03 -0.11149869818E+03  0.16819079820E+03  0.00000000000E+00 0.  1.
         13    1    4    4    0    0  0.12535309213E+03  0.97374133442E+02 -0.24676097002E+03  0.29340432154E+03  0.00000000000E+00 0. -1.
         21    1    1    2  503  502 -0.22584200214E+02 -0.10226162997E+02 -0.15080854253E+03  0.15283270922E+03  0.00000000000E+00 0. -1.
          1    1    1    2  501    0 -0.72062637470E+02  0.80209548128E+01 -0.48097672237E+02  0.87010031088E+02  0.00000000000E+00 0. -1.
<scales pt_clust_5="13000.00000" pt_clust_6="13000.00000" pt_clust_7="13000.00000" pt_clust_8="13000.00000" pt_clust_9="24.79154" pt_clust_10="73.80994"></scales>
<clustering>
<clus scale="   24.792">  2  9  1 -1</clus>
<clus scale="   73.810">  1 10  2 -1</clus>
<clus scale="   91.244">  7  8 -1 -1</clus>
<clus scale="   93.872">  5  6 -1 -1</clus>
<clus scale="  261.510">  1  7  2 -1</clus>
<clus scale="   73.810">  1  5  2 -1</clus>
</clustering>
</event>
<event>
10    2  0.3984345E-006  0.1186637E+03  0.7546771E-02  0.1245788E+00
         21   -1    0    0  501  502  0.00000000000E+00  0.00000000000E+00  0.10616040384E+03  0.10616040384E+03  0.00000000000E+00 0.  1.
          1   -1    0    0  503    0 -0.00000000000E+00 -0.00000000000E+00 -0.63904392137E+03  0.63904392137E+03  0.00000000000E+00 0. -1.
         23    2    1    2    0    0 -0.56557773353E+02 -0.86083748077E+02 -0.32999116928E+03  0.35779059604E+03  0.92253701281E+02 0.  0.
         23    2    1    2    0    0  0.87919511387E+02  0.47210939567E+02 -0.87005065976E+02  0.16054769493E+03  0.90812815963E+02 0.  0.
        -11    1    4    4    0    0  0.41362231107E+02 -0.21539344661E+02 -0.53603176968E+02  0.71049828372E+02  0.00000000000E+00 0.  1.
         11    1    4    4    0    0  0.46557280280E+02  0.68750284228E+02 -0.33401889008E+02  0.89497866554E+02  0.00000000000E+00 0. -1.
        -13    1    3    3    0    0 -0.56384478316E+02 -0.54345778700E+01 -0.15749181687E+03  0.16736910232E+03  0.00000000000E+00 0. -1.
         13    1    3    3    0    0 -0.17329503753E+00 -0.80649170207E+02 -0.17249935242E+03  0.19042149372E+03  0.00000000000E+00 0.  1.
         21    1    1    2  503  502  0.33957685198E+02  0.41915500352E+02 -0.14542947443E+03  0.15511210652E+03  0.00000000000E+00 0. -1.
          1    1    1    2  501    0 -0.65319423231E+02 -0.30426918422E+01  0.29542192165E+02  0.71753927717E+02  0.00000000000E+00 0. -1.
<scales pt_clust_5="13000.00000" pt_clust_6="13000.00000" pt_clust_7="13000.00000" pt_clust_8="13000.00000" pt_clust_9="53.94473" pt_clust_10="63.86498"></scales>
<clustering>
<clus scale="   53.945">  2  9  1 -1</clus>
<clus scale="   63.865">  1 10  2 -1</clus>
<clus scale="   90.813">  5  6 -1 -1</clus>
<clus scale="   92.254">  7  8 -1 -1</clus>
<clus scale="  117.547">  1  5  2 -1</clus>
<clus scale="   63.865">  1  5  2 -1</clus>
</clustering>
</event>
<event>
10    2  0.3984345E-006  0.9782396E+02  0.7546771E-02  0.1286724E+00
         -1   -1    0    0    0  501 -0.00000000000E+00  0.00000000000E+00  0.36426845289E+02  0.36426845289E+02  0.00000000000E+00 0.  1.
         21   -1    0    0  503  502  0.00000000000E+00 -0.00000000000E+00 -0.66257460702E+03  0.66257460702E+03  0.00000000000E+00 0. -1.
         23    2    1    2    0    0 -0.93723980109E+01  0.18124224942E+02 -0.87340739344E+02  0.12446543195E+03  0.86295478601E+02 0.  0.
         23    2    1    2    0    0  0.43564288310E+02 -0.30307523188E+02 -0.23143587222E+03  0.25386741545E+03  0.89831556254E+02 0.  0.
        -13    1    4    4    0    0  0.13366620331E+02 -0.33584180356E+02 -0.21743856205E+03  0.22042253056E+03  0.00000000000E+00 0. -1.
         13    1    4    4    0    0  0.30197667979E+02  0.32766571682E+01 -0.13997310166E+02  0.33444884892E+02  0.00000000000E+00 0.  1.
        -13    1    3    3    0    0 -0.28114370356E+02  0.36510095847E+02 -0.86721015875E+02  0.98203561614E+02  0.00000000000E+00 0. -1.
         13    1    3    3    0    0  0.18741972346E+02 -0.18385870905E+02 -0.61972346888E+00  0.26261870335E+02  0.00000000000E+00 0.  1.
         21    1    1    2  503  501 -0.61199999868E+01  0.33187627148E+02 -0.46518593853E+02  0.57470449534E+02  0.00000000000E+00 0. -1.
         -1    1    1    2    0  502 -0.28071890313E+02 -0.21004328902E+02 -0.26085255631E+03  0.26319815538E+03  0.00000000000E+00 0.  1.
<scales pt_clust_5="13000.00000" pt_clust_6="13000.00000" pt_clust_7="13000.00000" pt_clust_8="13000.00000" pt_clust_9="33.74719" pt_clust_10="34.51144"></scales>
<clustering>
<clus scale="   33.747">  1  9  2 -1</clus>
<clus scale="   34.511">  2 10  1 -1</clus>
<clus scale="   86.295">  7  8 -1 -1</clus>
<clus scale="   89.832">  5  6 -1 -1</clus>
<clus scale="   94.587">  1  7  2 -1</clus>
<clus scale="   34.511">  2  5  1 -1</clus>
</clustering>
</event>
<event>
10    2  0.3984345E-006  0.9277720E+02  0.7546771E-02  0.1309970E+00
         -2   -1    0    0    0  501 -0.00000000000E+00  0.00000000000E+00  0.17728164723E+03  0.17728164723E+03  0.00000000000E+00 0.  1.
         21   -1    0    0  503  502  0.00000000000E+00 -0.00000000000E+00 -0.13855075990E+03  0.13855075990E+03  0.00000000000E+00 0. -1.
         23    2    1    2    0    0 -0.33917370181E+01  0.13270082804E+02  0.86687938661E+02  0.12664789691E+03  0.91308773424E+02 0.  0.
         23    2    1    2    0    0 -0.20684809937E+02 -0.24610513035E+02  0.15920418997E+02  0.78880185392E+02  0.70250161512E+02 0.  0.
        -11    1    4    4    0    0  0.24066272857E+02 -0.35173067805E+01 -0.55531742226E+01  0.24947839188E+02  0.00000000000E+00 0.  1.
         11    1    4    4    0    0 -0.44751082794E+02 -0.21093206255E+02  0.21473593219E+02  0.53932346204E+02  0.00000000000E+00 0. -1.
        -13    1    3    3    0    0  0.79881450169E+01 -0.25343776682E+02 -0.45169563637E+01  0.26954041851E+02  0.00000000000E+00 0. -1.
         13    1    3    3    0    0 -0.11379882035E+02  0.38613859486E+02  0.91204895025E+02  0.99693855056E+02  0.00000000000E+00 0.  1.
         21    1    1    2  503  501  0.12452743487E+02 -0.18357660452E+02  0.13944176320E+02  0.26201423069E+02  0.00000000000E+00 0. -1.
         -2    1    1    2    0  502  0.11623803468E+02  0.29698090683E+02 -0.77821646651E+02  0.84102901762E+02  0.00000000000E+00 0.  1.
<scales pt_clust_5="13000.00000" pt_clust_6="13000.00000" pt_clust_7="13000.00000" pt_clust_8="13000.00000" pt_clust_9="22.18275" pt_clust_10="31.64311"></scales>
<clustering>
<clus scale="   22.183">  1  9  2 -1</clus>
<clus scale="   31.643">  2 10  1 -1</clus>
<clus scale="   70.250">  5  6 -1 -1</clus>
<clus scale="   72.148">  2  5  1 -1</clus>
<clus scale="   91.309">  7  8 -1 -1</clus>
<clus scale="   31.643">  2  5  1 -1</clus>
</clustering>
</event>
<event>
10    2  0.3984345E-006  0.9923645E+02  0.7546771E-02  0.1283642E+00
         21   -1    0    0  501  502  0.00000000000E+00  0.00000000000E+00  0.26658618216E+03  0.26658618216E+03  0.00000000000E+00 0. -1.
          2   -1    0    0  503    0 -0.00000000000E+00 -0.00000000000E+00 -0.11235946451E+03  0.11235946451E+03  0.00000000000E+00 0. -1.
         23    2    1    2    0    0 -0.33488061783E+02 -0.15659904246E+02 -0.56580859363E+02  0.11508093266E+03  0.93142603212E+02 0.  0.
         23    2    1    2    0    0 -0.96597036227E+01  0.15834518004E+02  0.14109892183E+03  0.17191350280E+03  0.96443272797E+02 0.  0.
        -13    1    4    4    0    0 -0.47011771236E+02 -0.50796259151E+01  0.10768095875E+03  0.11760568911E+03  0.00000000000E+00 0. -1.
         13    1    4    4    0    0  0.37352067614E+02  0.20914143919E+02  0.33417963083E+02  0.54307813687E+02  0.00000000000E+00 0.  1.
        -13    1    3    3    0    0  0.20194308435E+02 -0.32597774827E+01  0.14553842865E+02  0.25104792063E+02  0.00000000000E+00 0.  1.
         13    1    3    3    0    0 -0.53682370217E+02 -0.12400126763E+02 -0.71134702228E+02  0.89976140598E+02  0.00000000000E+00 0. -1.
         21    1    1    2  503  502  0.24509168609E+02 -0.95494249551E+01  0.90698411802E+01  0.27823602964E+02  0.00000000000E+00 0.  1.
          2    1    1    2  501    0  0.18638596797E+02  0.93748111967E+01  0.60638813999E+02  0.64127608241E+02  0.00000000000E+00 0. -1.
<scales pt_clust_5="13000.00000" pt_clust_6="13000.00000" pt_clust_7="13000.00000" pt_clust_8="13000.00000" pt_clust_9="27.60076" pt_clust_10="20.86347"></scales>
<clustering>
<clus scale="   20.863">  1 10  2 -1</clus>
<clus scale="   27.601">  2  9  1 -1</clus>
<clus scale="   93.143">  7  8 -1 -1</clus>
<clus scale="   96.032">  2  7  1 -1</clus>
<clus scale="   96.443">  5  6 -1 -1</clus>
<clus scale="   20.863">  1  5  2 -1</clus>
</clustering>
</event>
<event>
10    2  0.3984345E-006  0.1306861E+03  0.7546771E-02  0.1226780E+00
         21   -1    0    0  501  502  0.00000000000E+00  0.00000000000E+00  0.11756836493E+03  0.11756836493E+03  0.00000000000E+00 0. -1.
          1   -1    0    0  503    0 -0.00000000000E+00 -0.00000000000E+00 -0.35941538918E+03  0.35941538918E+03  0.00000000000E+00 0. -1.
         23    2    1    2    0    0 -0.60642544962E+02 -0.45347781498E+02 -0.17869964531E+03  0.21504527747E+03  0.92611924616E+02 0.  0.
         23    2    1    2    0    0  0.11362743892E+03  0.82208290232E+02 -0.79267695084E+02  0.18517909383E+03  0.91315559732E+02 0.  0.
        -11    1    3    3    0    0  0.35535141078E+01 -0.51707758680E+02 -0.10503424227E+03  0.11712605098E+03  0.00000000000E+00 0.  1.
         11    1    3    3    0    0 -0.64196059070E+02  0.63599771829E+01 -0.73665403042E+02  0.97919226484E+02  0.00000000000E+00 0. -1.
        -11    1    4    4    0    0  0.81121789698E+02  0.21615961889E+02 -0.51982383266E+01  0.84113115826E+02  0.00000000000E+00 0.  1.
         11    1    4    4    0    0  0.32505649219E+02  0.60592328343E+02 -0.74069456758E+02  0.10106597800E+03  0.00000000000E+00 0. -1.
         21    1    1    2  503  502 -0.26578663323E+02 -0.18105721356E+02 -0.11539396729E+02  0.34167238207E+02  0.00000000000E+00 0. -1.
          1    1    1    2  501    0 -0.26406230631E+02 -0.18754787378E+02  0.27659712870E+02  0.42592144602E+02  0.00000000000E+00 0. -1.
<scales pt_clust_5="13000.00000" pt_clust_6="13000.00000" pt_clust_7="13000.00000" pt_clust_8="13000.00000" pt_clust_9="32.15964" pt_clust_10="43.01865"></scales>
<clustering>
<clus scale="   32.160">  1  9  2 -1</clus>
<clus scale="   43.019">  1 10  2 -1</clus>
<clus scale="   91.316">  7  8 -1 -1</clus>
<clus scale="   92.612">  5  6 -1 -1</clus>
<clus scale="  129.771">  1  7  2 -1</clus>
<clus scale="   32.160">  1  5  2 -1</clus>
</clustering>
</event>
<event>
10    2  0.3984345E-006  0.1352703E+03  0.7546771E-02  0.1220094E+00
          1   -1    0    0  503    0 -0.00000000000E+00  0.00000000000E+00  0.50548082141E+03  0.50548082141E+03  0.00000000000E+00 0. -1.
         21   -1    0    0  501  502  0.00000000000E+00 -0.00000000000E+00 -0.19803650368E+03  0.19803650368E+03  0.00000000000E+00 0. -1.
         23    2    1    2    0    0  0.55234142882E+02 -0.69045562963E+02  0.15416318523E+03  0.19978613712E+03  0.91269450528E+02 0.  0.
         23    2    1    2    0    0 -0.57673398072E+02  0.22103006827E+02 -0.38769740007E+02  0.11765575130E+03  0.92331031179E+02 0.  0.
        -11    1    3    3    0    0  0.77341443894E+02 -0.69354397237E+02  0.13622219544E+03  0.17131321575E+03  0.00000000000E+00 0.  1.
         11    1    3    3    0    0 -0.22107301012E+02  0.30883427375E+00  0.17940989787E+02  0.28472921367E+02  0.00000000000E+00 0. -1.
        -13    1    4    4    0    0 -0.26477219765E+02  0.52231894655E+02 -0.44983958593E+02  0.73842877222E+02  0.00000000000E+00 0. -1.
         13    1    4    4    0    0 -0.31196178307E+02 -0.30128887827E+02  0.62142185851E+01  0.43812874082E+02  0.00000000000E+00 0.  1.
         21    1    1    2  503  502  0.78363938298E+02  0.22426887182E+02  0.26543875753E+03  0.27767175963E+03  0.00000000000E+00 0. -1.
          1    1    1    2  501    0 -0.75924683108E+02  0.24515668954E+02 -0.73387885024E+02  0.10840367705E+03  0.00000000000E+00 0. -1.
<scales pt_clust_5="13000.00000" pt_clust_6="13000.00000" pt_clust_7="13000.00000" pt_clust_8="13000.00000" pt_clust_9="77.76933" pt_clust_10="79.78456"></scales>
<clustering>
<clus scale="   79.785">  2 10  1 -1</clus>
<clus scale="   77.769">  1  9  2 -1</clus>
<clus scale="   91.269">  5  6 -1 -1</clus>
<clus scale="   92.331">  7  8 -1 -1</clus>
<clus scale="  134.548">  1  5  2 -1</clus>
<clus scale="   79.785">  2  5  1 -1</clus>
</clustering>
</event>
<event>
10    2  0.3984345E-006  0.1038352E+03  0.7546771E-02  0.1274941E+00
         -3   -1    0    0    0  501 -0.00000000000E+00  0.00000000000E+00  0.42119339982E+03  0.42119339982E+03  0.00000000000E+00 0.  1.
         21   -1    0    0  503  502  0.00000000000E+00 -0.00000000000E+00 -0.82264259312E+02  0.82264259312E+02  0.00000000000E+00 0.  1.
         23    2    1    2    0    0 -0.38657594294E+02 -0.18432150682E+02  0.15228993410E+03  0.18578466874E+03  0.97414400045E+02 0.  0.
         23    2    1    2    0    0  0.12298285928E+02 -0.72204101449E+02  0.16319170625E+03  0.20123134138E+03  0.92183727760E+02 0.  0.
        -11    1    3    3    0    0  0.10734916810E+02  0.17073629620E+02 -0.16762294887E+01  0.20237514982E+02  0.00000000000E+00 0. -1.
         11    1    3    3    0    0 -0.49392511104E+02 -0.35505780302E+02  0.15396616359E+03  0.16554715376E+03  0.00000000000E+00 0.  1.
        -13    1    4    4    0    0  0.19193921995E+02 -0.86865122939E+01 -0.47068027582E+01  0.21587406736E+02  0.00000000000E+00 0. -1.
         13    1    4    4    0    0 -0.68956360669E+01 -0.63517589155E+02  0.16789850901E+03  0.17964393465E+03  0.00000000000E+00 0.  1.
         21    1    1    2  503  501  0.16539615955E+02  0.18007913077E+02  0.34539271527E+02  0.42317905276E+02  0.00000000000E+00 0.  1.
         -3    1    1    2    0  502  0.98196924121E+01  0.72628339054E+02 -0.11091771368E+02  0.74123743732E+02  0.00000000000E+00 0.  1.
<scales pt_clust_5="13000.00000" pt_clust_6="13000.00000" pt_clust_7="13000.00000" pt_clust_8="13000.00000" pt_clust_9="24.45085" pt_clust_10="74.94983"></scales>
<clustering>
<clus scale="   24.451">  1  9  2 -1</clus>
<clus scale="   74.950">  2 10  1 -1</clus>
<clus scale="   92.184">  7  8 -1 -1</clus>
<clus scale="   97.414">  5  6 -1 -1</clus>
<clus scale="   98.945">  2  7  1 -1</clus>
<clus scale="   74.950">  2  5  1 -1</clus>
</clustering>
</event>
<event>
10    2  0.3984345E-006  0.9985603E+02  0.7546771E-02  0.1281871E+00
         21   -1    0    0  501  502  0.00000000000E+00  0.00000000000E+00  0.67378413001E+02  0.67378413001E+02  0.00000000000E+00 0. -1.
          2   -1    0    0  503    0 -0.00000000000E+00 -0.00000000000E+00 -0.73270162699E+03  0.73270162699E+03  0.00000000000E+00 0. -1.
         23    2    1    2    0    0  0.41006449278E+02  0.31047594908E+02 -0.56563750156E+03  0.57578610492E+03  0.94542971228E+02 0.  0.
         23    2    1    2    0    0  0.66053173298E+01 -0.24794326142E+02 -0.78452118725E+02  0.12361726408E+03  0.92022302847E+02 0.  0.
        -13    1    4    4    0    0  0.27897875267E+02 -0.35290343649E+02 -0.87359794598E+02  0.98262065475E+02  0.00000000000E+00 0. -1.
         13    1    4    4    0    0 -0.21292557937E+02  0.10496017506E+02  0.89076758734E+01  0.25355198608E+02  0.00000000000E+00 0.  1.
        -13    1    3    3    0    0 -0.17523973461E+02  0.43869685369E+02 -0.22296983562E+03  0.22791925442E+03  0.00000000000E+00 0.  1.
         13    1    3    3    0    0  0.58530422739E+02 -0.12822090460E+02 -0.34266766594E+03  0.34786685049E+03  0.00000000000E+00 0. -1.
         21    1    1    2  503  502 -0.20943067856E+02 -0.44112290521E+01 -0.54177195234E+02  0.58251519434E+02  0.00000000000E+00 0. -1.
          2    1    1    2  501    0 -0.26668698752E+02 -0.18420397140E+01  0.32943601528E+02  0.42425151562E+02  0.00000000000E+00 0. -1.
<scales pt_clust_5="13000.00000" pt_clust_6="13000.00000" pt_clust_7="13000.00000" pt_clust_8="13000.00000" pt_clust_9="21.40259" pt_clust_10="26.88080"></scales>
<clustering>
<clus scale="   21.403">  2  9  1 -1</clus>
<clus scale="   26.881">  1 10  2 -1</clus>
<clus scale="   92.022">  5  6 -1 -1</clus>
<clus scale="   94.543">  7  8 -1 -1</clus>
<clus scale="   97.473">  1  5  2 -1</clus>
<clus scale="   26.881">  1  5  2 -1</clus>
</clustering>
</event>
<event>
10    2  0.3984345E-006  0.1746947E+03  0.7546771E-02  0.1198465E+00
          1   -1    0    0  503    0 -0.00000000000E+00  0.00000000000E+00  0.10631902831E+04  0.10631902831E+04  0.00000000000E+00 0. -1.
         21   -1    0    0  501  502  0.00000000000E+00 -0.00000000000E+00 -0.21438807302E+03  0.21438807302E+03  0.00000000000E+00 0. -1.
         23    2    1    2    0    0  0.43619721726E+01  0.24801637849E+02  0.20722638413E+03  0.22885473796E+03  0.93795355784E+02 0.  0.
         23    2    1    2    0    0  0.45780226077E+02  0.10757603362E+03  0.15537405930E+03  0.21467155887E+03  0.90963441986E+02 0.  0.
        -13    1    3    3    0    0  0.45997056768E+02  0.19062897922E+01  0.71376516380E+02  0.84935094411E+02  0.00000000000E+00 0.  1.
         13    1    3    3    0    0 -0.41635084595E+02  0.22895348057E+02  0.13584986775E+03  0.14391964355E+03  0.00000000000E+00 0. -1.
        -13    1    4    4    0    0  0.43902149158E+02  0.40400002084E+02  0.18959248862E+02  0.62602012639E+02  0.00000000000E+00 0.  1.
         13    1    4    4    0    0  0.18780769192E+01  0.67176031531E+02  0.13641481044E+03  0.15206954624E+03  0.00000000000E+00 0. -1.
         21    1    1    2  503  502 -0.10088152480E+03 -0.15172297249E+03  0.64289583945E+03  0.66821553619E+03  0.00000000000E+00 0. -1.
          1    1    1    2  501    0  0.50739326547E+02  0.19345301028E+02 -0.15669407282E+03  0.16583652308E+03  0.00000000000E+00 0. -1.
<scales pt_clust_5="13000.00000" pt_clust_6="13000.00000" pt_clust_7="13000.00000" pt_clust_8="13000.00000" pt_clust_9="149.14381" pt_clust_10="54.30212"></scales>
<clustering>
<clus scale="   54.302">  2 10  1 -1</clus>
<clus scale="   90.963">  7  8 -1 -1</clus>
<clus scale="   93.795">  5  6 -1 -1</clus>
<clus scale="   99.194">  1  5  2 -1</clus>
<clus scale="  149.144">  1  9  2 -1</clus>
<clus scale="   54.302">  2  5  1 -1</clus>
</clustering>
</event>
<event>
10    2  0.3984345E-006  0.1533878E+03  0.7546771E-02  0.1210463E+00
         -3   -1    0    0    0  501 -0.00000000000E+00  0.00000000000E+00  0.50084883188E+03  0.50084883188E+03  0.00000000000E+00 0.  1.
         21   -1    0    0  503  502  0.00000000000E+00 -0.00000000000E+00 -0.19582588376E+03  0.19582588376E+03  0.00000000000E+00 0.  1.
         23    2    1    2    0    0 -0.15516566183E+01 -0.40746135502E+02 -0.42250577012E+01  0.10667493185E+03  0.98483677716E+02 0.  0.
         23    2    1    2    0    0 -0.83357518562E+02  0.67227601086E+02  0.10673533248E+03  0.17610726846E+03  0.90295695125E+02 0.  0.
        -13    1    4    4    0    0 -0.33640462072E+02  0.45015280584E+02  0.10788265345E+03  0.12164178184E+03  0.00000000000E+00 0.  1.
         13    1    4    4    0    0 -0.49717056489E+02  0.22212320501E+02 -0.11473209655E+01  0.54465486626E+02  0.00000000000E+00 0. -1.
        -13    1    3    3    0    0 -0.32861526242E+02 -0.21836921019E+02 -0.39521235330E+02  0.55844955623E+02  0.00000000000E+00 0.  1.
         13    1    3    3    0    0  0.31309869624E+02 -0.18909214483E+02  0.35296177629E+02  0.50829976229E+02  0.00000000000E+00 0. -1.
         21    1    1    2  503  501 -0.53554087830E+02 -0.64371396641E+02  0.24923592500E+03  0.26292634585E+03  0.00000000000E+00 0. -1.
         -3    1    1    2    0  502  0.13846326301E+03  0.37889931058E+02 -0.46723251667E+02  0.15096616947E+03  0.00000000000E+00 0.  1.
<scales pt_clust_5="13000.00000" pt_clust_6="13000.00000" pt_clust_7="13000.00000" pt_clust_8="13000.00000" pt_clust_9="83.73600" pt_clust_10="123.99393"></scales>
<clustering>
<clus scale="   83.736">  1  9  2 -1</clus>
<clus scale="   90.296">  5  6 -1 -1</clus>
<clus scale="   98.484">  7  8 -1 -1</clus>
<clus scale="  113.143">  1  7  2 -1</clus>
<clus scale="  123.994">  2 10  1 -1</clus>
<clus scale="  123.994">  2  5  1 -1</clus>
</clustering>
</event>
<event>
10    2  0.3984345E-006  0.2372443E+03  0.7546771E-02  0.1121726E+00
         21   -1    0    0  501  502  0.00000000000E+00  0.00000000000E+00  0.24510110704E+03  0.24510110704E+03  0.00000000000E+00 0.  1.
          2   -1    0    0  503    0 -0.00000000000E+00 -0.00000000000E+00 -0.13404431663E+04  0.13404431663E+04  0.00000000000E+00 0.  1.
         23    2    1    2    0    0 -0.68927696229E+02  0.21065152108E+03 -0.12552599569E+04  0.12779900927E+04  0.91956658670E+02 0.  0.
         23    2    1    2    0    0  0.39047197792E+02 -0.16785612511E+03  0.12916394310E+03  0.23367996916E+03  0.90678781429E+02 0.  0.
        -13    1    4    4    0    0  0.57338021458E+02 -0.11867325387E+03  0.12398519417E+03  0.18095114883E+03  0.00000000000E+00 0.  1.
         13    1    4    4    0    0 -0.18290823667E+02 -0.49182871237E+02  0.51787489235E+01  0.52728820335E+02  0.00000000000E+00 0. -1.
        -13    1    3    3    0    0 -0.23840612890E+02  0.17788861283E+02 -0.66587808947E+02  0.72929793014E+02  0.00000000000E+00 0. -1.
         13    1    3    3    0    0 -0.45087083339E+02  0.19286265980E+03 -0.11886721479E+04  0.12050602997E+04  0.00000000000E+00 0.  1.
         21    1    1    2  503  502 -0.19523729342E+00 -0.22314142058E+02 -0.49917505075E+01  0.22866495720E+02  0.00000000000E+00 0.  1.
          2    1    1    2  501    0  0.30075735731E+02 -0.20481253917E+02  0.35745705009E+02  0.51007715772E+02  0.00000000000E+00 0.  1.
<scales pt_clust_5="13000.00000" pt_clust_6="13000.00000" pt_clust_7="13000.00000" pt_clust_8="13000.00000" pt_clust_9="22.31500" pt_clust_10="38.81440"></scales>
<clustering>
<clus scale="   22.315">  1  9  2 -1</clus>
<clus scale="   38.814">  1 10  2 -1</clus>
<clus scale="   90.679">  5  6 -1 -1</clus>
<clus scale="   91.957">  7  8 -1 -1</clus>
<clus scale="  236.752">  1  5  2 -1</clus>
<clus scale="   22.315">  1  5  2 -1</clus>
</clustering>
</event>
<event>
10    2  0.3984345E-006  0.1142364E+03  0.7546771E-02  0.1253627E+00
         21   -1    0    0  501  502  0.00000000000E+00  0.00000000000E+00  0.82813633608E+02  0.82813633608E+02  0.00000000000E+00 0.  1.
          1   -1    0    0  503    0 -0.00000000000E+00 -0.00000000000E+00 -0.30863350116E+03  0.30863350116E+03  0.00000000000E+00 0. -1.
         23    2    1    2    0    0 -0.51332400164E+02 -0.51363927145E+02 -0.12001992162E+03  0.16922855613E+03  0.94658619818E+02 0.  0.
         23    2    1    2    0    0  0.40597146057E+02  0.50420574048E+02 -0.53052073386E+02  0.12491336877E+03  0.92727906544E+02 0.  0.
        -11    1    3    3    0    0 -0.52821461951E+02 -0.76484661838E+02 -0.10356827338E+03  0.13916320487E+03  0.00000000000E+00 0.  1.
         11    1    3    3    0    0  0.14890617874E+01  0.25120734693E+02 -0.16451648244E+02  0.30065351261E+02  0.00000000000E+00 0. -1.
        -13    1    4    4    0    0 -0.12773698995E+00  0.23598218314E+02  0.24043896366E+02  0.33689778521E+02  0.00000000000E+00 0.  1.
         13    1    4    4    0    0  0.40724883047E+02  0.26822355734E+02 -0.77095969751E+02  0.91223590251E+02  0.00000000000E+00 0. -1.
         21    1    1    2  503  502  0.71957401458E+01  0.25599475968E+02 -0.64497534973E+02  0.69764201878E+02  0.00000000000E+00 0. -1.
          1    1    1    2  501    0  0.35395139608E+01 -0.24656122871E+02  0.11749662425E+02  0.27541007992E+02  0.00000000000E+00 0. -1.
<scales pt_clust_5="13000.00000" pt_clust_6="13000.00000" pt_clust_7="13000.00000" pt_clust_8="13000.00000" pt_clust_9="25.64544" pt_clust_10="24.90889"></scales>
<clustering>
<clus scale="   24.909">  1 10  2 -1</clus>
<clus scale="   25.645">  2  9  1 -1</clus>
<clus scale="   92.728">  7  8 -1 -1</clus>
<clus scale="   94.659">  5  6 -1 -1</clus>
<clus scale="  112.642">  1  7  2 -1</clus>
<clus scale="   24.909">  1  5  2 -1</clus>
</clustering>
</event>
<event>
10    2  0.5084149E-006  0.9909999E+02  0.7546771E-02  0.1283339E+00
          2   -1    0    0  503    0 -0.00000000000E+00  0.00000000000E+00  0.35860096102E+03  0.35860096102E+03  0.00000000000E+00 0. -1.
         21   -1    0    0  501  502  0.00000000000E+00 -0.00000000000E+00 -0.35874363337E+03  0.35874363337E+03  0.00000000000E+00 0.  1.
         23    2    1    2    0    0 -0.33459648697E+02 -0.18667121555E+02  0.27870238025E+03  0.29515870614E+03  0.89306413757E+02 0.  0.
         23    2    1    2    0    0  0.13053014051E+02  0.15050297512E+02 -0.31102079235E+03  0.32484028063E+03  0.91599028488E+02 0.  0.
        -13    1    4    4    0    0  0.52149888443E+02  0.16001612007E+01 -0.18448587529E+03  0.19172169821E+03  0.00000000000E+00 0. -1.
         13    1    4    4    0    0 -0.39096874392E+02  0.13450136311E+02 -0.12653491705E+03  0.13311858243E+03  0.00000000000E+00 0.  1.
        -13    1    3    3    0    0  0.54338084236E+01  0.31894374337E+02  0.11507393104E+03  0.11953571430E+03  0.00000000000E+00 0.  1.
         13    1    3    3    0    0 -0.38893457120E+02 -0.50561495892E+02  0.16362844921E+03  0.17562299184E+03  0.00000000000E+00 0. -1.
         21    1    1    2  503  502 -0.88659295208E+01 -0.35082024589E+02 -0.45791316974E+01  0.36473574031E+02  0.00000000000E+00 0.  1.
          2    1    1    2  501    0  0.29272564166E+02  0.38698848633E+02  0.36754871448E+02  0.60872033591E+02  0.00000000000E+00 0. -1.
<scales pt_clust_5="13000.00000" pt_clust_6="13000.00000" pt_clust_7="13000.00000" pt_clust_8="13000.00000" pt_clust_9="36.18499" pt_clust_10="47.33747"></scales>
<clustering>
<clus scale="   36.185">  2  9  1 -1</clus>
<clus scale="   47.337">  2 10  1 -1</clus>
<clus scale="   89.306">  7  8 -1 -1</clus>
<clus scale="   91.599">  5  6 -1 -1</clus>
<clus scale="   96.985">  1  7  2 -1</clus>
<clus scale="   36.185">  2  5  1 -1</clus>
</clustering>
</event>
<event>
10    2  0.3984345E-006  0.1025338E+03  0.7546771E-02  0.1279809E+00
          2   -1    0    0  503    0 -0.00000000000E+00  0.00000000000E+00  0.13882959671E+03  0.13882959671E+03  0.00000000000E+00 0. -1.
         21   -1    0    0  501  502  0.00000000000E+00 -0.00000000000E+00 -0.60248626186E+03  0.60248626186E+03  0.00000000000E+00 0.  1.
         23    2    1    2    0    0  0.39464148023E+01  0.22623487159E+02  0.92576920138E+02  0.13176585472E+03  0.90908514264E+02 0.  0.
         23    2    1    2    0    0 -0.42725214011E+02 -0.28037839058E+01 -0.36073292559E+03  0.37679213754E+03  0.10005381649E+03 0.  0.
        -11    1    4    4    0    0 -0.44090624807E+02 -0.44985190900E+02 -0.26107635143E+03  0.26856751828E+03  0.00000000000E+00 0.  1.
         11    1    4    4    0    0  0.13654107959E+01  0.42181406994E+02 -0.99656574153E+02  0.10822461926E+03  0.00000000000E+00 0. -1.
        -13    1    3    3    0    0  0.32874475502E+02  0.13850136009E+02  0.94963383955E+02  0.10144260298E+03  0.00000000000E+00 0. -1.
         13    1    3    3    0    0 -0.28928060700E+02  0.87733511499E+01 -0.23864638177E+01  0.30323251736E+02  0.00000000000E+00 0.  1.
         21    1    1    2  503  502  0.42184737833E+02 -0.44119100406E+02 -0.34941415483E+02  0.70334555111E+02  0.00000000000E+00 0. -1.
          2    1    1    2  501    0 -0.34059386248E+01  0.24299397153E+02 -0.16055924422E+03  0.16242331121E+03  0.00000000000E+00 0. -1.
<scales pt_clust_5="13000.00000" pt_clust_6="13000.00000" pt_clust_7="13000.00000" pt_clust_8="13000.00000" pt_clust_9="58.68899" pt_clust_10="24.53693"></scales>
<clustering>
<clus scale="   24.537">  2 10  1 -1</clus>
<clus scale="   58.689">  2  9  1 -1</clus>
<clus scale="   90.909">  7  8 -1 -1</clus>
<clus scale="   93.631">  1  7  2 -1</clus>
<clus scale="  100.054">  5  6 -1 -1</clus>
<clus scale="   24.537">  2  5  1 -1</clus>
</clustering>
</event>
<event>
10    2  0.3984345E-006  0.9159642E+02  0.7546771E-02  0.1306881E+00
         21   -1    0    0  503  502  0.00000000000E+00  0.00000000000E+00  0.25635437022E+03  0.25635437022E+03  0.00000000000E+00 0. -1.
         -2   -1    0    0    0  501 -0.00000000000E+00 -0.00000000000E+00 -0.56081813941E+02  0.56081813941E+02  0.00000000000E+00 0.  1.
         23    2    1    2    0    0  0.97244991559E+01 -0.10128939565E+02  0.49140127787E+02  0.10172612710E+03  0.87956190664E+02 0.  0.
         23    2    1    2    0    0 -0.29494612851E+02  0.30953203188E+02  0.95928802974E+02  0.12909890304E+03  0.75074353477E+02 0.  0.
        -11    1    4    4    0    0 -0.31443841746E+02 -0.58670951541E+01  0.68797022251E+01  0.32718011736E+02  0.00000000000E+00 0.  1.
         11    1    4    4    0    0  0.19492288947E+01  0.36820298343E+02  0.89049100749E+02  0.96380891299E+02  0.00000000000E+00 0. -1.
        -13    1    3    3    0    0  0.20403532034E+01  0.39143379303E+02  0.22188269306E+02  0.45040942256E+02  0.00000000000E+00 0. -1.
         13    1    3    3    0    0  0.76841459525E+01 -0.49272318868E+02  0.26951858481E+02  0.56685184848E+02  0.00000000000E+00 0.  1.
         21    1    1    2  503  501  0.23555050173E+01 -0.35091462103E+02  0.44395293998E+02  0.56638337242E+02  0.00000000000E+00 0.  1.
         -2    1    1    2    0  502  0.17414608678E+02  0.14267198479E+02  0.10808331525E+02  0.24972816785E+02  0.00000000000E+00 0.  1.
<scales pt_clust_5="13000.00000" pt_clust_6="13000.00000" pt_clust_7="13000.00000" pt_clust_8="13000.00000" pt_clust_9="32.63376" pt_clust_10="22.51271"></scales>
<clustering>
<clus scale="   22.513">  1 10  2 -1</clus>
<clus scale="   32.634">  1  9  2 -1</clus>
<clus scale="   75.074">  5  6 -1 -1</clus>
<clus scale="   79.308">  1  5  2 -1</clus>
<clus scale="   87.956">  7  8 -1 -1</clus>
<clus scale="   22.513">  1  5  2 -1</clus>
</clustering>
</event>
<event>
10    2  0.3984345E-006  0.1818302E+03  0.7546771E-02  0.1166075E+00
         21   -1    0    0  501  502  0.00000000000E+00  0.00000000000E+00  0.97184611482E+03  0.97184611482E+03  0.00000000000E+00 0. -1.
          1   -1    0    0  503    0 -0.00000000000E+00 -0.00000000000E+00 -0.99711789208E+02  0.99711789208E+02  0.00000000000E+00 0. -1.
         23    2    1    2    0    0  0.95913987863E+02 -0.20489968801E+03  0.15075038263E+03  0.28657911882E+03  0.90656154047E+02 0.  0.
         23    2    1    2    0    0 -0.61821061881E+02  0.91972347620E+02  0.27450487477E+03  0.30952350699E+03  0.90394240326E+02 0.  0.
        -11    1    4    4    0    0 -0.25542261121E+02  0.98988187861E+02  0.22987502271E+03  0.25158218240E+03  0.00000000000E+00 0.  1.
         11    1    4    4    0    0 -0.36278800760E+02 -0.70158402404E+01  0.44629852068E+02  0.57941324583E+02  0.00000000000E+00 0. -1.
        -11    1    3    3    0    0  0.60711977915E+02 -0.18537589297E+03  0.92784754766E+02  0.21600735328E+03  0.00000000000E+00 0. -1.
         11    1    3    3    0    0  0.35202009949E+02 -0.19523795044E+02  0.57965627867E+02  0.70571765539E+02  0.00000000000E+00 0.  1.
         21    1    1    2  503  502 -0.22912702420E+02  0.57724096508E+02  0.66740372284E+02  0.91166553859E+02  0.00000000000E+00 0.  1.
          1    1    1    2  501    0 -0.11180223563E+02  0.55203243881E+02  0.38013869592E+03  0.38428872436E+03  0.00000000000E+00 0. -1.
<scales pt_clust_5="13000.00000" pt_clust_6="13000.00000" pt_clust_7="13000.00000" pt_clust_8="13000.00000" pt_clust_9="69.54082" pt_clust_10="56.32402"></scales>
<clustering>
<clus scale="   56.324">  1 10  2 -1</clus>
<clus scale="   69.541">  2  9  1 -1</clus>
<clus scale="   90.394">  5  6 -1 -1</clus>
<clus scale="   90.656">  7  8 -1 -1</clus>
<clus scale="  181.700">  1  5  2 -1</clus>
<clus scale="   56.324">  1  5  2 -1</clus>
</clustering>
</event>
<event>
10    2  0.3984345E-006  0.1420431E+03  0.7546771E-02  0.1211354E+00
         -3   -1    0    0    0  501 -0.00000000000E+00  0.00000000000E+00  0.79856453588E+02  0.79856453588E+02  0.00000000000E+00 0.  1.
         21   -1    0    0  503  502  0.00000000000E+00 -0.00000000000E+00 -0.41708144606E+03  0.41708144606E+03  0.00000000000E+00 0.  1.
         23    2    1    2    0    0  0.66962288584E+02  0.10650025730E+03 -0.10440772284E+03  0.18792569599E+03  0.92676004057E+02 0.  0.
         23    2    1    2    0    0 -0.41894835264E+02 -0.72306519217E+02 -0.12591100358E+03  0.17905110728E+03  0.96032849864E+02 0.  0.
        -11    1    4    4    0    0  0.30469528139E+02 -0.31582642005E+02 -0.50235088192E+02  0.66703969197E+02  0.00000000000E+00 0.  1.
         11    1    4    4    0    0 -0.72364363403E+02 -0.40723877212E+02 -0.75675915389E+02  0.11234713808E+03  0.00000000000E+00 0. -1.
        -13    1    3    3    0    0  0.54387673639E+02  0.57197963994E+01 -0.37166756649E+02  0.66121879242E+02  0.00000000000E+00 0. -1.
         13    1    3    3    0    0  0.12574614945E+02  0.10078046090E+03 -0.67240966186E+02  0.12180381675E+03  0.00000000000E+00 0.  1.
         21    1    1    2  503  501 -0.24394655990E+02  0.34933865286E+01 -0.11141075745E+02  0.27044898948E+02  0.00000000000E+00 0.  1.
         -3    1    1    2    0  502 -0.67279732975E+00 -0.37687124615E+02 -0.95765190310E+02  0.10291619743E+03  0.00000000000E+00 0.  1.
<scales pt_clust_5="13000.00000" pt_clust_6="13000.00000" pt_clust_7="13000.00000" pt_clust_8="13000.00000" pt_clust_9="24.64352" pt_clust_10="37.56079"></scales>
<clustering>
<clus scale="   24.644">  1  9  2 -1</clus>
<clus scale="   37.561">  2 10  1 -1</clus>
<clus scale="   92.676">  7  8 -1 -1</clus>
<clus scale="   96.033">  5  6 -1 -1</clus>
<clus scale="  139.795">  1  7  2 -1</clus>
<clus scale="   37.561">  2  5  1 -1</clus>
</clustering>
</event>
<event>
10    2  0.3984345E-006  0.1390134E+03  0.7546771E-02  0.1214682E+00
          1   -1    0    0  503    0 -0.00000000000E+00  0.00000000000E+00  0.52289567460E+03  0.52289567460E+03  0.00000000000E+00 0. -1.
         21   -1    0    0  501  502  0.00000000000E+00 -0.00000000000E+00 -0.22400704168E+03  0.22400704168E+03  0.00000000000E+00 0. -1.
         23    2    1    2    0    0 -0.10899988817E+03  0.77881209852E+02  0.36738513841E+03  0.40139172068E+03  0.90537368192E+02 0.  0.
         23    2    1    2    0    0  0.83764227161E+02  0.19281506550E+02 -0.62742834288E+02  0.13977830996E+03  0.90626102388E+02 0.  0.
        -11    1    3    3    0    0  0.10681414261E+02  0.30494387899E+02  0.60094829542E+02  0.68230409948E+02  0.00000000000E+00 0.  1.
         11    1    3    3    0    0 -0.11968130243E+03  0.47386821953E+02  0.30729030887E+03  0.33316131074E+03  0.00000000000E+00 0. -1.
        -13    1    4    4    0    0 -0.16224996594E+02  0.18290002137E+02 -0.76868220079E+01  0.25629317690E+02  0.00000000000E+00 0.  1.
         13    1    4    4    0    0  0.99989223755E+02  0.99150441289E+00 -0.55056012280E+02  0.11414899227E+03  0.00000000000E+00 0. -1.
         21    1    1    2  503  502  0.14068886035E+02 -0.25596001988E+02  0.84849087897E+02  0.89735481216E+02  0.00000000000E+00 0.  1.
          1    1    1    2  501    0  0.11166774978E+02 -0.71566714414E+02 -0.90602759098E+02  0.11599720441E+03  0.00000000000E+00 0. -1.
<scales pt_clust_5="13000.00000" pt_clust_6="13000.00000" pt_clust_7="13000.00000" pt_clust_8="13000.00000" pt_clust_9="29.20769" pt_clust_10="73.23363"></scales>
<clustering>
<clus scale="   29.208">  1  9  2 -1</clus>
<clus scale="   73.234">  2 10  1 -1</clus>
<clus scale="   90.537">  5  6 -1 -1</clus>
<clus scale="   90.626">  7  8 -1 -1</clus>
<clus scale="  138.956">  1  5  2 -1</clus>
<clus scale="   73.234">  2  5  1 -1</clus>
</clustering>
</event>
<event>
10    2  0.3984345E-006  0.1026949E+03  0.7546771E-02  0.1275769E+00
         21   -1    0    0  503  502  0.00000000000E+00  0.00000000000E+00  0.10867225689E+03  0.10867225689E+03  0.00000000000E+00 0.  1.
         -3   -1    0    0    0  501 -0.00000000000E+00 -0.00000000000E+00 -0.29371939670E+03  0.29371939670E+03  0.00000000000E+00 0.  1.
         23    2    1    2    0    0 -0.38428668117E+02  0.18073200499E+02 -0.72653674609E+02  0.12428826674E+03  0.91463728903E+02 0.  0.
         23    2    1    2    0    0  0.43653524124E+02 -0.26848435356E+02 -0.71551850921E+02  0.12529657137E+03  0.89180125466E+02 0.  0.
        -13    1    4    4    0    0 -0.85824781299E+01 -0.32066065399E+02 -0.64219112432E+02  0.72290980645E+02  0.00000000000E+00 0. -1.
         13    1    4    4    0    0  0.52236002254E+02  0.52176300427E+01 -0.73327384883E+01  0.53005590728E+02  0.00000000000E+00 0.  1.
        -13    1    3    3    0    0 -0.42669217006E+02 -0.29404890525E+02 -0.47945379244E+02  0.70597939471E+02  0.00000000000E+00 0.  1.
         13    1    3    3    0    0  0.42405488887E+01  0.47478091024E+02 -0.24708295365E+02  0.53690327266E+02  0.00000000000E+00 0. -1.
         21    1    1    2  503  501 -0.55747151269E+00  0.71255620274E+02 -0.53223601248E+02  0.88940575245E+02  0.00000000000E+00 0.  1.
         -3    1    1    2    0  502 -0.46673844939E+01 -0.62480385417E+02  0.12381986965E+02  0.63866240229E+02  0.00000000000E+00 0.  1.
<scales pt_clust_5="13000.00000" pt_clust_6="13000.00000" pt_clust_7="13000.00000" pt_clust_8="13000.00000" pt_clust_9="55.46666" pt_clust_10="62.65447"></scales>
<clustering>
<clus scale="   62.654">  1 10  2 -1</clus>
<clus scale="   55.467">  1  9  2 -1</clus>
<clus scale="   89.180">  5  6 -1 -1</clus>
<clus scale="   91.464">  7  8 -1 -1</clus>
<clus scale="  100.666">  1  5  2 -1</clus>
<clus scale="   62.654">  1  5  2 -1</clus>
</clustering>
</event>
<event>
10    2  0.3984345E-006  0.1133892E+03  0.7546771E-02  0.1254509E+00
         21   -1    0    0  503  502  0.00000000000E+00  0.00000000000E+00  0.57366888590E+03  0.57366888590E+03  0.00000000000E+00 0. -1.
         -3   -1    0    0    0  501 -0.00000000000E+00 -0.00000000000E+00 -0.17203903582E+03  0.17203903582E+03  0.00000000000E+00 0.  1.
         23    2    1    2    0    0 -0.14272157523E+02  0.11890534953E+03 -0.75254526232E+02  0.16804314248E+03  0.90736306895E+02 0.  0.
         23    2    1    2    0    0  0.27560678228E+02 -0.26503342929E+02  0.26627798964E+03  0.28381897336E+03  0.90483278559E+02 0.  0.
        -11    1    3    3    0    0 -0.16109084354E+02  0.48302223984E+02  0.15333560787E+02  0.53176362483E+02  0.00000000000E+00 0. -1.
         11    1    3    3    0    0  0.18369268312E+01  0.70603125542E+02 -0.90588087019E+02  0.11486677999E+03  0.00000000000E+00 0.  1.
        -11    1    4    4    0    0  0.11998689186E+02  0.31949661841E+02  0.61989644593E+02  0.70763447278E+02  0.00000000000E+00 0.  1.
         11    1    4    4    0    0  0.15561989041E+02 -0.58453004771E+02  0.20428834505E+03  0.21305552608E+03  0.00000000000E+00 0. -1.
         21    1    1    2  503  501 -0.24159995278E+02 -0.59266203097E+02 -0.14855395807E+02  0.65702899373E+02  0.00000000000E+00 0.  1.
         -3    1    1    2    0  502  0.10871474573E+02 -0.33135803500E+02  0.22546178248E+03  0.22814290651E+03  0.00000000000E+00 0.  1.
<scales pt_clust_5="13000.00000" pt_clust_6="13000.00000" pt_clust_7="13000.00000" pt_clust_8="13000.00000" pt_clust_9="65.97044" pt_clust_10="34.87364"></scales>
<clustering>
<clus scale="   34.874">  1 10  2 -1</clus>
<clus scale="   65.970">  2  9  1 -1</clus>
<clus scale="   90.483">  7  8 -1 -1</clus>
<clus scale="   90.736">  5  6 -1 -1</clus>
<clus scale="  113.187">  1  7  2 -1</clus>
<clus scale="   34.874">  1  5  2 -1</clus>
</clustering>
</event>
<event>
10    2  0.3984345E-006  0.1090994E+03  0.7546771E-02  0.1270801E+00
         -1   -1    0    0    0  501 -0.00000000000E+00  0.00000000000E+00  0.21371714904E+03  0.21371714904E+03  0.00000000000E+00 0.  1.
         21   -1    0    0  503  502  0.00000000000E+00 -0.00000000000E+00 -0.26613137831E+03  0.26613137831E+03  0.00000000000E+00 0. -1.
         23    2    1    2    0    0  0.35465526612E+02 -0.33960421460E+01  0.70802554957E+02  0.12573518752E+03  0.97606346677E+02 0.  0.
         23    2    1    2    0    0 -0.73022931978E+02 -0.47028412882E+02 -0.31137482207E+02  0.12112637424E+03  0.78473151620E+02 0.  0.
        -11    1    4    4    0    0 -0.39108218640E+02  0.12362235052E+02 -0.33100940165E+02  0.52706260164E+02  0.00000000000E+00 0. -1.
         11    1    4    4    0    0 -0.33914713338E+02 -0.59390647934E+02  0.19634579584E+01  0.68420114074E+02  0.00000000000E+00 0.  1.
        -13    1    3    3    0    0  0.37240379661E+02  0.33853707420E+02  0.72670545727E+02  0.88396423002E+02  0.00000000000E+00 0.  1.
         13    1    3    3    0    0 -0.17748530489E+01 -0.37249749566E+02 -0.18679907704E+01  0.37338764516E+02  0.00000000000E+00 0. -1.
         21    1    1    2  503  501 -0.33008352364E+01  0.21411971590E+02  0.64785753747E+02  0.68312238502E+02  0.00000000000E+00 0. -1.
         -1    1    1    2    0  502  0.40858240603E+02  0.29012483437E+02 -0.15686505577E+03  0.16467472709E+03  0.00000000000E+00 0.  1.
<scales pt_clust_5="13000.00000" pt_clust_6="13000.00000" pt_clust_7="13000.00000" pt_clust_8="13000.00000" pt_clust_9="21.66490" pt_clust_10="50.37121"></scales>
<clustering>
<clus scale="   21.665">  1  9  2 -1</clus>
<clus scale="   50.371">  2 10  1 -1</clus>
<clus scale="   78.473">  5  6 -1 -1</clus>
<clus scale="   92.378">  2  5  1 -1</clus>
<clus scale="   97.606">  7  8 -1 -1</clus>
<clus scale="   50.371">  2  5  1 -1</clus>
</clustering>
</event>
<event>
10    2  0.3984345E-006  0.1029070E+03  0.7546771E-02  0.1275263E+00
         21   -1    0    0  501  502  0.00000000000E+00  0.00000000000E+00  0.32161965897E+03  0.32161965897E+03  0.00000000000E+00 0.  1.
          1   -1    0    0  503    0 -0.00000000000E+00 -0.00000000000E+00 -0.36952782993E+03  0.36952782993E+03  0.00000000000E+00 0. -1.
         23    2    1    2    0    0  0.52241192495E+02 -0.19835039079E+02 -0.22433811022E+03  0.24801908979E+03  0.89795936628E+02 0.  0.
         23    2    1    2    0    0 -0.50946518626E+02 -0.55999214140E+02  0.11519938537E+03  0.16568079502E+03  0.91911738663E+02 0.  0.
        -11    1    3    3    0    0 -0.50604151652E+01  0.27136143452E+02 -0.34170455381E+02  0.43927190942E+02  0.00000000000E+00 0.  1.
         11    1    3    3    0    0  0.57301607660E+02 -0.46971182531E+02 -0.19016765483E+03  0.20409189884E+03  0.00000000000E+00 0. -1.
        -13    1    4    4    0    0 -0.31427119679E+02 -0.36791615341E+02  0.11613970740E+01  0.48400781542E+02  0.00000000000E+00 0. -1.
         13    1    4    4    0    0 -0.19519398948E+02 -0.19207598799E+02  0.11403798829E+03  0.11728001347E+03  0.00000000000E+00 0.  1.
         21    1    1    2  503  502 -0.25491694756E+02  0.55549605571E+02 -0.97792004084E+02  0.11532068870E+03  0.00000000000E+00 0.  1.
          1    1    1    2  501    0  0.24197020888E+02  0.20284647648E+02  0.15902255798E+03  0.16212691540E+03  0.00000000000E+00 0. -1.
<scales pt_clust_5="13000.00000" pt_clust_6="13000.00000" pt_clust_7="13000.00000" pt_clust_8="13000.00000" pt_clust_9="61.59583" pt_clust_10="31.57472"></scales>
<clustering>
<clus scale="   31.575">  1 10  2 -1</clus>
<clus scale="   61.596">  2  9  1 -1</clus>
<clus scale="   89.796">  5  6 -1 -1</clus>
<clus scale="   91.912">  7  8 -1 -1</clus>
<clus scale="  101.022">  2  5  1 -1</clus>
<clus scale="   31.575">  1  5  2 -1</clus>
</clustering>
</event>
<event>
10    2  0.3984345E-006  0.9426271E+02  0.7546771E-02  0.1294516E+00
         21   -1    0    0  503  502  0.00000000000E+00  0.00000000000E+00  0.32292861988E+03  0.32292861988E+03  0.00000000000E+00 0.  1.
         -1   -1    0    0    0  501 -0.00000000000E+00 -0.00000000000E+00 -0.22911567705E+03  0.22911567705E+03  0.00000000000E+00 0.  1.
         23    2    1    2    0    0  0.29978784607E+02  0.30226386774E+02  0.65030677224E+01  0.10003975663E+03  0.90295631301E+02 0.  0.
         23    2    1    2    0    0 -0.42174460725E+02  0.42262554486E+02  0.95873173667E+02  0.14644423646E+03  0.93217167484E+02 0.  0.
        -11    1    3    3    0    0  0.79051388825E+01  0.56266260624E+02 -0.16151175616E+02  0.59069821222E+02  0.00000000000E+00 0.  1.
         11    1    3    3    0    0  0.22073645725E+02 -0.26039873851E+02  0.22654243339E+02  0.40969935404E+02  0.00000000000E+00 0. -1.
        -13    1    4    4    0    0  0.29705153544E+02  0.12594204504E+02  0.21007865066E+02  0.38501175680E+02  0.00000000000E+00 0. -1.
         13    1    4    4    0    0 -0.71879614269E+02  0.29668349982E+02  0.74865308601E+02  0.10794306078E+03  0.00000000000E+00 0.  1.
         21    1    1    2  503  501 -0.66511412653E+02 -0.33783797663E+02 -0.13348868551E+03  0.15291939758E+03  0.00000000000E+00 0.  1.
         -1    1    1    2    0  502  0.78707088771E+02 -0.38705143597E+02  0.12492538694E+03  0.15264090627E+03  0.00000000000E+00 0.  1.
<scales pt_clust_5="13000.00000" pt_clust_6="13000.00000" pt_clust_7="13000.00000" pt_clust_8="13000.00000" pt_clust_9="74.59968" pt_clust_10="81.05997"></scales>
<clustering>
<clus scale="   74.600">  2  9  1 -1</clus>
<clus scale="   81.060">  1 10  2 -1</clus>
<clus scale="   90.296">  5  6 -1 -1</clus>
<clus scale="   91.375">  2  5  1 -1</clus>
<clus scale="   93.217">  7  8 -1 -1</clus>
<clus scale="   81.060">  1  5  2 -1</clus>
</clustering>
</event>
<event>
10    2  0.3984345E-006  0.1728904E+03  0.7546771E-02  0.1174902E+00
         21   -1    0    0  501  502  0.00000000000E+00  0.00000000000E+00  0.17739529690E+03  0.17739529690E+03  0.00000000000E+00 0.  1.
          2   -1    0    0  503    0 -0.00000000000E+00 -0.00000000000E+00 -0.31017497604E+03  0.31017497604E+03  0.00000000000E+00 0. -1.
         23    2    1    2    0    0  0.25169754857E+02 -0.17253198911E+03 -0.90276859427E+02  0.21589363199E+03  0.89773855674E+02 0.  0.
         23    2    1    2    0    0  0.93993002661E+01  0.12655689210E+03  0.32141901653E+02  0.15888721319E+03  0.90039163082E+02 0.  0.
        -11    1    3    3    0    0  0.53091638952E+02 -0.63584232546E+02 -0.48025242708E+02  0.95750199437E+02  0.00000000000E+00 0. -1.
         11    1    3    3    0    0 -0.27921884095E+02 -0.10894775656E+03 -0.42251616719E+02  0.12014343255E+03  0.00000000000E+00 0.  1.
        -11    1    4    4    0    0  0.35367674692E+02  0.52384293720E+02  0.47181671944E+02  0.78873929844E+02  0.00000000000E+00 0. -1.
         11    1    4    4    0    0 -0.25968374426E+02  0.74172598380E+02 -0.15039770290E+02  0.80013283342E+02  0.00000000000E+00 0.  1.
         21    1    1    2  503  502 -0.22085862304E+02  0.26247626822E+02 -0.81527791028E+02  0.88450573415E+02  0.00000000000E+00 0.  1.
          2    1    1    2  501    0 -0.12483192820E+02  0.19727470183E+02  0.68830696617E+01  0.24338854344E+02  0.00000000000E+00 0. -1.
<scales pt_clust_5="13000.00000" pt_clust_6="13000.00000" pt_clust_7="13000.00000" pt_clust_8="13000.00000" pt_clust_9="34.79837" pt_clust_10="23.34530"></scales>
<clustering>
<clus scale="   23.345">  1 10  2 -1</clus>
<clus scale="   34.798">  2  9  1 -1</clus>
<clus scale="   89.774">  5  6 -1 -1</clus>
<clus scale="   90.039">  7  8 -1 -1</clus>
<clus scale="  172.752">  2  5  1 -1</clus>
<clus scale="   23.345">  1  5  2 -1</clus>
</clustering>
</event>
<event>
10    2  0.3984345E-006  0.2021641E+03  0.7546771E-02  0.1148120E+00
          1   -1    0    0  503    0 -0.00000000000E+00  0.00000000000E+00  0.55013511668E+03  0.55013511668E+03  0.00000000000E+00 0. -1.
         21   -1    0    0  501  502  0.00000000000E+00 -0.00000000000E+00 -0.14465652702E+03  0.14465652702E+03  0.00000000000E+00 0.  1.
         23    2    1    2    0    0  0.57563835249E+01 -0.13340386225E+03  0.19121085703E+03  0.25050411125E+03  0.91438457402E+02 0.  0.
         23    2    1    2    0    0 -0.40911897768E+02  0.21348493574E+03  0.37850455653E+02  0.23962259900E+03  0.93470486191E+02 0.  0.
        -11    1    3    3    0    0  0.48605106829E+01 -0.48364274489E+02  0.90143243778E+01  0.49436683292E+02  0.00000000000E+00 0.  1.
         11    1    3    3    0    0  0.89587284201E+00 -0.85039587764E+02  0.18219653265E+03  0.20106742796E+03  0.00000000000E+00 0. -1.
        -11    1    4    4    0    0 -0.80030297503E+01  0.68803767292E+02 -0.31194718510E+02  0.75967870457E+02  0.00000000000E+00 0. -1.
         11    1    4    4    0    0 -0.32908868018E+02  0.14468116845E+03  0.69045174162E+02  0.16365472854E+03  0.00000000000E+00 0.  1.
         21    1    1    2  503  502  0.23307937306E+02 -0.62798618788E+02  0.17004681077E+03  0.18276445036E+03  0.00000000000E+00 0. -1.
          1    1    1    2  501    0  0.11847576937E+02 -0.17282454703E+02  0.63704661985E+01  0.21900483087E+02  0.00000000000E+00 0. -1.
<scales pt_clust_5="13000.00000" pt_clust_6="13000.00000" pt_clust_7="13000.00000" pt_clust_8="13000.00000" pt_clust_9="67.92906" pt_clust_10="20.95348"></scales>
<clustering>
<clus scale="   20.953">  2 10  1 -1</clus>
<clus scale="   67.929">  1  9  2 -1</clus>
<clus scale="   91.438">  5  6 -1 -1</clus>
<clus scale="   93.470">  7  8 -1 -1</clus>
<clus scale="  201.233">  1  5  2 -1</clus>
<clus scale="   20.953">  2  5  1 -1</clus>
</clustering>
</event>
<event>
10    2  0.3984345E-006  0.1450210E+03  0.7546771E-02  0.1225517E+00
         21   -1    0    0  503  502  0.00000000000E+00  0.00000000000E+00  0.73208643919E+03  0.73208643919E+03  0.00000000000E+00 0.  1.
         -2   -1    0    0    0  501 -0.00000000000E+00 -0.00000000000E+00 -0.18075013310E+03  0.18075013310E+03  0.00000000000E+00 0.  1.
         23    2    1    2    0    0  0.21632946891E+02  0.23916770167E+02 -0.93436217049E+02  0.13485196708E+03  0.91731837888E+02 0.  0.
         23    2    1    2    0    0 -0.28227515689E+02 -0.86266446177E+02  0.23073984714E+03  0.26504783855E+03  0.93652481447E+02 0.  0.
        -13    1    3    3    0    0  0.46545338463E+02  0.60168417789E+01 -0.12902929085E+02  0.48673981721E+02  0.00000000000E+00 0.  1.
         13    1    3    3    0    0 -0.24912391572E+02  0.17899928388E+02 -0.80533287964E+02  0.86177985358E+02  0.00000000000E+00 0. -1.
        -13    1    4    4    0    0 -0.32375503150E+01 -0.71670341984E+02  0.22417074510E+03  0.23537128672E+03  0.00000000000E+00 0.  1.
         13    1    4    4    0    0 -0.24989965374E+02 -0.14596104193E+02  0.65691020458E+01  0.29676551833E+02  0.00000000000E+00 0. -1.
         21    1    1    2  503  501 -0.52168007136E+02  0.10477289436E+03  0.28247304632E+02  0.12040253561E+03  0.00000000000E+00 0.  1.
         -2    1    1    2    0  502  0.58762575935E+02 -0.42423218351E+02  0.38578537137E+03  0.39253423105E+03  0.00000000000E+00 0.  1.
<scales pt_clust_5="13000.00000" pt_clust_6="13000.00000" pt_clust_7="13000.00000" pt_clust_8="13000.00000" pt_clust_9="110.72624" pt_clust_10="72.47599"></scales>
<clustering>
<clus scale="   72.476">  1 10  2 -1</clus>
<clus scale="   91.732">  5  6 -1 -1</clus>
<clus scale="   93.652">  7  8 -1 -1</clus>
<clus scale="   97.493">  2  5  1 -1</clus>
<clus scale="  110.726">  2  9  1 -1</clus>
<clus scale="   72.476">  1  5  2 -1</clus>
</clustering>
</event>
<event>
10    2  0.3984345E-006  0.1255768E+03  0.7546771E-02  0.1235800E+00
          1   -1    0    0  503    0 -0.00000000000E+00  0.00000000000E+00  0.27130539839E+03  0.27130539839E+03  0.00000000000E+00 0. -1.
         21   -1    0    0  501  502  0.00000000000E+00 -0.00000000000E+00 -0.17587977342E+03  0.17587977342E+03  0.00000000000E+00 0.  1.
         23    2    1    2    0    0  0.65385882811E+02  0.32553454486E+00  0.14352173251E+03  0.18081761562E+03  0.88436998899E+02 0.  0.
         23    2    1    2    0    0 -0.10196480672E+03  0.10350119852E+02 -0.10770251510E+03  0.17590673355E+03  0.94018085278E+02 0.  0.
        -11    1    4    4    0    0  0.55786960419E+00  0.22288694021E+02 -0.56394920603E+02  0.60642263888E+02  0.00000000000E+00 0. -1.
         11    1    4    4    0    0 -0.10252267632E+03 -0.11938574169E+02 -0.51307594493E+02  0.11526446966E+03  0.00000000000E+00 0.  1.
        -13    1    3    3    0    0  0.63919296809E+02  0.31805034496E+02  0.12584050827E+03  0.14468265358E+03  0.00000000000E+00 0. -1.
         13    1    3    3    0    0  0.14665860018E+01 -0.31479499951E+02  0.17681224235E+02  0.36134962047E+02  0.00000000000E+00 0.  1.
         21    1    1    2  503  502  0.16682342351E+02 -0.23515190137E+02  0.60227627390E+02  0.66772987162E+02  0.00000000000E+00 0. -1.
          1    1    1    2  501    0  0.19896581553E+02  0.12839535740E+02 -0.62121983230E+00  0.23687835477E+02  0.00000000000E+00 0. -1.
<scales pt_clust_5="13000.00000" pt_clust_6="13000.00000" pt_clust_7="13000.00000" pt_clust_8="13000.00000" pt_clust_9="28.85633" pt_clust_10="23.67969"></scales>
<clustering>
<clus scale="   23.680">  2 10  1 -1</clus>
<clus scale="   28.856">  1  9  2 -1</clus>
<clus scale="   88.437">  7  8 -1 -1</clus>
<clus scale="   94.018">  5  6 -1 -1</clus>
<clus scale="  121.455">  1  7  2 -1</clus>
<clus scale="   23.680">  2  5  1 -1</clus>
</clustering>
</event>
<event>
10    2  0.3984345E-006  0.2469354E+03  0.7546771E-02  0.1115795E+00
         21   -1    0    0  501  502  0.00000000000E+00  0.00000000000E+00  0.41881288252E+03  0.41881288252E+03  0.00000000000E+00 0.  1.
          2   -1    0    0  503    0 -0.00000000000E+00 -0.00000000000E+00 -0.10771969525E+04  0.10771969525E+04  0.00000000000E+00 0. -1.
         23    2    1    2    0    0  0.12417810863E+03  0.90280582579E+02 -0.23115107831E+03  0.29177480798E+03  0.90171676894E+02 0.  0.
         23    2    1    2    0    0 -0.77790152149E+02 -0.28144078681E+03  0.24491910650E+03  0.39371235426E+03  0.98812068675E+02 0.  0.
        -13    1    4    4    0    0 -0.99261990461E+02 -0.25514704761E+03  0.22486692188E+03  0.35428532458E+03  0.00000000000E+00 0.  1.
         13    1    4    4    0    0  0.21471838312E+02 -0.26293739197E+02  0.20052184626E+02  0.39427029685E+02  0.00000000000E+00 0. -1.
        -13    1    3    3    0    0  0.42474000506E+02  0.74003616620E+02 -0.16362108863E+03  0.18453302316E+03  0.00000000000E+00 0. -1.
         13    1    3    3    0    0  0.81704108122E+02  0.16276965959E+02 -0.67529989675E+02  0.10724178482E+03  0.00000000000E+00 0.  1.
         21    1    1    2  503  502 -0.84817470548E+02  0.15464739900E+03 -0.71866940752E+03  0.73999698556E+03  0.00000000000E+00 0. -1.
          2    1    1    2  501    0  0.38429514070E+02  0.36512805234E+02  0.46517309311E+02  0.70525687258E+02  0.00000000000E+00 0. -1.
<scales pt_clust_5="13000.00000" pt_clust_6="13000.00000" pt_clust_7="13000.00000" pt_clust_8="13000.00000" pt_clust_9="176.78685" pt_clust_10="53.00955"></scales>
<clustering>
<clus scale="   53.010">  1 10  2 -1</clus>
<clus scale="   90.172">  7  8 -1 -1</clus>
<clus scale="   98.812">  5  6 -1 -1</clus>
<clus scale="  176.787">  2  9  1 -1</clus>
<clus scale="  243.607">  2  7  1 -1</clus>
<clus scale="   53.010">  1  5  2 -1</clus>
</clustering>
</event>
<event>
10    2  0.3984345E-006  0.9557126E+02  0.7546771E-02  0.1290814E+00
         21   -1    0    0  501  502  0.00000000000E+00  0.00000000000E+00  0.17684598928E+03  0.17684598928E+03  0.00000000000E+00 0.  1.
          2   -1    0    0  503    0 -0.00000000000E+00 -0.00000000000E+00 -0.46014678885E+03  0.46014678885E+03  0.00000000000E+00 0. -1.
         23    2    1    2    0    0 -0.47668513137E+01  0.44467588992E+02 -0.18285535190E+03  0.20967127869E+03  0.92335670517E+02 0.  0.
         23    2    1    2    0    0  0.24643515673E+01  0.17594635995E+02  0.96246917685E+01  0.96141207454E+02  0.93993897858E+02 0.  0.
        -11    1    4    4    0    0 -0.28274419372E+02  0.38561969672E+02  0.27176619885E+02  0.55000336037E+02  0.00000000000E+00 0.  1.
         11    1    4    4    0    0  0.30738770939E+02 -0.20967333677E+02 -0.17551928117E+02  0.41140871417E+02  0.00000000000E+00 0. -1.
        -13    1    3    3    0    0 -0.37352533733E+02  0.56600866208E+02 -0.11949528880E+03  0.13739721205E+03  0.00000000000E+00 0.  1.
         13    1    3    3    0    0  0.32585682419E+02 -0.12133277216E+02 -0.63360063094E+02  0.72274066649E+02  0.00000000000E+00 0. -1.
         21    1    1    2  503  502 -0.71525660224E+01 -0.79732478151E+02 -0.21235902379E+03  0.22694665069E+03  0.00000000000E+00 0. -1.
          2    1    1    2  501    0  0.94550657688E+01  0.17670253164E+02  0.10228888435E+03  0.10423364129E+03  0.00000000000E+00 0. -1.
<scales pt_clust_5="13000.00000" pt_clust_6="13000.00000" pt_clust_7="13000.00000" pt_clust_8="13000.00000" pt_clust_9="78.22828" pt_clust_10="20.04086"></scales>
<clustering>
<clus scale="   20.041">  1 10  2 -1</clus>
<clus scale="   78.228">  2  9  1 -1</clus>
<clus scale="   92.336">  7  8 -1 -1</clus>
<clus scale="   93.941">  2  7  1 -1</clus>
<clus scale="   93.994">  5  6 -1 -1</clus>
<clus scale="   20.041">  1  5  2 -1</clus>
</clustering>
</event>
<event>
10    2  0.3984345E-006  0.2141144E+03  0.7546771E-02  0.1138378E+00
          3   -1    0    0  503    0 -0.00000000000E+00  0.00000000000E+00  0.16377822066E+03  0.16377822066E+03  0.00000000000E+00 0. -1.
         21   -1    0    0  501  502  0.00000000000E+00 -0.00000000000E+00 -0.11424309034E+04  0.11424309034E+04  0.00000000000E+00 0. -1.
         23    2    1    2    0    0  0.78145534460E+02 -0.18152578692E+03 -0.30908706812E+01  0.21735572654E+03  0.90419148995E+02 0.  0.
         23    2    1    2    0    0  0.52764118064E+01  0.23542905892E+03 -0.32906352200E+03  0.41470280312E+03  0.90779574198E+02 0.  0.
        -11    1    3    3    0    0  0.95376349746E+02 -0.16001144269E+03  0.10594908402E+02  0.18658124763E+03  0.00000000000E+00 0. -1.
         11    1    3    3    0    0 -0.17230815286E+02 -0.21514344224E+02 -0.13685779083E+02  0.30774478906E+02  0.00000000000E+00 0.  1.
        -11    1    4    4    0    0  0.28550144321E+02  0.18100843741E+02 -0.43243321255E+02  0.54888396934E+02  0.00000000000E+00 0.  1.
         11    1    4    4    0    0 -0.23273732514E+02  0.21732821518E+03 -0.28582020075E+03  0.35981440618E+03  0.00000000000E+00 0. -1.
         21    1    1    2  503  502 -0.27432660651E+02  0.11430682407E+02 -0.92578061050E+01  0.31127453230E+02  0.00000000000E+00 0.  1.
          3    1    1    2  501    0 -0.55989285615E+02 -0.65333954414E+02 -0.63724048399E+03  0.64302314121E+03  0.00000000000E+00 0. -1.
<scales pt_clust_5="13000.00000" pt_clust_6="13000.00000" pt_clust_7="13000.00000" pt_clust_8="13000.00000" pt_clust_9="29.71887" pt_clust_10="86.21773"></scales>
<clustering>
<clus scale="   29.719">  1  9  2 -1</clus>
<clus scale="   86.218">  2 10  1 -1</clus>
<clus scale="   90.419">  5  6 -1 -1</clus>
<clus scale="   90.780">  7  8 -1 -1</clus>
<clus scale="  213.962">  1  5  2 -1</clus>
<clus scale="   86.218">  2  5  1 -1</clus>
</clustering>
</event>
<event>
10    2  0.3984345E-006  0.3492877E+03  0.7546771E-02  0.1062943E+00
         21   -1    0    0  503  502  0.00000000000E+00  0.00000000000E+00  0.50861734621E+03  0.50861734621E+03  0.00000000000E+00 0.  1.
         -3   -1    0    0    0  501 -0.00000000000E+00 -0.00000000000E+00 -0.60496845719E+03  0.60496845719E+03  0.00000000000E+00 0.  1.
         23    2    1    2    0    0  0.62373169120E+02  0.34542623914E+03 -0.10600282186E+03  0.37756317781E+03  0.90042523767E+02 0.  0.
         23    2    1    2    0    0 -0.26421476296E+03 -0.29646468341E+03  0.24343957642E+02  0.40821241167E+03  0.91345472207E+02 0.  0.
        -13    1    3    3    0    0  0.33480729257E+02  0.31779241175E+03 -0.78546320785E+02  0.32906306494E+03  0.00000000000E+00 0.  1.
         13    1    3    3    0    0  0.28892439864E+02  0.27633827387E+02 -0.27456501079E+02  0.48500112874E+02  0.00000000000E+00 0. -1.
        -13    1    4    4    0    0 -0.23645100137E+03 -0.27623486870E+03 -0.40631980842E+01  0.36363620325E+03  0.00000000000E+00 0.  1.
         13    1    4    4    0    0 -0.27763761590E+02 -0.20229814712E+02  0.28407155727E+02  0.44576208423E+02  0.00000000000E+00 0. -1.
         21    1    1    2  503  501  0.41361723774E+02 -0.10810703797E+03 -0.84260927030E+02  0.14317062435E+03  0.00000000000E+00 0.  1.
         -3    1    1    2    0  502  0.16047987006E+03  0.59145482242E+02  0.69568680270E+02  0.18463958958E+03  0.00000000000E+00 0.  1.
<scales pt_clust_5="13000.00000" pt_clust_6="13000.00000" pt_clust_7="13000.00000" pt_clust_8="13000.00000" pt_clust_9="115.74940" pt_clust_10="171.73479"></scales>
<clustering>
<clus scale="   90.043">  5  6 -1 -1</clus>
<clus scale="   91.345">  7  8 -1 -1</clus>
<clus scale="  115.749">  2  9  1 -1</clus>
<clus scale="  171.735">  1 10  2 -1</clus>
<clus scale="  348.949">  2  5  1 -1</clus>
<clus scale="  171.735">  1  5  2 -1</clus>
</clustering>
</event>
<event>
10    2  0.3984345E-006  0.9688448E+02  0.7546771E-02  0.1289097E+00
         21   -1    0    0  501  502  0.00000000000E+00  0.00000000000E+00  0.33955126735E+03  0.33955126735E+03  0.00000000000E+00 0. -1.
          4   -1    0    0  503    0 -0.00000000000E+00 -0.00000000000E+00 -0.14121105945E+03  0.14121105945E+03  0.00000000000E+00 0. -1.
         23    2    1    2    0    0  0.40985495035E+02 -0.39497299723E+01 -0.79559370435E+02  0.12745325592E+03  0.90659957254E+02 0.  0.
         23    2    1    2    0    0 -0.11331727960E+02 -0.17592459516E+02  0.76500280552E+02  0.12338843351E+03  0.94522536516E+02 0.  0.
        -11    1    4    4    0    0 -0.28992269413E+02 -0.51194956538E+02  0.47595058960E+02  0.75675391628E+02  0.00000000000E+00 0.  1.
         11    1    4    4    0    0  0.17660541453E+02  0.33602497022E+02  0.28905221592E+02  0.47713041884E+02  0.00000000000E+00 0. -1.
        -11    1    3    3    0    0  0.16263464783E+02  0.19554938745E+02 -0.88587598499E+02  0.92166471799E+02  0.00000000000E+00 0. -1.
         11    1    3    3    0    0  0.24722030253E+02 -0.23504668717E+02  0.90282280634E+01  0.35286784117E+02  0.00000000000E+00 0.  1.
         21    1    1    2  503  502 -0.23927660436E+02 -0.14281033522E+02  0.27667942387E+01  0.28002428516E+02  0.00000000000E+00 0.  1.
          4    1    1    2  501    0 -0.57261066387E+01  0.35823223011E+02  0.19863250355E+03  0.20191820886E+03  0.00000000000E+00 0. -1.
<scales pt_clust_5="13000.00000" pt_clust_6="13000.00000" pt_clust_7="13000.00000" pt_clust_8="13000.00000" pt_clust_9="27.86541" pt_clust_10="36.14758"></scales>
<clustering>
<clus scale="   27.865">  2  9  1 -1</clus>
<clus scale="   36.148">  1 10  2 -1</clus>
<clus scale="   90.660">  7  8 -1 -1</clus>
<clus scale="   93.120">  2  7  1 -1</clus>
<clus scale="   94.523">  5  6 -1 -1</clus>
<clus scale="   36.148">  1  5  2 -1</clus>
</clustering>
</event>
<event>
10    2  0.3984345E-006  0.1078045E+03  0.7546771E-02  0.1264691E+00
         21   -1    0    0  501  502  0.00000000000E+00  0.00000000000E+00  0.56881079058E+02  0.56881079058E+02  0.00000000000E+00 0. -1.
          2   -1    0    0  503    0 -0.00000000000E+00 -0.00000000000E+00 -0.55843728213E+03  0.55843728213E+03  0.00000000000E+00 0.  1.
         23    2    1    2    0    0  0.70665906925E+02  0.24148630741E+02 -0.24028147112E+03  0.26756430158E+03  0.90987050447E+02 0.  0.
         23    2    1    2    0    0 -0.20052979217E+02 -0.40736754129E+02 -0.11995953618E+03  0.15725810307E+03  0.90984699525E+02 0.  0.
        -11    1    3    3    0    0  0.20482997784E+02  0.51559845768E+02 -0.15723408063E+03  0.16673490038E+03  0.00000000000E+00 0.  1.
         11    1    3    3    0    0  0.50182909141E+02 -0.27411215026E+02 -0.83047390490E+02  0.10082940120E+03  0.00000000000E+00 0. -1.
        -13    1    4    4    0    0  0.20523478490E+02  0.13382078049E+02 -0.67036671664E+02  0.71373724367E+02  0.00000000000E+00 0.  1.
         13    1    4    4    0    0 -0.40576457706E+02 -0.54118832178E+02 -0.52922864514E+02  0.85884378700E+02  0.00000000000E+00 0. -1.
         21    1    1    2  503  502 -0.19208679543E+02  0.24701804562E+02 -0.15288833053E+03  0.15605766284E+03  0.00000000000E+00 0.  1.
          2    1    1    2  501    0 -0.31404248166E+02 -0.81136811753E+01  0.11573134754E+02  0.34438293702E+02  0.00000000000E+00 0.  1.
<scales pt_clust_5="13000.00000" pt_clust_6="13000.00000" pt_clust_7="13000.00000" pt_clust_8="13000.00000" pt_clust_9="31.29141" pt_clust_10="32.79699"></scales>
<clustering>
<clus scale="   31.291">  2  9  1 -1</clus>
<clus scale="   32.797">  1 10  2 -1</clus>
<clus scale="   90.985">  7  8 -1 -1</clus>
<clus scale="   90.987">  5  6 -1 -1</clus>
<clus scale="  107.802">  1  7  2 -1</clus>
<clus scale="   32.797">  1  5  2 -1</clus>
</clustering>
</event>
<event>
10    2  0.3984345E-006  0.1141355E+03  0.7546771E-02  0.1262758E+00
         21   -1    0    0  501  502  0.00000000000E+00  0.00000000000E+00  0.34369090651E+03  0.34369090651E+03  0.00000000000E+00 0.  1.
          1   -1    0    0  503    0 -0.00000000000E+00 -0.00000000000E+00 -0.27465685964E+03  0.27465685964E+03  0.00000000000E+00 0. -1.
         23    2    1    2    0    0  0.24677959687E+02  0.10398625476E+01 -0.22689707983E+03  0.25419251195E+03  0.11189935338E+03 0.  0.
         23    2    1    2    0    0  0.72597287452E+01  0.64937373392E+02  0.13135891842E+03  0.17297032387E+03  0.91618782841E+02 0.  0.
        -11    1    4    4    0    0  0.43165881498E+02  0.62280707861E+01  0.47414426014E+02  0.64422123416E+02  0.00000000000E+00 0. -1.
         11    1    4    4    0    0 -0.35906152753E+02  0.58709302606E+02  0.83944492403E+02  0.10854820046E+03  0.00000000000E+00 0.  1.
        -13    1    3    3    0    0  0.53381893667E+02 -0.38077060997E+02 -0.11848223348E+03  0.13541613197E+03  0.00000000000E+00 0. -1.
         13    1    3    3    0    0 -0.28703933980E+02  0.39116923544E+02 -0.10841484635E+03  0.11877637999E+03  0.00000000000E+00 0.  1.
         21    1    1    2  503  502  0.12592341631E+01 -0.23986537116E+02  0.73784278554E+01  0.25127292554E+02  0.00000000000E+00 0.  1.
          1    1    1    2  501    0 -0.33196922595E+02 -0.41990698824E+02  0.15719378043E+03  0.16605763778E+03  0.00000000000E+00 0. -1.
<scales pt_clust_5="13000.00000" pt_clust_6="13000.00000" pt_clust_7="13000.00000" pt_clust_8="13000.00000" pt_clust_9="24.01957" pt_clust_10="62.91971"></scales>
<clustering>
<clus scale="   24.020">  1  9  2 -1</clus>
<clus scale="   62.920">  1 10  2 -1</clus>
<clus scale="   91.619">  5  6 -1 -1</clus>
<clus scale="   94.337">  1  5  2 -1</clus>
<clus scale="  111.899">  7  8 -1 -1</clus>
<clus scale="   24.020">  1  5  2 -1</clus>
</clustering>
</event>
<event>
10    2  0.3984345E-006  0.2204121E+03  0.7546771E-02  0.1133618E+00
         21   -1    0    0  501  502  0.00000000000E+00  0.00000000000E+00  0.80297460989E+02  0.80297460989E+02  0.00000000000E+00 0.  1.
          1   -1    0    0  503    0 -0.00000000000E+00 -0.00000000000E+00 -0.15048386210E+04  0.15048386210E+04  0.00000000000E+00 0. -1.
         23    2    1    2    0    0  0.73257235779E+02  0.21069973996E+03 -0.66934468752E+03  0.71123527660E+03  0.89846006922E+02 0.  0.
         23    2    1    2    0    0 -0.93737379230E+02 -0.15981725550E+03 -0.55701886438E+03  0.59377652125E+03  0.89287683914E+02 0.  0.
        -13    1    4    4    0    0 -0.35237690368E+02 -0.13722343660E+03 -0.41535781824E+03  0.43885542443E+03  0.00000000000E+00 0. -1.
         13    1    4    4    0    0 -0.58499688862E+02 -0.22593818901E+02 -0.14166104613E+03  0.15492109682E+03  0.00000000000E+00 0.  1.
        -13    1    3    3    0    0  0.38593842870E+02  0.15609089828E+02 -0.96789183692E+02  0.10536258573E+03  0.00000000000E+00 0. -1.
         13    1    3    3    0    0  0.34663392909E+02  0.19509065014E+03 -0.57255550383E+03  0.60587269087E+03  0.00000000000E+00 0.  1.
         21    1    1    2  503  502 -0.96517015609E+01 -0.40162175887E+02 -0.23078394787E+03  0.23445124506E+03  0.00000000000E+00 0.  1.
          1    1    1    2  501    0  0.30131845012E+02 -0.10720308575E+02  0.32606339795E+02  0.45673039034E+02  0.00000000000E+00 0. -1.
<scales pt_clust_5="13000.00000" pt_clust_6="13000.00000" pt_clust_7="13000.00000" pt_clust_8="13000.00000" pt_clust_9="41.48055" pt_clust_10="31.98207"></scales>
<clustering>
<clus scale="   31.982">  1 10  2 -1</clus>
<clus scale="   41.481">  2  9  1 -1</clus>
<clus scale="   89.288">  5  6 -1 -1</clus>
<clus scale="   89.846">  7  8 -1 -1</clus>
<clus scale="  220.185">  1  5  2 -1</clus>
<clus scale="   31.982">  1  5  2 -1</clus>
</clustering>
</event>
<event>
10    2  0.3984345E-006  0.2049930E+03  0.7546771E-02  0.1145827E+00
         21   -1    0    0  503  502  0.00000000000E+00  0.00000000000E+00  0.74098315527E+03  0.74098315527E+03  0.00000000000E+00 0.  1.
         -1   -1    0    0    0  501 -0.00000000000E+00 -0.00000000000E+00 -0.27663565341E+03  0.27663565341E+03  0.00000000000E+00 0.  1.
         23    2    1    2    0    0 -0.72333015476E+01  0.18483729866E+03 -0.13910269197E+03  0.24845896970E+03  0.90361236631E+02 0.  0.
         23    2    1    2    0    0  0.70340267024E+02 -0.13086391012E+03  0.55013356327E+03  0.57736531902E+03  0.92901334942E+02 0.  0.
        -11    1    4    4    0    0  0.51949092938E+02 -0.22089997830E+02  0.27889650153E+03  0.28455216538E+03  0.00000000000E+00 0.  1.
         11    1    4    4    0    0  0.18391174086E+02 -0.10877391229E+03  0.27123706174E+03  0.29281315363E+03  0.00000000000E+00 0. -1.
        -11    1    3    3    0    0 -0.44777691499E+02  0.13744689626E+03 -0.10815408551E+03  0.18053807676E+03  0.00000000000E+00 0.  1.
         11    1    3    3    0    0  0.37544389951E+02  0.47390402392E+02 -0.30948606460E+02  0.67920892938E+02  0.00000000000E+00 0. -1.
         21    1    1    2  503  501 -0.21724781248E+02  0.46254361561E+00 -0.57561606264E+02  0.61526568103E+02  0.00000000000E+00 0.  1.
         -1    1    1    2    0  502 -0.41382184228E+02 -0.54435932157E+02  0.11087823682E+03  0.13026795186E+03  0.00000000000E+00 0.  1.
<scales pt_clust_5="13000.00000" pt_clust_6="13000.00000" pt_clust_7="13000.00000" pt_clust_8="13000.00000" pt_clust_9="21.72970" pt_clust_10="68.95466"></scales>
<clustering>
<clus scale="   21.730">  2  9  1 -1</clus>
<clus scale="   68.955">  1 10  2 -1</clus>
<clus scale="   90.361">  7  8 -1 -1</clus>
<clus scale="   92.901">  5  6 -1 -1</clus>
<clus scale="  203.854">  2  7  1 -1</clus>
<clus scale="   68.955">  1  5  2 -1</clus>
</clustering>
</event>
<event>
10    2  0.3984345E-006  0.9339705E+02  0.7546771E-02  0.1296378E+00
          2   -1    0    0  503    0 -0.00000000000E+00  0.00000000000E+00  0.42494991257E+03  0.42494991257E+03  0.00000000000E+00 0. -1.
         21   -1    0    0  501  502  0.00000000000E+00 -0.00000000000E+00 -0.11660414787E+03  0.11660414787E+03  0.00000000000E+00 0.  1.
         23    2    1    2    0    0 -0.10038687776E+01 -0.62482932299E+01  0.17556288755E+03  0.19755296465E+03  0.90359268677E+02 0.  0.
         23    2    1    2    0    0  0.27583288111E+02  0.73759612665E+02 -0.43558425266E+02  0.12942752993E+03  0.93020593682E+02 0.  0.
        -11    1    4    4    0    0  0.12429746427E+02  0.24806618681E+02 -0.67415095893E+02  0.72901728929E+02  0.00000000000E+00 0.  1.
         11    1    4    4    0    0  0.15153541684E+02  0.48952993984E+02  0.23856670627E+02  0.56525801002E+02  0.00000000000E+00 0. -1.
        -13    1    3    3    0    0  0.12344946779E+02  0.39711605617E+02  0.66226482730E+02  0.78200743899E+02  0.00000000000E+00 0. -1.
         13    1    3    3    0    0 -0.13348815557E+02 -0.45959898847E+02  0.10933640482E+03  0.11935222075E+03  0.00000000000E+00 0.  1.
         21    1    1    2  503  502 -0.68501026521E+01  0.23427961301E+02  0.65203652693E+02  0.69622622771E+02  0.00000000000E+00 0. -1.
          2    1    1    2  501    0 -0.19729316681E+02 -0.90939280736E+02  0.11113764972E+03  0.14495094309E+03  0.00000000000E+00 0. -1.
<scales pt_clust_5="13000.00000" pt_clust_6="13000.00000" pt_clust_7="13000.00000" pt_clust_8="13000.00000" pt_clust_9="24.40888" pt_clust_10="85.47759"></scales>
<clustering>
<clus scale="   24.409">  1  9  2 -1</clus>
<clus scale="   85.478">  2 10  1 -1</clus>
<clus scale="   90.359">  7  8 -1 -1</clus>
<clus scale="   90.747">  1  7  2 -1</clus>
<clus scale="   93.021">  5  6 -1 -1</clus>
<clus scale="   85.478">  2  5  1 -1</clus>
</clustering>
</event>
<event>
10    2  0.3984345E-006  0.1090182E+03  0.7546771E-02  0.1262659E+00
          2   -1    0    0  503    0 -0.00000000000E+00  0.00000000000E+00  0.26584704755E+03  0.26584704755E+03  0.00000000000E+00 0. -1.
         21   -1    0    0  501  502  0.00000000000E+00 -0.00000000000E+00 -0.18369072609E+03  0.18369072609E+03  0.00000000000E+00 0. -1.
         23    2    1    2    0    0  0.30295880762E+02 -0.35371866967E+02  0.10141661914E+03  0.14459146318E+03  0.91936669632E+02 0.  0.
         23    2    1    2    0    0 -0.49655651681E+02  0.19661499851E+02 -0.22415106707E+02  0.10810496201E+03  0.91279721090E+02 0.  0.
        -11    1    3    3    0    0 -0.31736961342E+02 -0.22718610120E+00  0.29764315936E+02  0.43510927730E+02  0.00000000000E+00 0.  1.
         11    1    3    3    0    0  0.62032842104E+02 -0.35144680866E+02  0.71652303206E+02  0.10108053545E+03  0.00000000000E+00 0. -1.
        -13    1    4    4    0    0 -0.56641629706E+02  0.47566801949E+02 -0.27462433656E+02  0.78899050220E+02  0.00000000000E+00 0.  1.
         13    1    4    4    0    0  0.69859780247E+01 -0.27905302098E+02  0.50473269492E+01  0.29205911790E+02  0.00000000000E+00 0. -1.
         21    1    1    2  503  502  0.32712743852E+02  0.66687046361E+00  0.96218021952E+02  0.10162911037E+03  0.00000000000E+00 0. -1.
          2    1    1    2  501    0 -0.13352972933E+02  0.15043496653E+02 -0.93063212930E+02  0.95212238071E+02  0.00000000000E+00 0. -1.
<scales pt_clust_5="13000.00000" pt_clust_6="13000.00000" pt_clust_7="13000.00000" pt_clust_8="13000.00000" pt_clust_9="32.32878" pt_clust_10="20.11489"></scales>
<clustering>
<clus scale="   20.115">  2 10  1 -1</clus>
<clus scale="   32.329">  1  9  2 -1</clus>
<clus scale="   91.280">  7  8 -1 -1</clus>
<clus scale="   91.937">  5  6 -1 -1</clus>
<clus scale="  108.465">  2  7  1 -1</clus>
<clus scale="   20.115">  2  5  1 -1</clus>
</clustering>
</event>
<event>
10    2  0.3984345E-006  0.1518390E+03  0.7546771E-02  0.1198476E+00
         21   -1    0    0  501  502  0.00000000000E+00  0.00000000000E+00  0.30721477210E+03  0.30721477210E+03  0.00000000000E+00 0. -1.
         -1   -1    0    0    0  501 -0.00000000000E+00 -0.00000000000E+00 -0.29846073708E+03  0.29846073708E+03  0.00000000000E+00 0.  1.
         23    2    1    2    0    0 -0.86381255407E+02 -0.12994661805E+03  0.47721121245E+02  0.18711253461E+03  0.91574834790E+02 0.  0.
         23    2    1    2    0    0  0.53481286796E+01  0.83666674554E+02  0.11721155933E+03  0.17145720748E+03  0.92899458794E+02 0.  0.
        -11    1    4    4    0    0  0.26010677591E+02  0.94700422272E+02  0.10880179144E+03  0.14656928446E+03  0.00000000000E+00 0.  1.
         11    1    4    4    0    0 -0.20662548912E+02 -0.11033747717E+02  0.84097678969E+01  0.24887923021E+02  0.00000000000E+00 0. -1.
        -13    1    3    3    0    0 -0.30175795476E+02 -0.24259975570E+01 -0.15585448842E+02  0.34049527344E+02  0.00000000000E+00 0.  1.
         13    1    3    3    0    0 -0.56205459931E+02 -0.12752062049E+03  0.63306570087E+02  0.15306300726E+03  0.00000000000E+00 0. -1.
         21    1    1    2  503  502 -0.31100552105E+02  0.99853558598E+01  0.17619086468E+02  0.37113122758E+02  0.00000000000E+00 0. -1.
         -1    1    1    2    0  503  0.11213367883E+03  0.36294587633E+02 -0.17379773203E+03  0.20999264434E+03  0.00000000000E+00 0.  1.
<scales pt_clust_5="13000.00000" pt_clust_6="13000.00000" pt_clust_7="13000.00000" pt_clust_8="13000.00000" pt_clust_9="32.66423" pt_clust_10="116.15315"></scales>
<clustering>
<clus scale="   32.664">  1  9  2 -1</clus>
<clus scale="   91.575">  7  8 -1 -1</clus>
<clus scale="   92.899">  5  6 -1 -1</clus>
<clus scale="  116.153">  1 10  2 -1</clus>
<clus scale="  151.032">  2  7  1 -1</clus>
<clus scale="   32.664">  1  5  2 -1</clus>
</clustering>
</event>
<event>
10    2  0.3984345E-006  0.9809232E+02  0.7546771E-02  0.1284624E+00
         21   -1    0    0  501  502  0.00000000000E+00  0.00000000000E+00  0.50781950544E+02  0.50781950544E+02  0.00000000000E+00 0. -1.
          1   -1    0    0  503    0 -0.00000000000E+00 -0.00000000000E+00 -0.72858359622E+03  0.72858359622E+03  0.00000000000E+00 0. -1.
         23    2    1    2    0    0 -0.13669882310E+02 -0.11760104504E+02 -0.26151790172E+03  0.27773662270E+03  0.91765205443E+02 0.  0.
         23    2    1    2    0    0 -0.30963602704E+02  0.55214329588E+02 -0.23383713838E+03  0.25886760923E+03  0.91242889800E+02 0.  0.
        -13    1    4    4    0    0 -0.68363896702E-01  0.59433072800E+02 -0.21355207201E+03  0.22166818057E+03  0.00000000000E+00 0. -1.
         13    1    4    4    0    0 -0.30895238807E+02 -0.42187432116E+01 -0.20285066368E+02  0.37199428663E+02  0.00000000000E+00 0.  1.
        -13    1    3    3    0    0 -0.29178578777E+02  0.28601506136E+02 -0.67038527465E+02  0.78508596837E+02  0.00000000000E+00 0. -1.
         13    1    3    3    0    0  0.15508696468E+02 -0.40361610640E+02 -0.19447937426E+03  0.19922802587E+03  0.00000000000E+00 0.  1.
         21    1    1    2  503  502  0.55759207143E+02 -0.19067801889E+02 -0.20145756237E+03  0.20989954665E+03  0.00000000000E+00 0.  1.
          1    1    1    2  501    0 -0.11125722129E+02 -0.24386423195E+02  0.19010956796E+02  0.32861768173E+02  0.00000000000E+00 0. -1.
<scales pt_clust_5="13000.00000" pt_clust_6="13000.00000" pt_clust_7="13000.00000" pt_clust_8="13000.00000" pt_clust_9="58.65678" pt_clust_10="26.80446"></scales>
<clustering>
<clus scale="   26.804">  1 10  2 -1</clus>
<clus scale="   58.657">  2  9  1 -1</clus>
<clus scale="   91.243">  5  6 -1 -1</clus>
<clus scale="   91.765">  7  8 -1 -1</clus>
<clus scale="   97.604">  1  5  2 -1</clus>
<clus scale="   26.804">  1  5  2 -1</clus>
</clustering>
</event>
<event>
10    2  0.3984345E-006  0.9884768E+02  0.7546771E-02  0.1285665E+00
          1   -1    0    0  503    0 -0.00000000000E+00  0.00000000000E+00  0.22615571337E+03  0.22615571337E+03  0.00000000000E+00 0. -1.
         21   -1    0    0  501  502  0.00000000000E+00 -0.00000000000E+00 -0.24660328769E+03  0.24660328769E+03  0.00000000000E+00 0.  1.
         23    2    1    2    0    0  0.13008896582E+01 -0.15633113158E+02  0.20445222235E+01  0.93656383425E+02  0.92310625305E+02 0.  0.
         23    2    1    2    0    0  0.39633189921E+02  0.45705589402E+01 -0.12454932901E+02  0.10626272581E+03  0.97698320303E+02 0.  0.
        -13    1    4    4    0    0 -0.53349852807E+01  0.44173672046E+02 -0.12945307476E+02  0.46339576558E+02  0.00000000000E+00 0. -1.
         13    1    4    4    0    0  0.44968175202E+02 -0.39603113106E+02  0.49037457509E+00  0.59923149248E+02  0.00000000000E+00 0.  1.
        -13    1    3    3    0    0 -0.11320833705E+02 -0.51807004144E+02 -0.89905276008E+01  0.53786211437E+02  0.00000000000E+00 0.  1.
         13    1    3    3    0    0  0.12621723363E+02  0.36173890987E+02  0.11035049824E+02  0.39870171988E+02  0.00000000000E+00 0. -1.
         21    1    1    2  503  502  0.68644299724E+02  0.80653214335E+01  0.97346305970E+02  0.11938757297E+03  0.00000000000E+00 0. -1.
          1    1    1    2  501    0 -0.10957837930E+03  0.29972327839E+01 -0.10738346961E+03  0.15345231885E+03  0.00000000000E+00 0. -1.
<scales pt_clust_5="13000.00000" pt_clust_6="13000.00000" pt_clust_7="13000.00000" pt_clust_8="13000.00000" pt_clust_9="69.11649" pt_clust_10="96.26325"></scales>
<clustering>
<clus scale="   69.116">  1  9  2 -1</clus>
<clus scale="   92.311">  7  8 -1 -1</clus>
<clus scale="   96.263">  2 10  1 -1</clus>
<clus scale="   93.526">  1  7  2 -1</clus>
<clus scale="   97.698">  5  6 -1 -1</clus>
<clus scale="   96.263">  2  5  1 -1</clus>
</clustering>
</event>
<event>
10    2  0.3984345E-006  0.1748527E+03  0.7546771E-02  0.1187524E+00
         -1   -1    0    0    0  501 -0.00000000000E+00  0.00000000000E+00  0.10605692618E+03  0.10605692618E+03  0.00000000000E+00 0.  1.
         21   -1    0    0  503  502  0.00000000000E+00 -0.00000000000E+00 -0.11500980079E+04  0.11500980079E+04  0.00000000000E+00 0. -1.
         23    2    1    2    0    0 -0.12103047258E+02  0.11075740525E+03 -0.23855167472E+02  0.14685602985E+03  0.92649543532E+02 0.  0.
         23    2    1    2    0    0 -0.74573564712E+02 -0.16897425629E+03 -0.54220553839E+03  0.58016324555E+03  0.92135931033E+02 0.  0.
        -11    1    4    4    0    0 -0.68744961393E+02 -0.76013214770E+02 -0.19034437501E+03  0.21618246838E+03  0.00000000000E+00 0. -1.
         11    1    4    4    0    0 -0.58286033192E+01 -0.92961041525E+02 -0.35186116338E+03  0.36398077718E+03  0.00000000000E+00 0.  1.
        -11    1    3    3    0    0  0.29311757639E+02  0.85032136676E+02  0.52139814814E+01  0.90093445968E+02  0.00000000000E+00 0.  1.
         11    1    3    3    0    0 -0.41414804897E+02  0.25725268578E+02 -0.29069148953E+02  0.56762583882E+02  0.00000000000E+00 0. -1.
         21    1    1    2  503  501 -0.48622307005E+01 -0.39497246687E+02 -0.81793075996E+01  0.40627267396E+02  0.00000000000E+00 0.  1.
         -1    1    1    2    0  502  0.91538842671E+02  0.97714097728E+02 -0.46980106827E+03  0.48850839129E+03  0.00000000000E+00 0.  1.
<scales pt_clust_5="13000.00000" pt_clust_6="13000.00000" pt_clust_7="13000.00000" pt_clust_8="13000.00000" pt_clust_9="39.79540" pt_clust_10="148.60831"></scales>
<clustering>
<clus scale="   39.795">  1  9  2 -1</clus>
<clus scale="   92.136">  5  6 -1 -1</clus>
<clus scale="   92.650">  7  8 -1 -1</clus>
<clus scale="  125.820">  1  7  2 -1</clus>
<clus scale="  148.608">  2 10  1 -1</clus>
<clus scale="  148.608">  2  5  1 -1</clus>
</clustering>
</event>
<event>
10    2  0.3984345E-006  0.1157537E+03  0.7546771E-02  0.1250465E+00
         21   -1    0    0  501  502  0.00000000000E+00  0.00000000000E+00  0.61884295638E+03  0.61884295638E+03  0.00000000000E+00 0. -1.
          2   -1    0    0  503    0 -0.00000000000E+00 -0.00000000000E+00 -0.15058870233E+03  0.15058870233E+03  0.00000000000E+00 0. -1.
         23    2    1    2    0    0 -0.79037506563E+02 -0.54614507276E+02 -0.27883205865E+02  0.13514858468E+03  0.90873510570E+02 0.  0.
         23    2    1    2    0    0  0.10924875017E+03  0.46136252599E+02  0.27176320837E+03  0.31029083360E+03  0.91440236110E+02 0.  0.
        -11    1    4    4    0    0  0.69509726146E+01 -0.24474855689E+02  0.45100796891E+02  0.51782395285E+02  0.00000000000E+00 0. -1.
         11    1    4    4    0    0  0.10229777755E+03  0.70611108288E+02  0.22666241147E+03  0.25850843832E+03  0.00000000000E+00 0.  1.
        -13    1    3    3    0    0 -0.71294376889E+02 -0.76021132662E+02 -0.37046003973E+02  0.11060970662E+03  0.00000000000E+00 0. -1.
         13    1    3    3    0    0 -0.77431296747E+01  0.21406625386E+02  0.91627981078E+01  0.24538878066E+02  0.00000000000E+00 0.  1.
         21    1    1    2  503  502  0.43137639351E+02  0.14763450691E+02 -0.33008426059E+02  0.56288290043E+02  0.00000000000E+00 0.  1.
          2    1    1    2  501    0 -0.73348882954E+02 -0.62851960134E+01  0.25738267760E+03  0.26770395038E+03  0.00000000000E+00 0. -1.
<scales pt_clust_5="13000.00000" pt_clust_6="13000.00000" pt_clust_7="13000.00000" pt_clust_8="13000.00000" pt_clust_9="45.59403" pt_clust_10="71.46462"></scales>
<clustering>
<clus scale="   45.594">  2  9  1 -1</clus>
<clus scale="   71.465">  1 10  2 -1</clus>
<clus scale="   90.874">  7  8 -1 -1</clus>
<clus scale="   91.440">  5  6 -1 -1</clus>
<clus scale="  115.307">  2  7  1 -1</clus>
<clus scale="   71.465">  1  5  2 -1</clus>
</clustering>
</event>
<event>
10    2  0.3984345E-006  0.9668753E+02  0.7546771E-02  0.1287667E+00
         21   -1    0    0  501  502  0.00000000000E+00  0.00000000000E+00  0.43146446522E+03  0.43146446522E+03  0.00000000000E+00 0. -1.
          2   -1    0    0  503    0 -0.00000000000E+00 -0.00000000000E+00 -0.42138214427E+03  0.42138214427E+03  0.00000000000E+00 0. -1.
         23    2    1    2    0    0 -0.18151396076E+02  0.57741158024E+02  0.89445066389E+01  0.11000494935E+03  0.91419747174E+02 0.  0.
         23    2    1    2    0    0 -0.15243743808E+02 -0.25352010108E+02  0.45400819523E+02  0.10586458579E+03  0.90944928227E+02 0.  0.
        -11    1    4    4    0    0 -0.50064794934E+02 -0.16588781128E+02  0.68543577011E+01  0.53185087859E+02  0.00000000000E+00 0. -1.
         11    1    4    4    0    0  0.34821051126E+02 -0.87632289799E+01  0.38546461822E+02  0.52679497935E+02  0.00000000000E+00 0.  1.
        -13    1    3    3    0    0 -0.15398879908E+02  0.23124289949E+02 -0.40786387143E+02  0.49349647053E+02  0.00000000000E+00 0. -1.
         13    1    3    3    0    0 -0.27525161676E+01  0.34616868076E+02  0.49730893782E+02  0.60655302299E+02  0.00000000000E+00 0.  1.
         21    1    1    2  503  502 -0.23642897464E+01 -0.59355359726E+02 -0.33630998641E+03  0.34151582035E+03  0.00000000000E+00 0. -1.
          2    1    1    2  501    0  0.35759429631E+02  0.26966211809E+02  0.29204698120E+03  0.29546125400E+03  0.00000000000E+00 0. -1.
<scales pt_clust_5="13000.00000" pt_clust_6="13000.00000" pt_clust_7="13000.00000" pt_clust_8="13000.00000" pt_clust_9="58.86988" pt_clust_10="44.78742"></scales>
<clustering>
<clus scale="   44.787">  1 10  2 -1</clus>
<clus scale="   58.870">  2  9  1 -1</clus>
<clus scale="   90.945">  5  6 -1 -1</clus>
<clus scale="   91.420">  7  8 -1 -1</clus>
<clus scale="   96.239">  1  5  2 -1</clus>
<clus scale="   44.787">  1  5  2 -1</clus>
</clustering>
</event>
<event>
10    2  0.3984345E-006  0.2395035E+03  0.7546771E-02  0.1139562E+00
          2   -1    0    0  503    0 -0.00000000000E+00  0.00000000000E+00  0.46267663420E+03  0.46267663420E+03  0.00000000000E+00 0. -1.
         21   -1    0    0  501  502  0.00000000000E+00 -0.00000000000E+00 -0.96906220305E+03  0.96906220305E+03  0.00000000000E+00 0. -1.
         23    2    1    2    0    0  0.11244965668E+03 -0.57755468161E+01 -0.34231243450E+03  0.37202871457E+03  0.92462313516E+02 0.  0.
         23    2    1    2    0    0 -0.28988615265E+03  0.14881455059E+03  0.80225063721E+02  0.34774525439E+03  0.91164407187E+02 0.  0.
        -11    1    3    3    0    0  0.42325174542E+02  0.35719101710E+02 -0.79606707404E+02  0.96976814192E+02  0.00000000000E+00 0. -1.
         11    1    3    3    0    0  0.70124482142E+02 -0.41494648526E+02 -0.26270572710E+03  0.27505190038E+03  0.00000000000E+00 0.  1.
        -13    1    4    4    0    0 -0.14269232654E+02  0.33439628937E+02 -0.58010236616E+01  0.36816730701E+02  0.00000000000E+00 0.  1.
         13    1    4    4    0    0 -0.27561691999E+03  0.11537492165E+03  0.86026087382E+02  0.31092852369E+03  0.00000000000E+00 0. -1.
         21    1    1    2  503  502  0.64462387072E+02  0.38895921187E+02  0.20274486930E+03  0.21627245330E+03  0.00000000000E+00 0. -1.
          2    1    1    2  501    0  0.11297410889E+03 -0.18193492496E+03 -0.44704306737E+03  0.49569241499E+03  0.00000000000E+00 0. -1.
<scales pt_clust_5="13000.00000" pt_clust_6="13000.00000" pt_clust_7="13000.00000" pt_clust_8="13000.00000" pt_clust_9="75.28806" pt_clust_10="221.47452"></scales>
<clustering>
<clus scale="   75.288">  1  9  2 -1</clus>
<clus scale="   91.164">  7  8 -1 -1</clus>
<clus scale="   92.462">  5  6 -1 -1</clus>
<clus scale="  148.565">  1  5  2 -1</clus>
<clus scale="  221.475">  2 10  1 -1</clus>
<clus scale="  221.475">  2  5  1 -1</clus>
</clustering>
</event>
<event>
10    2  0.3984345E-006  0.1169915E+03  0.7546771E-02  0.1248630E+00
          1   -1    0    0  503    0 -0.00000000000E+00  0.00000000000E+00  0.74619408562E+03  0.74619408562E+03  0.00000000000E+00 0. -1.
         21   -1    0    0  501  502  0.00000000000E+00 -0.00000000000E+00 -0.88517732555E+02  0.88517732555E+02  0.00000000000E+00 0.  1.
         23    2    1    2    0    0  0.10199310263E+03  0.60079531444E+02  0.11532086498E+03  0.18952920460E+03  0.92791564340E+02 0.  0.
         23    2    1    2    0    0 -0.43074299941E+02  0.23110648985E+02  0.89539948881E+02  0.13694251757E+03  0.91358378161E+02 0.  0.
        -11    1    4    4    0    0  0.31518342372E+01  0.29477421256E+02  0.85045123210E+02  0.90064007266E+02  0.00000000000E+00 0.  1.
         11    1    4    4    0    0 -0.46226134179E+02 -0.63667722718E+01  0.44948256708E+01  0.46878510301E+02  0.00000000000E+00 0. -1.
        -11    1    3    3    0    0  0.82770360126E+02  0.35728384986E+02  0.12754006454E+03  0.15618552453E+03  0.00000000000E+00 0. -1.
         11    1    3    3    0    0  0.19222742502E+02  0.24351146458E+02 -0.12219199552E+02  0.33343680073E+02  0.00000000000E+00 0.  1.
         21    1    1    2  503  502 -0.53220100947E+02 -0.16476892691E+02  0.43554313708E+03  0.43909189403E+03  0.00000000000E+00 0. -1.
          1    1    1    2  501    0 -0.56987017400E+01 -0.66713287738E+02  0.17272402111E+02  0.69148201979E+02  0.00000000000E+00 0. -1.
<scales pt_clust_5="13000.00000" pt_clust_6="13000.00000" pt_clust_7="13000.00000" pt_clust_8="13000.00000" pt_clust_9="55.71236" pt_clust_10="70.25875"></scales>
<clustering>
<clus scale="   55.712">  1  9  2 -1</clus>
<clus scale="   70.259">  2 10  1 -1</clus>
<clus scale="   91.358">  5  6 -1 -1</clus>
<clus scale="   92.792">  7  8 -1 -1</clus>
<clus scale="  115.858">  2  5  1 -1</clus>
<clus scale="   70.259">  2  5  1 -1</clus>
</clustering>
</event>
<event>
10    2  0.3984345E-006  0.1336278E+03  0.7546771E-02  0.1222173E+00
         21   -1    0    0  501  502  0.00000000000E+00  0.00000000000E+00  0.24870467241E+03  0.24870467241E+03  0.00000000000E+00 0.  1.
          4   -1    0    0  503    0 -0.00000000000E+00 -0.00000000000E+00 -0.12753276416E+03  0.12753276416E+03  0.00000000000E+00 0. -1.
         23    2    1    2    0    0  0.73250991365E+02 -0.48777896692E+02  0.48761154984E+02  0.13599032025E+03  0.91491671890E+02 0.  0.
         23    2    1    2    0    0 -0.83679560765E+02  0.66885276373E+02  0.67645483092E+02  0.15626891599E+03  0.91477612756E+02 0.  0.
        -11    1    4    4    0    0 -0.96249583351E+02  0.28521103854E+02  0.45408445012E+02  0.11017877535E+03  0.00000000000E+00 0.  1.
         11    1    4    4    0    0  0.12570022586E+02  0.38364172519E+02  0.22237038080E+02  0.46090140632E+02  0.00000000000E+00 0. -1.
        -13    1    3    3    0    0  0.11015792896E+02 -0.22794616015E+02  0.62260618983E+02  0.67211062248E+02  0.00000000000E+00 0.  1.
         13    1    3    3    0    0  0.62235198469E+02 -0.25983280677E+02 -0.13499463999E+02  0.68779258004E+02  0.00000000000E+00 0. -1.
         21    1    1    2  503  502 -0.74331483625E+01 -0.37825479700E+02 -0.23511112375E+02  0.45152973482E+02  0.00000000000E+00 0.  1.
          4    1    1    2  501    0  0.17861717762E+02  0.19718100020E+02  0.28276382551E+02  0.38825226850E+02  0.00000000000E+00 0. -1.
<scales pt_clust_5="13000.00000" pt_clust_6="13000.00000" pt_clust_7="13000.00000" pt_clust_8="13000.00000" pt_clust_9="37.40897" pt_clust_10="26.60535"></scales>
<clustering>
<clus scale="   26.605">  1 10  2 -1</clus>
<clus scale="   37.409">  2  9  1 -1</clus>
<clus scale="   91.478">  5  6 -1 -1</clus>
<clus scale="   91.492">  7  8 -1 -1</clus>
<clus scale="  133.618">  1  5  2 -1</clus>
<clus scale="   26.605">  1  5  2 -1</clus>
</clustering>
</event>
<event>
10    2  0.3984345E-006  0.1966542E+03  0.7546771E-02  0.1153474E+00
          2   -1    0    0  503    0 -0.00000000000E+00  0.00000000000E+00  0.69373663966E+03  0.69373663966E+03  0.00000000000E+00 0. -1.
         21   -1    0    0  501  502  0.00000000000E+00 -0.00000000000E+00 -0.24040294098E+03  0.24040294098E+03  0.00000000000E+00 0. -1.
         23    2    1    2    0    0  0.13857476060E+03 -0.92027096066E+02  0.49224827979E+03  0.52620137176E+03  0.83111756092E+02 0.  0.
         23    2    1    2    0    0 -0.15661656987E+03  0.15848225781E+02  0.36357051457E+02  0.18596107504E+03  0.92085666746E+02 0.  0.
        -13    1    4    4    0    0 -0.13123601848E+03  0.16107655514E+02 -0.10535456055E+02  0.13263990707E+03  0.00000000000E+00 0. -1.
         13    1    4    4    0    0 -0.25380551388E+02 -0.25942973298E+00  0.46892507512E+02  0.53321167967E+02  0.00000000000E+00 0.  1.
        -13    1    3    3    0    0  0.39079696806E+02 -0.72359512012E+02  0.26205613441E+03  0.27465713037E+03  0.00000000000E+00 0. -1.
         13    1    3    3    0    0  0.99495063798E+02 -0.19667584054E+02  0.23019214538E+03  0.25154424139E+03  0.00000000000E+00 0.  1.
         21    1    1    2  503  502  0.41536374230E+01 -0.48411140021E+02  0.30997035256E+02  0.57634255236E+02  0.00000000000E+00 0. -1.
          2    1    1    2  501    0  0.13888171844E+02  0.12459001031E+03 -0.10626866783E+03  0.16434287860E+03  0.00000000000E+00 0. -1.
<scales pt_clust_5="13000.00000" pt_clust_6="13000.00000" pt_clust_7="13000.00000" pt_clust_8="13000.00000" pt_clust_9="48.58900" pt_clust_10="123.23174"></scales>
<clustering>
<clus scale="   48.589">  1  9  2 -1</clus>
<clus scale="   83.112">  7  8 -1 -1</clus>
<clus scale="   92.086">  5  6 -1 -1</clus>
<clus scale="  123.232">  2 10  1 -1</clus>
<clus scale="  192.615">  1  7  2 -1</clus>
<clus scale="  123.232">  2  5  1 -1</clus>
</clustering>
</event>
<event>
10    2  0.3984345E-006  0.1019289E+03  0.7546771E-02  0.1276956E+00
          4   -1    0    0  503    0 -0.00000000000E+00  0.00000000000E+00  0.29520917666E+03  0.29520917666E+03  0.00000000000E+00 0. -1.
         21   -1    0    0  501  502  0.00000000000E+00 -0.00000000000E+00 -0.10206686263E+03  0.10206686263E+03  0.00000000000E+00 0. -1.
         23    2    1    2    0    0  0.45926733628E+02 -0.41908511882E+02  0.14559514857E+03  0.18287691399E+03  0.91544689369E+02 0.  0.
         23    2    1    2    0    0 -0.53819089480E+02 -0.83213091946E+01  0.11559632218E+02  0.10591903425E+03  0.90108146919E+02 0.  0.
        -11    1    3    3    0    0 -0.10754998731E+02 -0.42936200988E+02  0.28124394714E+02  0.52442053078E+02  0.00000000000E+00 0. -1.
         11    1    3    3    0    0  0.56681732359E+02  0.10276891069E+01  0.11747075386E+03  0.13043486091E+03  0.00000000000E+00 0.  1.
        -13    1    4    4    0    0 -0.16671932775E+02 -0.13804304889E+02  0.48582998652E+02  0.53186651839E+02  0.00000000000E+00 0. -1.
         13    1    4    4    0    0 -0.37147156705E+02  0.54829956945E+01 -0.37023366433E+02  0.52732382414E+02  0.00000000000E+00 0.  1.
         21    1    1    2  503  502 -0.23892803730E+02  0.10006305924E+02  0.49143726068E+02  0.55552660064E+02  0.00000000000E+00 0.  1.
          4    1    1    2  501    0  0.31785159582E+02  0.40223515153E+02 -0.13156192825E+02  0.52927430983E+02  0.00000000000E+00 0. -1.
<scales pt_clust_5="13000.00000" pt_clust_6="13000.00000" pt_clust_7="13000.00000" pt_clust_8="13000.00000" pt_clust_9="25.90352" pt_clust_10="50.73728"></scales>
<clustering>
<clus scale="   25.904">  1  9  2 -1</clus>
<clus scale="   50.737">  2 10  1 -1</clus>
<clus scale="   90.108">  7  8 -1 -1</clus>
<clus scale="   91.545">  5  6 -1 -1</clus>
<clus scale="  100.641">  2  7  1 -1</clus>
<clus scale="   50.737">  2  5  1 -1</clus>
</clustering>
</event>
<event>
10    2  0.3984345E-006  0.9713028E+02  0.7546771E-02  0.1286541E+00
          1   -1    0    0  503    0 -0.00000000000E+00  0.00000000000E+00  0.53449313537E+03  0.53449313537E+03  0.00000000000E+00 0. -1.
         21   -1    0    0  501  502  0.00000000000E+00 -0.00000000000E+00 -0.62828874055E+02  0.62828874055E+02  0.00000000000E+00 0. -1.
         23    2    1    2    0    0  0.56355936530E+02 -0.26846783110E+02  0.30085610575E+03  0.32010107558E+03  0.89741633998E+02 0.  0.
         23    2    1    2    0    0  0.11200117161E+02  0.45389907428E+02  0.52929180218E+02  0.11433884937E+03  0.89923234128E+02 0.  0.
        -11    1    4    4    0    0 -0.74360985694E+01 -0.22856399543E+02 -0.29109401883E+01  0.24211239844E+02  0.00000000000E+00 0.  1.
         11    1    4    4    0    0  0.18636215731E+02  0.68246306971E+02  0.55840120406E+02  0.90127609526E+02  0.00000000000E+00 0. -1.
        -13    1    3    3    0    0  0.78251205460E+02 -0.35269753699E+02  0.23907513025E+03  0.25401599277E+03  0.00000000000E+00 0. -1.
         13    1    3    3    0    0 -0.21895268929E+02  0.84229705893E+01  0.61780975502E+02  0.66085082802E+02  0.00000000000E+00 0.  1.
         21    1    1    2  503  502 -0.21845598145E+02  0.19058873300E+02  0.95167313722E+02  0.99485116529E+02  0.00000000000E+00 0.  1.
          1    1    1    2  501    0 -0.45710455547E+02 -0.37601997619E+02  0.22711661623E+02  0.63396967947E+02  0.00000000000E+00 0. -1.
<scales pt_clust_5="13000.00000" pt_clust_6="13000.00000" pt_clust_7="13000.00000" pt_clust_8="13000.00000" pt_clust_9="28.99087" pt_clust_10="59.72468"></scales>
<clustering>
<clus scale="   28.991">  1  9  2 -1</clus>
<clus scale="   59.725">  2 10  1 -1</clus>
<clus scale="   89.742">  7  8 -1 -1</clus>
<clus scale="   89.923">  5  6 -1 -1</clus>
<clus scale="   96.962">  1  7  2 -1</clus>
<clus scale="   59.725">  2  5  1 -1</clus>
</clustering>
</event>
<event>
10    2  0.3984345E-006  0.1385944E+03  0.7546771E-02  0.1219452E+00
         21   -1    0    0  501  502  0.00000000000E+00  0.00000000000E+00  0.26728368703E+03  0.26728368703E+03  0.00000000000E+00 0. -1.
          2   -1    0    0  503    0 -0.00000000000E+00 -0.00000000000E+00 -0.31897439286E+03  0.31897439286E+03  0.00000000000E+00 0. -1.
         23    2    1    2    0    0  0.12908667092E+02  0.76795814843E+02 -0.13051024424E+03  0.18612570392E+03  0.10745056046E+03 0.  0.
         23    2    1    2    0    0  0.44340026798E+02 -0.57547224479E+02  0.16744287391E+03  0.20427718977E+03  0.91729674668E+02 0.  0.
        -11    1    3    3    0    0 -0.93283066625E+01 -0.25269142931E+02 -0.38083383606E+02  0.46646446773E+02  0.00000000000E+00 0.  1.
         11    1    3    3    0    0  0.22236973754E+02  0.10206495777E+03 -0.92426860639E+02  0.13947925715E+03  0.00000000000E+00 0. -1.
        -13    1    4    4    0    0 -0.90970032161E+01 -0.27618726342E+02  0.35257292926E+01  0.29291300403E+02  0.00000000000E+00 0.  1.
         13    1    4    4    0    0  0.53437030014E+02 -0.29928498137E+02  0.16391714461E+03  0.17498588936E+03  0.00000000000E+00 0. -1.
         21    1    1    2  503  502 -0.34740027129E+02  0.16418864325E+02 -0.13072904461E+03  0.13625906096E+03  0.00000000000E+00 0. -1.
          2    1    1    2  501    0 -0.22508666761E+02 -0.35667454689E+02  0.42105709112E+02  0.59596125236E+02  0.00000000000E+00 0. -1.
<scales pt_clust_5="13000.00000" pt_clust_6="13000.00000" pt_clust_7="13000.00000" pt_clust_8="13000.00000" pt_clust_9="38.42458" pt_clust_10="42.43352"></scales>
<clustering>
<clus scale="   38.425">  2  9  1 -1</clus>
<clus scale="   42.434">  1 10  2 -1</clus>
<clus scale="   91.730">  7  8 -1 -1</clus>
<clus scale="  107.451">  5  6 -1 -1</clus>
<clus scale="  126.796">  1  7  2 -1</clus>
<clus scale="   42.434">  1  5  2 -1</clus>
</clustering>
</event>
<event>
10    2  0.3984345E-006  0.8909112E+02  0.7546771E-02  0.1306836E+00
         -4   -1    0    0    0  501 -0.00000000000E+00  0.00000000000E+00  0.14040821628E+03  0.14040821628E+03  0.00000000000E+00 0.  1.
         21   -1    0    0  503  502  0.00000000000E+00 -0.00000000000E+00 -0.26934483456E+03  0.26934483456E+03  0.00000000000E+00 0.  1.
         23    2    1    2    0    0 -0.23949797426E+02 -0.11436107230E+02  0.13187534934E+02  0.91101307649E+02  0.86146153904E+02 0.  0.
         23    2    1    2    0    0 -0.53627338955E+02 -0.13403984683E+02 -0.30569853084E+02  0.10912226203E+03  0.88980862347E+02 0.  0.
        -13    1    3    3    0    0  0.14620247153E+02  0.16256774502E+02 -0.22749625894E+02  0.31552810055E+02  0.00000000000E+00 0. -1.
         13    1    3    3    0    0 -0.38570044579E+02 -0.27692881732E+02  0.35937160828E+02  0.59548497595E+02  0.00000000000E+00 0.  1.
        -13    1    4    4    0    0 -0.14229594727E+02  0.37639205440E+02 -0.13106688730E+02  0.42319929604E+02  0.00000000000E+00 0.  1.
         13    1    4    4    0    0 -0.39397744228E+02 -0.51043190123E+02 -0.17463164354E+02  0.66802332425E+02  0.00000000000E+00 0. -1.
         21    1    1    2  503  501 -0.91579321644E+01  0.29455841547E+02  0.30272189871E+02  0.43219437784E+02  0.00000000000E+00 0.  1.
         -4    1    1    2    0  502  0.86735068546E+02 -0.46157496341E+01 -0.14182649001E+03  0.16631004338E+03  0.00000000000E+00 0.  1.
<scales pt_clust_5="13000.00000" pt_clust_6="13000.00000" pt_clust_7="13000.00000" pt_clust_8="13000.00000" pt_clust_9="30.84663" pt_clust_10="85.66113"></scales>
<clustering>
<clus scale="   30.847">  1  9  2 -1</clus>
<clus scale="   85.661">  2 10  1 -1</clus>
<clus scale="   86.146">  5  6 -1 -1</clus>
<clus scale="   86.260">  1  5  2 -1</clus>
<clus scale="   88.981">  7  8 -1 -1</clus>
<clus scale="   85.661">  2  5  1 -1</clus>
</clustering>
</event>
<event>
10    2  0.3984345E-006  0.1929231E+03  0.7546771E-02  0.1170068E+00
          2   -1    0    0  503    0 -0.00000000000E+00  0.00000000000E+00  0.19316024854E+04  0.19316024854E+04  0.00000000000E+00 0. -1.
         21   -1    0    0  501  502  0.00000000000E+00 -0.00000000000E+00 -0.98880830821E+02  0.98880830821E+02  0.00000000000E+00 0. -1.
         23    2    1    2    0    0  0.13201487084E+02 -0.12822813169E+03  0.35094405617E+03  0.38468736973E+03  0.90586471671E+02 0.  0.
         23    2    1    2    0    0  0.65651148581E+02  0.16866472832E+03  0.67250953102E+03  0.70219465543E+03  0.89724026351E+02 0.  0.
        -11    1    3    3    0    0  0.39341199073E+02 -0.49550903433E+02  0.22638523121E+03  0.23506019417E+03  0.00000000000E+00 0.  1.
         11    1    3    3    0    0 -0.26139711989E+02 -0.78677228253E+02  0.12455882496E+03  0.14962717555E+03  0.00000000000E+00 0. -1.
        -11    1    4    4    0    0  0.46630791888E+02  0.21590935558E+02  0.13019249240E+03  0.13996672579E+03  0.00000000000E+00 0. -1.
         11    1    4    4    0    0  0.19020356693E+02  0.14707379277E+03  0.54231703862E+03  0.56222792964E+03  0.00000000000E+00 0.  1.
         21    1    1    2  503  502 -0.54726623691E+02  0.12755761801E+03  0.75166716570E+03  0.76437522019E+03  0.00000000000E+00 0. -1.
          2    1    1    2  501    0 -0.24126011974E+02 -0.16799421464E+03  0.57600901693E+02  0.17922607088E+03  0.00000000000E+00 0. -1.
<scales pt_clust_5="13000.00000" pt_clust_6="13000.00000" pt_clust_7="13000.00000" pt_clust_8="13000.00000" pt_clust_9="138.80183" pt_clust_10="170.78915"></scales>
<clustering>
<clus scale="   89.724">  7  8 -1 -1</clus>
<clus scale="   90.586">  5  6 -1 -1</clus>
<clus scale="  138.802">  1  9  2 -1</clus>
<clus scale="  138.802">  1  5  2 -1</clus>
<clus scale="  170.789">  2 10  1 -1</clus>
<clus scale="  170.789">  2  5  1 -1</clus>
</clustering>
</event>
<event>
10    2  0.3984345E-006  0.1830671E+03  0.7546771E-02  0.1164944E+00
         21   -1    0    0  501  502  0.00000000000E+00  0.00000000000E+00  0.12795535389E+03  0.12795535389E+03  0.00000000000E+00 0.  1.
          1   -1    0    0  503    0 -0.00000000000E+00 -0.00000000000E+00 -0.78114041366E+03  0.78114041366E+03  0.00000000000E+00 0. -1.
         23    2    1    2    0    0 -0.13468730883E+02  0.15122569121E+03 -0.37235576622E+03  0.41227636149E+03  0.90952543723E+02 0.  0.
         23    2    1    2    0    0 -0.35184091644E+02 -0.22107092959E+03 -0.10561515934E+03  0.26392279753E+03  0.91599153701E+02 0.  0.
        -11    1    3    3    0    0  0.39616832872E+01  0.20477717341E+02 -0.42970547928E+01  0.21295457776E+02  0.00000000000E+00 0.  1.
         11    1    3    3    0    0 -0.17430414170E+02  0.13074797387E+03 -0.36805871143E+03  0.39098090371E+03  0.00000000000E+00 0. -1.
        -11    1    4    4    0    0 -0.17293436061E+01 -0.13937665905E+03 -0.10685896146E+03  0.17563508010E+03  0.00000000000E+00 0.  1.
         11    1    4    4    0    0 -0.33454748038E+02 -0.81694270540E+02  0.12438021206E+01  0.88287717430E+02  0.00000000000E+00 0. -1.
         21    1    1    2  503  502 -0.17250176180E+02 -0.15791473420E+02 -0.96275385984E+02  0.99075169227E+02  0.00000000000E+00 0. -1.
          1    1    1    2  501    0  0.65902998707E+02  0.85636711798E+02 -0.78938748225E+02  0.13382143930E+03  0.00000000000E+00 0. -1.
<scales pt_clust_5="13000.00000" pt_clust_6="13000.00000" pt_clust_7="13000.00000" pt_clust_8="13000.00000" pt_clust_9="23.38673" pt_clust_10="104.47599"></scales>
<clustering>
<clus scale="   23.387">  2  9  1 -1</clus>
<clus scale="   90.953">  5  6 -1 -1</clus>
<clus scale="   91.599">  7  8 -1 -1</clus>
<clus scale="  104.476">  1 10  2 -1</clus>
<clus scale="  182.744">  2  5  1 -1</clus>
<clus scale="  104.476">  1  5  2 -1</clus>
</clustering>
</event>
<event>
10    2  0.3984345E-006  0.3585659E+03  0.7546771E-02  0.1059570E+00
          4   -1    0    0  503    0 -0.00000000000E+00  0.00000000000E+00  0.42618598631E+03  0.42618598631E+03  0.00000000000E+00 0. -1.
         21   -1    0    0  501  502  0.00000000000E+00 -0.00000000000E+00 -0.65172959020E+03  0.65172959020E+03  0.00000000000E+00 0. -1.
         23    2    1    2    0    0 -0.11630241302E+03  0.32800829405E+03  0.15530933224E+03  0.39557175065E+03  0.10602041781E+03 0.  0.
         23    2    1    2    0    0  0.80228253579E+02 -0.35587442231E+03 -0.15333666545E+03  0.40603965640E+03  0.90955442206E+02 0.  0.
        -11    1    3    3    0    0 -0.11780173210E+03  0.19277795858E+03  0.11993553392E+03  0.25578334914E+03  0.00000000000E+00 0. -1.
         11    1    3    3    0    0  0.14993190828E+01  0.13523033548E+03  0.35373798319E+02  0.13978840152E+03  0.00000000000E+00 0.  1.
        -13    1    4    4    0    0  0.63686915837E+02 -0.32868284771E+03 -0.16355677551E+03  0.37261140138E+03  0.00000000000E+00 0. -1.
         13    1    4    4    0    0  0.16541337741E+02 -0.27191574604E+02  0.10220110056E+02  0.33428255014E+02  0.00000000000E+00 0.  1.
         21    1    1    2  503  502  0.27926168099E+02 -0.17447826316E+02  0.99631308796E+01  0.34402928434E+02  0.00000000000E+00 0. -1.
          4    1    1    2  501    0  0.81479913377E+01  0.45313954574E+02 -0.23747940156E+03  0.24190124102E+03  0.00000000000E+00 0. -1.
<scales pt_clust_5="13000.00000" pt_clust_6="13000.00000" pt_clust_7="13000.00000" pt_clust_8="13000.00000" pt_clust_9="32.92867" pt_clust_10="45.97405"></scales>
<clustering>
<clus scale="   32.929">  1  9  2 -1</clus>
<clus scale="   45.974">  2 10  1 -1</clus>
<clus scale="   90.955">  7  8 -1 -1</clus>
<clus scale="  106.020">  5  6 -1 -1</clus>
<clus scale="  354.404">  2  7  1 -1</clus>
<clus scale="   45.974">  2  5  1 -1</clus>
</clustering>
</event>
<event>
10    2  0.3984345E-006  0.1310466E+03  0.7546771E-02  0.1239798E+00
         21   -1    0    0  501  502  0.00000000000E+00  0.00000000000E+00  0.61701375172E+02  0.61701375172E+02  0.00000000000E+00 0.  1.
          1   -1    0    0  503    0 -0.00000000000E+00 -0.00000000000E+00 -0.59865550107E+03  0.59865550107E+03  0.00000000000E+00 0. -1.
         23    2    1    2    0    0  0.15506880128E+00 -0.31703457260E+02 -0.19144798331E+03  0.21404402345E+03  0.90318217498E+02 0.  0.
         23    2    1    2    0    0  0.30826580069E+02 -0.47559582226E+02 -0.24099464962E+03  0.26337600291E+03  0.89868269489E+02 0.  0.
        -11    1    4    4    0    0  0.44640083614E+02 -0.53972274829E+01 -0.19235498564E+03  0.19754064804E+03  0.00000000000E+00 0.  1.
         11    1    4    4    0    0 -0.13813503545E+02 -0.42162354743E+02 -0.48639663985E+02  0.65835354865E+02  0.00000000000E+00 0. -1.
        -13    1    3    3    0    0  0.37648360758E+02 -0.36959366424E+02 -0.14388589138E+03  0.15325320086E+03  0.00000000000E+00 0.  1.
         13    1    3    3    0    0 -0.37493291956E+02  0.52559091635E+01 -0.47562091933E+02  0.60790822596E+02  0.00000000000E+00 0. -1.
         21    1    1    2  503  502  0.11879565992E+02 -0.19287720773E+02 -0.64331742266E+02  0.68203470027E+02  0.00000000000E+00 0.  1.
          1    1    1    2  501    0 -0.42861214862E+02  0.98550760259E+02 -0.40179750697E+02  0.11473337986E+03  0.00000000000E+00 0. -1.
<scales pt_clust_5="13000.00000" pt_clust_6="13000.00000" pt_clust_7="13000.00000" pt_clust_8="13000.00000" pt_clust_9="22.65260" pt_clust_10="95.37774"></scales>
<clustering>
<clus scale="   22.653">  2  9  1 -1</clus>
<clus scale="   89.868">  5  6 -1 -1</clus>
<clus scale="   90.318">  7  8 -1 -1</clus>
<clus scale="   98.509">  2  7  1 -1</clus>
<clus scale="   95.378">  1 10  2 -1</clus>
<clus scale="   95.378">  1  5  2 -1</clus>
</clustering>
</event>
<event>
10    2  0.3984345E-006  0.1171778E+03  0.7546771E-02  0.1248623E+00
         -4   -1    0    0    0  501 -0.00000000000E+00  0.00000000000E+00  0.51820938552E+03  0.51820938552E+03  0.00000000000E+00 0.  1.
         21   -1    0    0  503  502  0.00000000000E+00 -0.00000000000E+00 -0.50658894649E+02  0.50658894649E+02  0.00000000000E+00 0.  1.
         23    2    1    2    0    0  0.83000196961E+02 -0.48577430752E+02  0.19928578360E+03  0.23892607842E+03  0.90122405263E+02 0.  0.
         23    2    1    2    0    0 -0.52485800066E+02 -0.12743880148E+01  0.93341439820E+02  0.14150052219E+03  0.92484539885E+02 0.  0.
        -13    1    3    3    0    0  0.38039055864E+02 -0.65600912734E+02  0.79568716351E+02  0.10991646894E+03  0.00000000000E+00 0. -1.
         13    1    3    3    0    0  0.44961141097E+02  0.17023481982E+02  0.11971706725E+03  0.12900960948E+03  0.00000000000E+00 0.  1.
        -13    1    4    4    0    0 -0.64909481223E+02 -0.23972722771E+02  0.92621852695E+02  0.11561461753E+03  0.00000000000E+00 0.  1.
         13    1    4    4    0    0  0.12423681158E+02  0.22698334757E+02  0.71958712483E+00  0.25885904656E+02  0.00000000000E+00 0. -1.
         21    1    1    2  503  501 -0.20083816464E+02  0.38891259800E+01  0.78416401929E+02  0.81040835855E+02  0.00000000000E+00 0.  1.
         -4    1    1    2    0  502 -0.10430580431E+02  0.45962692787E+02  0.96506865527E+02  0.10740084371E+03  0.00000000000E+00 0.  1.
<scales pt_clust_5="13000.00000" pt_clust_6="13000.00000" pt_clust_7="13000.00000" pt_clust_8="13000.00000" pt_clust_9="20.45691" pt_clust_10="49.23960"></scales>
<clustering>
<clus scale="   20.457">  1  9  2 -1</clus>
<clus scale="   49.240">  2 10  1 -1</clus>
<clus scale="   90.122">  5  6 -1 -1</clus>
<clus scale="   92.485">  7  8 -1 -1</clus>
<clus scale="  115.323">  1  5  2 -1</clus>
<clus scale="   49.240">  2  5  1 -1</clus>
</clustering>
</event>
<event>
10    2  0.3984345E-006  0.9786956E+02  0.7546771E-02  0.1285124E+00
         21   -1    0    0  501  502  0.00000000000E+00  0.00000000000E+00  0.23405598708E+03  0.23405598708E+03  0.00000000000E+00 0.  1.
          1   -1    0    0  503    0 -0.00000000000E+00 -0.00000000000E+00 -0.10778911905E+03  0.10778911905E+03  0.00000000000E+00 0. -1.
         23    2    1    2    0    0  0.28288054053E+02  0.38383714943E+02  0.50030047307E+02  0.11476272756E+03  0.91618526669E+02 0.  0.
         23    2    1    2    0    0  0.77316786917E+00 -0.22635495360E+02  0.50162549836E+02  0.10735533357E+03  0.92173330203E+02 0.  0.
        -11    1    4    4    0    0  0.22858650590E+02  0.18424448022E+02  0.53061574531E+02  0.60642467656E+02  0.00000000000E+00 0.  1.
         11    1    4    4    0    0 -0.22085482721E+02 -0.41059943382E+02 -0.28990246949E+01  0.46712865912E+02  0.00000000000E+00 0. -1.
        -11    1    3    3    0    0 -0.23465028115E+02 -0.64215098112E+01 -0.73791492838E+01  0.25422336180E+02  0.00000000000E+00 0. -1.
         11    1    3    3    0    0  0.51753082168E+02  0.44805224754E+02  0.57409196590E+02  0.89340391382E+02  0.00000000000E+00 0.  1.
         21    1    1    2  503  502 -0.65315963422E+01 -0.21931749908E+02 -0.41959324713E+02  0.47793810636E+02  0.00000000000E+00 0. -1.
          1    1    1    2  501    0 -0.22529625580E+02  0.61835303244E+01  0.68033595599E+02  0.71933234365E+02  0.00000000000E+00 0. -1.
<scales pt_clust_5="13000.00000" pt_clust_6="13000.00000" pt_clust_7="13000.00000" pt_clust_8="13000.00000" pt_clust_9="22.88369" pt_clust_10="23.38885"></scales>
<clustering>
<clus scale="   22.884">  2  9  1 -1</clus>
<clus scale="   23.389">  1 10  2 -1</clus>
<clus scale="   91.619">  7  8 -1 -1</clus>
<clus scale="   92.173">  5  6 -1 -1</clus>
<clus scale="   97.347">  2  7  1 -1</clus>
<clus scale="   23.389">  1  5  2 -1</clus>
</clustering>
</event>
<event>
10    2  0.3984345E-006  0.1057919E+03  0.7546771E-02  0.1269712E+00
          1   -1    0    0  503    0 -0.00000000000E+00  0.00000000000E+00  0.28140021648E+03  0.28140021648E+03  0.00000000000E+00 0. -1.
         21   -1    0    0  501  502  0.00000000000E+00 -0.00000000000E+00 -0.10911771971E+03  0.10911771971E+03  0.00000000000E+00 0. -1.
         23    2    1    2    0    0  0.30877022488E+02 -0.23864581294E+02  0.12860088858E+03  0.16276131841E+03  0.91815845406E+02 0.  0.
         23    2    1    2    0    0 -0.31277769784E+02  0.49548201107E+02 -0.20523095261E+02  0.10862490646E+03  0.89133886642E+02 0.  0.
        -11    1    3    3    0    0 -0.22738640870E+02  0.12804594449E+02  0.72076152867E+02  0.76654910083E+02  0.00000000000E+00 0.  1.
         11    1    3    3    0    0  0.53615663358E+02 -0.36669175743E+02  0.56524735713E+02  0.86106408324E+02  0.00000000000E+00 0. -1.
        -13    1    4    4    0    0 -0.19140066966E+02  0.75543391965E+02 -0.16454517082E+02  0.79648586713E+02  0.00000000000E+00 0. -1.
         13    1    4    4    0    0 -0.12137702818E+02 -0.25995190858E+02 -0.40685781793E+01  0.28976319743E+02  0.00000000000E+00 0.  1.
         21    1    1    2  503  502  0.20263889609E+02 -0.50590285337E+01  0.82532541408E+02  0.85134243305E+02  0.00000000000E+00 0. -1.
          1    1    1    2  501    0 -0.19863142313E+02 -0.20624591279E+02 -0.18327837954E+02  0.33997468024E+02  0.00000000000E+00 0. -1.
<scales pt_clust_5="13000.00000" pt_clust_6="13000.00000" pt_clust_7="13000.00000" pt_clust_8="13000.00000" pt_clust_9="20.88586" pt_clust_10="28.23041"></scales>
<clustering>
<clus scale="   20.886">  1  9  2 -1</clus>
<clus scale="   28.230">  2 10  1 -1</clus>
<clus scale="   89.134">  7  8 -1 -1</clus>
<clus scale="   91.816">  5  6 -1 -1</clus>
<clus scale="  103.473">  2  7  1 -1</clus>
<clus scale="   28.230">  2  5  1 -1</clus>
</clustering>
</event>
<event>
10    2  0.3984345E-006  0.1294787E+03  0.7546771E-02  0.1228365E+00
         21   -1    0    0  501  502  0.00000000000E+00  0.00000000000E+00  0.95019174632E+02  0.95019174632E+02  0.00000000000E+00 0. -1.
          1   -1    0    0  503    0 -0.00000000000E+00 -0.00000000000E+00 -0.63156782080E+03  0.63156782080E+03  0.00000000000E+00 0. -1.
         23    2    1    2    0    0  0.14571133098E+02  0.63553674953E+02 -0.10818514548E+03  0.15601771672E+03  0.91575732087E+02 0.  0.
         23    2    1    2    0    0  0.12317531280E+02 -0.11624975555E+03 -0.64773444527E+02  0.16172419927E+03  0.91068052974E+02 0.  0.
        -11    1    3    3    0    0  0.34539549637E+02  0.67271863300E+02 -0.11220833316E+03  0.13531147073E+03  0.00000000000E+00 0. -1.
         11    1    3    3    0    0 -0.19968416539E+02 -0.37181883468E+01  0.40231876805E+01  0.20706245985E+02  0.00000000000E+00 0.  1.
        -13    1    4    4    0    0 -0.11698081856E+02 -0.16265795324E+02 -0.54878482682E+02  0.58421477884E+02  0.00000000000E+00 0.  1.
         13    1    4    4    0    0  0.24015613136E+02 -0.99983960223E+02 -0.98949618443E+01  0.10330272139E+03  0.00000000000E+00 0. -1.
         21    1    1    2  503  502 -0.54515630962E+01  0.48839146987E+02 -0.37899430931E+03  0.38216706858E+03  0.00000000000E+00 0. -1.
          1    1    1    2  501    0 -0.21437101281E+02  0.38569336068E+01  0.15404253152E+02  0.26678010859E+02  0.00000000000E+00 0. -1.
<scales pt_clust_5="13000.00000" pt_clust_6="13000.00000" pt_clust_7="13000.00000" pt_clust_8="13000.00000" pt_clust_9="49.27769" pt_clust_10="21.78131"></scales>
<clustering>
<clus scale="   21.781">  1 10  2 -1</clus>
<clus scale="   49.278">  2  9  1 -1</clus>
<clus scale="   91.068">  7  8 -1 -1</clus>
<clus scale="   91.576">  5  6 -1 -1</clus>
<clus scale="  129.120">  1  7  2 -1</clus>
<clus scale="   21.781">  1  5  2 -1</clus>
</clustering>
</event>
<event>
10    2  0.3984345E-006  0.1101703E+03  0.7546771E-02  0.1261561E+00
         21   -1    0    0  501  502  0.00000000000E+00  0.00000000000E+00  0.61042781714E+02  0.61042781714E+02  0.00000000000E+00 0.  1.
          2   -1    0    0  503    0 -0.00000000000E+00 -0.00000000000E+00 -0.64156808199E+03  0.64156808199E+03  0.00000000000E+00 0. -1.
         23    2    1    2    0    0 -0.35241656588E+02 -0.21490463122E+02 -0.37657746837E+03  0.39041424172E+03  0.94386842786E+02 0.  0.
         23    2    1    2    0    0  0.46848709985E+02  0.24885815051E+02 -0.13823266080E+02  0.10633751225E+03  0.91117936807E+02 0.  0.
        -13    1    4    4    0    0  0.17554842764E+02  0.21960207287E+02  0.37680718800E+02  0.47013399982E+02  0.00000000000E+00 0.  1.
         13    1    4    4    0    0  0.29293867221E+02  0.29256077636E+01 -0.51503984880E+02  0.59324112266E+02  0.00000000000E+00 0. -1.
        -13    1    3    3    0    0  0.30409294108E+02 -0.18867600110E+02 -0.16646908380E+03  0.17027233293E+03  0.00000000000E+00 0.  1.
         13    1    3    3    0    0 -0.65650950695E+02 -0.26228630120E+01 -0.21010838457E+03  0.22014190879E+03  0.00000000000E+00 0. -1.
         21    1    1    2  503  502 -0.29733285347E+01 -0.29307888059E+02 -0.16840743179E+03  0.17096448773E+03  0.00000000000E+00 0. -1.
          2    1    1    2  501    0 -0.86337248625E+01  0.25912536131E+02 -0.21717134042E+02  0.34894622003E+02  0.00000000000E+00 0. -1.
<scales pt_clust_5="13000.00000" pt_clust_6="13000.00000" pt_clust_7="13000.00000" pt_clust_8="13000.00000" pt_clust_9="28.87469" pt_clust_10="27.31301"></scales>
<clustering>
<clus scale="   27.313">  1 10  2 -1</clus>
<clus scale="   28.875">  2  9  1 -1</clus>
<clus scale="   91.118">  5  6 -1 -1</clus>
<clus scale="   94.387">  7  8 -1 -1</clus>
<clus scale="  107.383">  1  5  2 -1</clus>
<clus scale="   27.313">  1  5  2 -1</clus>
</clustering>
</event>
<event>
10    2  0.3984345E-006  0.1554533E+03  0.7546771E-02  0.1194360E+00
         -3   -1    0    0    0  501 -0.00000000000E+00  0.00000000000E+00  0.47222635341E+03  0.47222635341E+03  0.00000000000E+00 0.  1.
         21   -1    0    0  503  502  0.00000000000E+00 -0.00000000000E+00 -0.11373684877E+03  0.11373684877E+03  0.00000000000E+00 0. -1.
         23    2    1    2    0    0 -0.15015175706E+02 -0.12142623165E+03  0.21655219318E+03  0.26571079206E+03  0.93475063043E+02 0.  0.
         23    2    1    2    0    0  0.27654662799E+02  0.11822118245E+03  0.31133998596E+02  0.15489887667E+03  0.91012679174E+02 0.  0.
        -13    1    4    4    0    0  0.40831451703E+02  0.11687507749E+02 -0.21098140487E+01  0.42523600517E+02  0.00000000000E+00 0. -1.
         13    1    4    4    0    0 -0.13176788904E+02  0.10653367470E+03  0.33243812644E+02  0.11237527615E+03  0.00000000000E+00 0.  1.
        -13    1    3    3    0    0 -0.32392538986E+01 -0.58202261060E+02  0.24597857458E+02  0.63269665321E+02  0.00000000000E+00 0. -1.
         13    1    3    3    0    0 -0.11775921808E+02 -0.63223970586E+02  0.19195433573E+03  0.20244112674E+03  0.00000000000E+00 0.  1.
         21    1    1    2  503  501  0.30508259631E+02 -0.91678657392E+01  0.11588158220E+03  0.12018046746E+03  0.00000000000E+00 0. -1.
         -3    1    1    2    0  502 -0.43147746724E+02  0.12372914934E+02 -0.50782693366E+01  0.45173065988E+02  0.00000000000E+00 0.  1.
<scales pt_clust_5="13000.00000" pt_clust_6="13000.00000" pt_clust_7="13000.00000" pt_clust_8="13000.00000" pt_clust_9="31.85598" pt_clust_10="43.08382"></scales>
<clustering>
<clus scale="   31.856">  1  9  2 -1</clus>
<clus scale="   43.084">  2 10  1 -1</clus>
<clus scale="   91.013">  5  6 -1 -1</clus>
<clus scale="   93.475">  7  8 -1 -1</clus>
<clus scale="  153.985">  2  5  1 -1</clus>
<clus scale="   43.084">  2  5  1 -1</clus>
</clustering>
</event>
<event>
10    2  0.3984345E-006  0.1393914E+03  0.7546771E-02  0.1231461E+00
         21   -1    0    0  501  502  0.00000000000E+00  0.00000000000E+00  0.18184470678E+03  0.18184470678E+03  0.00000000000E+00 0. -1.
          1   -1    0    0  503    0 -0.00000000000E+00 -0.00000000000E+00 -0.45798587791E+03  0.45798587791E+03  0.00000000000E+00 0. -1.
         23    2    1    2    0    0  0.10540943057E+02 -0.31010686364E+02 -0.14563532986E+03  0.17486675283E+03  0.91082148601E+02 0.  0.
         23    2    1    2    0    0 -0.45850314675E+02 -0.68013351746E+02 -0.32625231879E+02  0.14449157582E+03  0.11439118128E+03 0.  0.
        -13    1    4    4    0    0 -0.14721291198E+02  0.25435320905E+02 -0.35332740778E+02  0.45957312094E+02  0.00000000000E+00 0. -1.
         13    1    4    4    0    0 -0.31129023477E+02 -0.93448672651E+02  0.27075088984E+01  0.98534263722E+02  0.00000000000E+00 0.  1.
        -13    1    3    3    0    0 -0.18443405449E+02 -0.37379052974E+02 -0.13809459701E+03  0.14424794810E+03  0.00000000000E+00 0. -1.
         13    1    3    3    0    0  0.28984348505E+02  0.63683666108E+01 -0.75407328448E+01  0.30618804735E+02  0.00000000000E+00 0.  1.
         21    1    1    2  503  502  0.15096263006E+02  0.95944630855E+02 -0.19680000300E+03  0.21946186577E+03  0.00000000000E+00 0. -1.
          1    1    1    2  501    0  0.20213108613E+02  0.30794072549E+01  0.98919393616E+02  0.10101039027E+03  0.00000000000E+00 0. -1.
<scales pt_clust_5="13000.00000" pt_clust_6="13000.00000" pt_clust_7="13000.00000" pt_clust_8="13000.00000" pt_clust_9="79.65311" pt_clust_10="20.44633"></scales>
<clustering>
<clus scale="   20.446">  1 10  2 -1</clus>
<clus scale="   91.082">  7  8 -1 -1</clus>
<clus scale="   97.077">  2  7  1 -1</clus>
<clus scale="   79.653">  2  9  1 -1</clus>
<clus scale="  114.391">  5  6 -1 -1</clus>
<clus scale="   20.446">  1  5  2 -1</clus>
</clustering>
</event>
<event>
10    2  0.3984345E-006  0.9906483E+02  0.7546771E-02  0.1282591E+00
         21   -1    0    0  501  502  0.00000000000E+00  0.00000000000E+00  0.12581730772E+03  0.12581730772E+03  0.00000000000E+00 0. -1.
          2   -1    0    0  503    0 -0.00000000000E+00 -0.00000000000E+00 -0.48894172168E+03  0.48894172168E+03  0.00000000000E+00 0. -1.
         23    2    1    2    0    0 -0.26853785393E+02 -0.28365628599E+02 -0.24142330049E+03  0.26084895368E+03  0.90726137041E+02 0.  0.
         23    2    1    2    0    0  0.81625856608E+02 -0.83801434489E+01 -0.10667573099E+03  0.16266805385E+03  0.91368358253E+02 0.  0.
        -13    1    3    3    0    0 -0.28801935326E+01 -0.55226012988E+02 -0.19131728999E+03  0.19914947521E+03  0.00000000000E+00 0. -1.
         13    1    3    3    0    0 -0.23973591860E+02  0.26860384389E+02 -0.50106010498E+02  0.61699478476E+02  0.00000000000E+00 0.  1.
        -13    1    4    4    0    0  0.15861329804E+02  0.24637797088E+02  0.41928682556E+01  0.29600388050E+02  0.00000000000E+00 0.  1.
         13    1    4    4    0    0  0.65764526804E+02 -0.33017940537E+02 -0.11086859924E+03  0.13306766580E+03  0.00000000000E+00 0. -1.
         21    1    1    2  503  502  0.30174599512E+02 -0.11169316490E+02 -0.71596553072E+02  0.78494117603E+02  0.00000000000E+00 0. -1.
          2    1    1    2  501    0 -0.84946670727E+02  0.47915088538E+02  0.56571170586E+02  0.11274790428E+03  0.00000000000E+00 0. -1.
<scales pt_clust_5="13000.00000" pt_clust_6="13000.00000" pt_clust_7="13000.00000" pt_clust_8="13000.00000" pt_clust_9="32.17546" pt_clust_10="95.37308"></scales>
<clustering>
<clus scale="   32.175">  2  9  1 -1</clus>
<clus scale="   90.726">  5  6 -1 -1</clus>
<clus scale="   91.368">  7  8 -1 -1</clus>
<clus scale="   95.373">  1 10  2 -1</clus>
<clus scale="   98.473">  2  5  1 -1</clus>
<clus scale="   95.373">  1  5  2 -1</clus>
</clustering>
</event>
<event>
10    2  0.3984345E-006  0.1271922E+03  0.7546771E-02  0.1231842E+00
         21   -1    0    0  503  502  0.00000000000E+00  0.00000000000E+00  0.33664162109E+03  0.33664162109E+03  0.00000000000E+00 0. -1.
         -1   -1    0    0    0  501 -0.00000000000E+00 -0.00000000000E+00 -0.14649678109E+03  0.14649678109E+03  0.00000000000E+00 0.  1.
         23    2    1    2    0    0 -0.42806033483E+02  0.84076510589E+02 -0.57954269883E+02  0.14308874078E+03  0.90633736575E+02 0.  0.
         23    2    1    2    0    0  0.25971789851E+02 -0.70667262459E+02  0.68602231300E+02  0.13672890441E+03  0.91214753793E+02 0.  0.
        -13    1    3    3    0    0  0.10627340693E+02  0.75900107789E+02 -0.30820397044E+02  0.82605469593E+02  0.00000000000E+00 0.  1.
         13    1    3    3    0    0 -0.53433374175E+02  0.81764028000E+01 -0.27133872839E+02  0.60483271189E+02  0.00000000000E+00 0. -1.
        -13    1    4    4    0    0  0.39472462286E+02 -0.74557638154E+01 -0.29816279760E+01  0.40280935917E+02  0.00000000000E+00 0.  1.
         13    1    4    4    0    0 -0.13500672435E+02 -0.63211498643E+02  0.71583859276E+02  0.96447968490E+02  0.00000000000E+00 0. -1.
         21    1    1    2  503  501 -0.22592680901E+02 -0.24360427064E+02  0.20269032845E+02  0.38919061262E+02  0.00000000000E+00 0.  1.
         -1    1    1    2    0  502  0.39426924533E+02  0.10951178934E+02  0.15922784575E+03  0.16440169573E+03  0.00000000000E+00 0.  1.
<scales pt_clust_5="13000.00000" pt_clust_6="13000.00000" pt_clust_7="13000.00000" pt_clust_8="13000.00000" pt_clust_9="33.22438" pt_clust_10="27.58514"></scales>
<clustering>
<clus scale="   33.224">  1  9  2 -1</clus>
<clus scale="   27.585">  1 10  2 -1</clus>
<clus scale="   90.634">  5  6 -1 -1</clus>
<clus scale="   91.215">  7  8 -1 -1</clus>
<clus scale="  126.776">  2  5  1 -1</clus>
<clus scale="   33.224">  1  5  2 -1</clus>
</clustering>
</event>
<event>
10    2  0.3984345E-006  0.1311125E+03  0.7546771E-02  0.1225890E+00
          1   -1    0    0  503    0 -0.00000000000E+00  0.00000000000E+00  0.20396308247E+03  0.20396308247E+03  0.00000000000E+00 0. -1.
         21   -1    0    0  501  502  0.00000000000E+00 -0.00000000000E+00 -0.31739179468E+03  0.31739179468E+03  0.00000000000E+00 0. -1.
         23    2    1    2    0    0 -0.74652031447E+02 -0.71579057846E+02  0.53505061212E+02  0.14612725194E+03  0.88283038362E+02 0.  0.
         23    2    1    2    0    0  0.66791865774E+02  0.86342498031E+02 -0.33175204537E+02  0.14407180616E+03  0.87976763038E+02 0.  0.
        -13    1    3    3    0    0 -0.42243787794E+02  0.10652443550E+02  0.15347166119E+01  0.43593204927E+02  0.00000000000E+00 0.  1.
         13    1    3    3    0    0 -0.32408243654E+02 -0.82231501397E+02  0.51970344600E+02  0.10253404701E+03  0.00000000000E+00 0. -1.
        -13    1    4    4    0    0  0.12971244795E+02  0.27938567859E+02 -0.53820165556E+02  0.62011506884E+02  0.00000000000E+00 0.  1.
         13    1    4    4    0    0  0.53820620980E+02  0.58403930171E+02  0.20644961018E+02  0.82060299277E+02  0.00000000000E+00 0. -1.
         21    1    1    2  503  502  0.29289628762E+02  0.57016363148E+01  0.42773965251E+02  0.52153649086E+02  0.00000000000E+00 0. -1.
          1    1    1    2  501    0 -0.21429463089E+02 -0.20465076499E+02 -0.17653253413E+03  0.17900216997E+03  0.00000000000E+00 0. -1.
<scales pt_clust_5="13000.00000" pt_clust_6="13000.00000" pt_clust_7="13000.00000" pt_clust_8="13000.00000" pt_clust_9="29.00652" pt_clust_10="29.63176"></scales>
<clustering>
<clus scale="   29.632">  2 10  1 -1</clus>
<clus scale="   29.007">  1  9  2 -1</clus>
<clus scale="   87.977">  7  8 -1 -1</clus>
<clus scale="   88.283">  5  6 -1 -1</clus>
<clus scale="  130.906">  2  7  1 -1</clus>
<clus scale="   29.632">  2  5  1 -1</clus>
</clustering>
</event>
<event>
10    2  0.3984345E-006  0.1240508E+03  0.7546771E-02  0.1236758E+00
         21   -1    0    0  503  502  0.00000000000E+00  0.00000000000E+00  0.80126750012E+02  0.80126750012E+02  0.00000000000E+00 0. -1.
         -1   -1    0    0    0  501 -0.00000000000E+00 -0.00000000000E+00 -0.89374636403E+03  0.89374636403E+03  0.00000000000E+00 0.  1.
         23    2    1    2    0    0  0.86834722637E+02  0.10089112266E+03 -0.17822706595E+03  0.24055780013E+03  0.91563532475E+02 0.  0.
         23    2    1    2    0    0  0.78517339519E+02 -0.70538977481E+02 -0.14968266258E+03  0.20446444873E+03  0.90885044810E+02 0.  0.
        -13    1    4    4    0    0  0.95520418514E+00 -0.32287830775E+02 -0.82964569933E+00  0.32312609662E+02  0.00000000000E+00 0. -1.
         13    1    4    4    0    0  0.77562135334E+02 -0.38251146706E+02 -0.14885301688E+03  0.17215183907E+03  0.00000000000E+00 0.  1.
        -13    1    3    3    0    0  0.68197514737E+02  0.10640115120E+02 -0.84618653741E+02  0.10919903675E+03  0.00000000000E+00 0.  1.
         13    1    3    3    0    0  0.18637207900E+02  0.90251007544E+02 -0.93608412209E+02  0.13135876338E+03  0.00000000000E+00 0. -1.
         21    1    1    2  503  501 -0.74620250955E+02 -0.58291135259E+02 -0.35430319562E+03  0.36673804374E+03  0.00000000000E+00 0. -1.
         -1    1    1    2    0  502 -0.90731811201E+02  0.27938990077E+02 -0.13140668988E+03  0.16211282144E+03  0.00000000000E+00 0.  1.
<scales pt_clust_5="13000.00000" pt_clust_6="13000.00000" pt_clust_7="13000.00000" pt_clust_8="13000.00000" pt_clust_9="94.68917" pt_clust_10="111.90360"></scales>
<clustering>
<clus scale="   90.885">  5  6 -1 -1</clus>
<clus scale="   91.564">  7  8 -1 -1</clus>
<clus scale="   94.689">  2  9  1 -1</clus>
<clus scale="  111.904">  1 10  2 -1</clus>
<clus scale="  123.551">  1  5  2 -1</clus>
<clus scale="  111.904">  1  5  2 -1</clus>
</clustering>
</event>
<event>
10    2  0.3984345E-006  0.1434887E+03  0.7546771E-02  0.1211208E+00
         21   -1    0    0  501  502  0.00000000000E+00  0.00000000000E+00  0.24763265785E+03  0.24763265785E+03  0.00000000000E+00 0. -1.
          1   -1    0    0  503    0 -0.00000000000E+00 -0.00000000000E+00 -0.16896408526E+03  0.16896408526E+03  0.00000000000E+00 0. -1.
         23    2    1    2    0    0  0.72947808757E+02 -0.29325578178E+02  0.33303566770E+02  0.12465956768E+03  0.90826801756E+02 0.  0.
         23    2    1    2    0    0 -0.13333057041E+03 -0.13443628689E+02  0.83826229693E+02  0.18792955433E+03  0.10165091464E+03 0.  0.
        -11    1    3    3    0    0  0.46001143567E+02 -0.57813883580E+02  0.10562711588E+01  0.73889553070E+02  0.00000000000E+00 0.  1.
         11    1    3    3    0    0  0.26946665190E+02  0.28488305402E+02  0.32247295611E+02  0.50770014613E+02  0.00000000000E+00 0. -1.
        -13    1    4    4    0    0 -0.11934139250E+03  0.22316239251E+02  0.87054972376E+02  0.14939528344E+03  0.00000000000E+00 0. -1.
         13    1    4    4    0    0 -0.13989177913E+02 -0.35759867939E+02 -0.32287426832E+01  0.38534270890E+02  0.00000000000E+00 0.  1.
         21    1    1    2  503  502  0.43284261777E+02  0.58922530217E+02 -0.28928329028E+02  0.78627222418E+02  0.00000000000E+00 0. -1.
          1    1    1    2  501    0  0.17098499880E+02 -0.16153323351E+02 -0.95328948402E+01  0.25380398686E+02  0.00000000000E+00 0. -1.
<scales pt_clust_5="13000.00000" pt_clust_6="13000.00000" pt_clust_7="13000.00000" pt_clust_8="13000.00000" pt_clust_9="72.85222" pt_clust_10="23.52210"></scales>
<clustering>
<clus scale="   23.522">  1 10  2 -1</clus>
<clus scale="   72.852">  2  9  1 -1</clus>
<clus scale="   90.827">  5  6 -1 -1</clus>
<clus scale="  101.651">  7  8 -1 -1</clus>
<clus scale="  136.035">  2  5  1 -1</clus>
<clus scale="   23.522">  1  5  2 -1</clus>
</clustering>
</event>
<event>
10    2  0.3984345E-006  0.9138563E+02  0.7546771E-02  0.1299809E+00
          2   -1    0    0  503    0 -0.00000000000E+00  0.00000000000E+00  0.32728732396E+03  0.32728732396E+03  0.00000000000E+00 0. -1.
         21   -1    0    0  501  502  0.00000000000E+00 -0.00000000000E+00 -0.14832540854E+03  0.14832540854E+03  0.00000000000E+00 0. -1.
         23    2    1    2    0    0 -0.61794631782E+01  0.26481384394E+02  0.54674705272E+02  0.10944324282E+03  0.90824283748E+02 0.  0.
         23    2    1    2    0    0  0.12642544240E+02  0.16137939304E+02  0.14576430376E+02  0.94694730977E+02  0.91292676280E+02 0.  0.
        -11    1    3    3    0    0 -0.46132688268E+02  0.28977741273E+02  0.27206866920E+02  0.60894564813E+02  0.00000000000E+00 0.  1.
         11    1    3    3    0    0  0.39953225090E+02 -0.24963568792E+01  0.27467838352E+02  0.48548678010E+02  0.00000000000E+00 0. -1.
        -13    1    4    4    0    0  0.39161207774E+02 -0.22527172942E+02  0.15607232058E+02  0.47798110921E+02  0.00000000000E+00 0. -1.
         13    1    4    4    0    0 -0.26518663534E+02  0.38665112245E+02 -0.10308016812E+01  0.46896620056E+02  0.00000000000E+00 0.  1.
         21    1    1    2  503  502  0.27763252604E+02 -0.37375823768E+02  0.18384708450E+03  0.18965099756E+03  0.00000000000E+00 0. -1.
          2    1    1    2  501    0 -0.34226333665E+02 -0.52434999298E+01 -0.74136304725E+02  0.81823761133E+02  0.00000000000E+00 0. -1.
<scales pt_clust_5="13000.00000" pt_clust_6="13000.00000" pt_clust_7="13000.00000" pt_clust_8="13000.00000" pt_clust_9="45.90817" pt_clust_10="34.62566"></scales>
<clustering>
<clus scale="   34.626">  2 10  1 -1</clus>
<clus scale="   45.908">  1  9  2 -1</clus>
<clus scale="   90.824">  5  6 -1 -1</clus>
<clus scale="   90.918">  1  5  2 -1</clus>
<clus scale="   91.293">  7  8 -1 -1</clus>
<clus scale="   34.626">  2  5  1 -1</clus>
</clustering>
</event>
<event>
10    2  0.3984345E-006  0.1078006E+03  0.7546771E-02  0.1265332E+00
          1   -1    0    0  503    0 -0.00000000000E+00  0.00000000000E+00  0.61291396532E+03  0.61291396532E+03  0.00000000000E+00 0. -1.
         21   -1    0    0  501  502  0.00000000000E+00 -0.00000000000E+00 -0.61411655156E+02  0.61411655156E+02  0.00000000000E+00 0.  1.
         23    2    1    2    0    0 -0.11307895233E+02  0.32260724212E+02  0.43189543609E+03  0.44244867007E+03  0.89769343944E+02 0.  0.
         23    2    1    2    0    0  0.15883281177E+02 -0.38341918545E+02  0.24697656424E+02  0.10331830857E+03  0.91336286951E+02 0.  0.
        -11    1    3    3    0    0  0.30639262956E+02 -0.89547067506E+01  0.89096973205E+02  0.94642600566E+02  0.00000000000E+00 0.  1.
         11    1    3    3    0    0 -0.41947158189E+02  0.41215430963E+02  0.34279846288E+03  0.34780606950E+03  0.00000000000E+00 0. -1.
        -13    1    4    4    0    0  0.52019879555E+02 -0.33804905025E+02  0.58612442538E+01  0.62315276272E+02  0.00000000000E+00 0.  1.
         13    1    4    4    0    0 -0.36136598378E+02 -0.45370135193E+01  0.18836412170E+02  0.41003032296E+02  0.00000000000E+00 0. -1.
         21    1    1    2  503  502  0.10346714067E+02  0.37525762029E+02  0.83166726549E+02  0.91825604886E+02  0.00000000000E+00 0.  1.
          1    1    1    2  501    0 -0.14922100010E+02 -0.31444567697E+02  0.11742491102E+02  0.36733036951E+02  0.00000000000E+00 0. -1.
<scales pt_clust_5="13000.00000" pt_clust_6="13000.00000" pt_clust_7="13000.00000" pt_clust_8="13000.00000" pt_clust_9="35.89602" pt_clust_10="34.80560"></scales>
<clustering>
<clus scale="   34.806">  2 10  1 -1</clus>
<clus scale="   35.896">  1  9  2 -1</clus>
<clus scale="   89.769">  5  6 -1 -1</clus>
<clus scale="   91.336">  7  8 -1 -1</clus>
<clus scale="  106.476">  1  5  2 -1</clus>
<clus scale="   34.806">  2  5  1 -1</clus>
</clustering>
</event>
<event>
10    2  0.3984345E-006  0.1170900E+03  0.7546771E-02  0.1250069E+00
          1   -1    0    0  503    0 -0.00000000000E+00  0.00000000000E+00  0.28884061678E+03  0.28884061678E+03  0.00000000000E+00 0. -1.
         21   -1    0    0  501  502  0.00000000000E+00 -0.00000000000E+00 -0.30589186035E+03  0.30589186035E+03  0.00000000000E+00 0.  1.
         23    2    1    2    0    0  0.72068450945E+02  0.30164394335E+02  0.23867128922E+03  0.26471740420E+03  0.83711214770E+02 0.  0.
         23    2    1    2    0    0 -0.57853522710E+02  0.82945446725E+01 -0.64538299211E+02  0.12526007551E+03  0.90050346415E+02 0.  0.
        -11    1    4    4    0    0 -0.52362010288E+02 -0.34753681389E+02 -0.29215695233E+02  0.69304800263E+02  0.00000000000E+00 0.  1.
         11    1    4    4    0    0 -0.54915124219E+01  0.43048226062E+02 -0.35322603979E+02  0.55955275244E+02  0.00000000000E+00 0. -1.
        -13    1    3    3    0    0 -0.76089691481E+01  0.19635897302E+02  0.12040549582E+02  0.24257776250E+02  0.00000000000E+00 0.  1.
         13    1    3    3    0    0  0.79677420093E+02  0.10528497033E+02  0.22663073964E+03  0.24045962795E+03  0.00000000000E+00 0. -1.
         21    1    1    2  503  502 -0.20030668721E+02 -0.16296248236E+02 -0.21701883326E+02  0.33730803961E+02  0.00000000000E+00 0. -1.
          1    1    1    2  501    0  0.58157404865E+01 -0.22162690771E+02 -0.16948235026E+03  0.17102419346E+03  0.00000000000E+00 0. -1.
<scales pt_clust_5="13000.00000" pt_clust_6="13000.00000" pt_clust_7="13000.00000" pt_clust_8="13000.00000" pt_clust_9="28.08399" pt_clust_10="22.91305"></scales>
<clustering>
<clus scale="   22.913">  2 10  1 -1</clus>
<clus scale="   28.084">  2  9  1 -1</clus>
<clus scale="   83.711">  7  8 -1 -1</clus>
<clus scale="   90.050">  5  6 -1 -1</clus>
<clus scale="  112.288">  1  7  2 -1</clus>
<clus scale="   22.913">  2  5  1 -1</clus>
</clustering>
</event>
<event>
10    2  0.3984345E-006  0.1070516E+03  0.7546771E-02  0.1267437E+00
         21   -1    0    0  503  502  0.00000000000E+00  0.00000000000E+00  0.46591447814E+02  0.46591447814E+02  0.00000000000E+00 0. -1.
         -1   -1    0    0    0  501 -0.00000000000E+00 -0.00000000000E+00 -0.43030357629E+03  0.43030357629E+03  0.00000000000E+00 0.  1.
         23    2    1    2    0    0 -0.47663958559E+02  0.47538537745E+02 -0.14186025869E+03  0.18175013541E+03  0.91526024765E+02 0.  0.
         23    2    1    2    0    0  0.45892261090E+02 -0.10934755270E+02 -0.98416699197E+02  0.14042925796E+03  0.88367761713E+02 0.  0.
        -11    1    3    3    0    0 -0.36837726178E+01  0.63106611860E+02 -0.10383016588E+03  0.12155952446E+03  0.00000000000E+00 0.  1.
         11    1    3    3    0    0 -0.43980185941E+02 -0.15568074115E+02 -0.38030092815E+02  0.60190610950E+02  0.00000000000E+00 0. -1.
        -13    1    4    4    0    0  0.53931491963E+02  0.12238479450E+02 -0.10161926339E+03  0.11569295958E+03  0.00000000000E+00 0.  1.
         13    1    4    4    0    0 -0.80392308734E+01 -0.23173234721E+02  0.32025641879E+01  0.24736298386E+02  0.00000000000E+00 0. -1.
         21    1    1    2  503  501 -0.15791093039E+02 -0.17655802729E+02 -0.10967689332E+03  0.11220564566E+03  0.00000000000E+00 0.  1.
         -1    1    1    2    0  502  0.17562790508E+02 -0.18947979745E+02 -0.33758277273E+02  0.42509985078E+02  0.00000000000E+00 0.  1.
<scales pt_clust_5="13000.00000" pt_clust_6="13000.00000" pt_clust_7="13000.00000" pt_clust_8="13000.00000" pt_clust_9="23.68725" pt_clust_10="26.25147"></scales>
<clustering>
<clus scale="   23.687">  2  9  1 -1</clus>
<clus scale="   26.251">  1 10  2 -1</clus>
<clus scale="   88.368">  7  8 -1 -1</clus>
<clus scale="   91.526">  5  6 -1 -1</clus>
<clus scale="  104.364">  1  7  2 -1</clus>
<clus scale="   26.251">  1  5  2 -1</clus>
</clustering>
</event>
<event>
10    2  0.3984345E-006  0.8986430E+02  0.7546771E-02  0.1303762E+00
         -1   -1    0    0    0  501 -0.00000000000E+00  0.00000000000E+00  0.28260081996E+03  0.28260081996E+03  0.00000000000E+00 0.  1.
         21   -1    0    0  503  502  0.00000000000E+00 -0.00000000000E+00 -0.16865176760E+03  0.16865176760E+03  0.00000000000E+00 0.  1.
         23    2    1    2    0    0 -0.42147723780E+01  0.10593565511E+02  0.75985150737E+02  0.11714298586E+03  0.88423684996E+02 0.  0.
         23    2    1    2    0    0  0.11945099330E+02 -0.29269460287E+02 -0.23950780322E+02  0.96028292962E+02  0.87455168331E+02 0.  0.
        -13    1    3    3    0    0  0.18924346304E+02  0.44033079002E+02  0.47620854086E+02  0.67563219826E+02  0.00000000000E+00 0. -1.
         13    1    3    3    0    0 -0.23139118682E+02 -0.33439513491E+02  0.28364296651E+02  0.49579766038E+02  0.00000000000E+00 0.  1.
        -13    1    4    4    0    0  0.30090101284E+02 -0.52820600755E+02 -0.26236493233E+02  0.66210147534E+02  0.00000000000E+00 0.  1.
         13    1    4    4    0    0 -0.18145001954E+02  0.23551140468E+02  0.22857129104E+01  0.29818145428E+02  0.00000000000E+00 0. -1.
         21    1    1    2  503  501 -0.17136958857E+02 -0.17142734905E+02  0.14505487620E+03  0.14706619539E+03  0.00000000000E+00 0.  1.
         -1    1    1    2    0  502  0.94066319054E+01  0.35818629681E+02 -0.83140194253E+02  0.91015113342E+02  0.00000000000E+00 0.  1.
<scales pt_clust_5="13000.00000" pt_clust_6="13000.00000" pt_clust_7="13000.00000" pt_clust_8="13000.00000" pt_clust_9="24.23940" pt_clust_10="36.43126"></scales>
<clustering>
<clus scale="   24.239">  1  9  2 -1</clus>
<clus scale="   36.431">  2 10  1 -1</clus>
<clus scale="   87.455">  7  8 -1 -1</clus>
<clus scale="   88.424">  5  6 -1 -1</clus>
<clus scale="   88.911">  2  7  1 -1</clus>
<clus scale="   36.431">  2  5  1 -1</clus>
</clustering>
</event>
<event>
10    2  0.3984345E-006  0.1036023E+03  0.7546771E-02  0.1273434E+00
         -1   -1    0    0    0  501 -0.00000000000E+00  0.00000000000E+00  0.34919031515E+03  0.34919031515E+03  0.00000000000E+00 0.  1.
         21   -1    0    0  503  502  0.00000000000E+00 -0.00000000000E+00 -0.93003537621E+02  0.93003537621E+02  0.00000000000E+00 0. -1.
         23    2    1    2    0    0  0.19905283041E+02  0.89296680317E+02  0.16166684859E+03  0.20672576534E+03  0.90715239717E+02 0.  0.
         23    2    1    2    0    0 -0.21250470546E+02 -0.34068716479E+02  0.51135390795E+01  0.98227891082E+02  0.89500337226E+02 0.  0.
        -11    1    4    4    0    0 -0.45990025582E+02 -0.18958942871E+02  0.31623278066E+02  0.58945361848E+02  0.00000000000E+00 0.  1.
         11    1    4    4    0    0  0.24739555035E+02 -0.15109773608E+02 -0.26509738986E+02  0.39282529233E+02  0.00000000000E+00 0. -1.
        -11    1    3    3    0    0 -0.67841225442E+01  0.84152596704E+02  0.15820926522E+03  0.17932611481E+03  0.00000000000E+00 0.  1.
         11    1    3    3    0    0  0.26689405585E+02  0.51440836129E+01  0.34575833647E+01  0.27399650535E+02  0.00000000000E+00 0. -1.
         21    1    1    2  503  501 -0.23361980756E+02 -0.51082390114E+02  0.96097031495E+02  0.11130962306E+03  0.00000000000E+00 0.  1.
         -1    1    1    2    0  502  0.24707168261E+02 -0.41455737236E+01 -0.66906416343E+01  0.25930573276E+02  0.00000000000E+00 0.  1.
<scales pt_clust_5="13000.00000" pt_clust_6="13000.00000" pt_clust_7="13000.00000" pt_clust_8="13000.00000" pt_clust_9="55.57768" pt_clust_10="25.05254"></scales>
<clustering>
<clus scale="   25.053">  2 10  1 -1</clus>
<clus scale="   55.578">  1  9  2 -1</clus>
<clus scale="   89.500">  5  6 -1 -1</clus>
<clus scale="   90.715">  7  8 -1 -1</clus>
<clus scale="  102.540">  2  5  1 -1</clus>
<clus scale="   25.053">  2  5  1 -1</clus>
</clustering>
</event>
<event>
10    2  0.3984345E-006  0.1448279E+03  0.7546771E-02  0.1208508E+00
         21   -1    0    0  501  502  0.00000000000E+00  0.00000000000E+00  0.23467446525E+03  0.23467446525E+03  0.00000000000E+00 0. -1.
          1   -1    0    0  503    0 -0.00000000000E+00 -0.00000000000E+00 -0.79997656200E+03  0.79997656200E+03  0.00000000000E+00 0. -1.
         23    2    1    2    0    0 -0.10539285091E+03  0.25514988865E+02 -0.35820728180E+03  0.38398278727E+03  0.85858351396E+02 0.  0.
         23    2    1    2    0    0  0.87749741682E+02 -0.79921828378E+02 -0.27761195346E+03  0.31600685026E+03  0.93297464524E+02 0.  0.
        -11    1    4    4    0    0  0.72012966655E+02 -0.71489929072E+01 -0.10015858372E+03  0.12356665149E+03  0.00000000000E+00 0.  1.
         11    1    4    4    0    0  0.15736775027E+02 -0.72772835471E+02 -0.17745336974E+03  0.19244019877E+03  0.00000000000E+00 0. -1.
        -13    1    3    3    0    0 -0.72367714267E+02 -0.17082651978E+02 -0.27474444922E+03  0.28462855697E+03  0.00000000000E+00 0. -1.
         13    1    3    3    0    0 -0.33025136647E+02  0.42597640843E+02 -0.83462832586E+02  0.99354230303E+02  0.00000000000E+00 0.  1.
         21    1    1    2  503  502  0.29758255763E+01  0.30444158796E+02 -0.12930493231E+03  0.13287387953E+03  0.00000000000E+00 0. -1.
          1    1    1    2  501    0  0.14667283656E+02  0.23962680717E+02  0.19982207083E+03  0.20178751019E+03  0.00000000000E+00 0. -1.
<scales pt_clust_5="13000.00000" pt_clust_6="13000.00000" pt_clust_7="13000.00000" pt_clust_8="13000.00000" pt_clust_9="31.92749" pt_clust_10="28.09518"></scales>
<clustering>
<clus scale="   28.095">  1 10  2 -1</clus>
<clus scale="   31.927">  2  9  1 -1</clus>
<clus scale="   85.858">  7  8 -1 -1</clus>
<clus scale="   93.297">  5  6 -1 -1</clus>
<clus scale="  140.151">  2  7  1 -1</clus>
<clus scale="   28.095">  1  5  2 -1</clus>
</clustering>
</event>
<event>
10    2  0.3984345E-006  0.1808186E+03  0.7546771E-02  0.1167382E+00
         -2   -1    0    0    0  501 -0.00000000000E+00  0.00000000000E+00  0.38190041370E+03  0.38190041370E+03  0.00000000000E+00 0.  1.
         21   -1    0    0  503  502  0.00000000000E+00 -0.00000000000E+00 -0.13480377378E+03  0.13480377378E+03  0.00000000000E+00 0.  1.
         23    2    1    2    0    0 -0.15073695133E+03  0.40817333251E+02  0.14552049750E+03  0.23346681045E+03  0.94566660073E+02 0.  0.
         23    2    1    2    0    0  0.13451218061E+03 -0.46151362963E+02  0.35599815854E+02  0.17286801313E+03  0.91610741938E+02 0.  0.
        -11    1    3    3    0    0 -0.45568178470E+02 -0.60447035850E+01 -0.23859746496E+01  0.46029232077E+02  0.00000000000E+00 0. -1.
         11    1    3    3    0    0 -0.10516877286E+03  0.46862036836E+02  0.14790647215E+03  0.18743757837E+03  0.00000000000E+00 0.  1.
        -13    1    4    4    0    0  0.53843459303E+02  0.26325650450E+02  0.20676038361E+02  0.63400761381E+02  0.00000000000E+00 0. -1.
         13    1    4    4    0    0  0.80668721307E+02 -0.72477013413E+02  0.14923777493E+02  0.10946725175E+03  0.00000000000E+00 0.  1.
         21    1    1    2  503  501 -0.30935040581E+02 -0.16904566694E+02  0.35231002359E+02  0.49839388420E+02  0.00000000000E+00 0.  1.
         -2    1    1    2    0  502  0.47159811301E+02  0.22238596406E+02  0.30745324208E+02  0.60529975489E+02  0.00000000000E+00 0.  1.
<scales pt_clust_5="13000.00000" pt_clust_6="13000.00000" pt_clust_7="13000.00000" pt_clust_8="13000.00000" pt_clust_9="35.25253" pt_clust_10="47.40873"></scales>
<clustering>
<clus scale="   35.253">  1  9  2 -1</clus>
<clus scale="   47.409">  2 10  1 -1</clus>
<clus scale="   91.611">  7  8 -1 -1</clus>
<clus scale="   94.567">  5  6 -1 -1</clus>
<clus scale="  179.290">  2  7  1 -1</clus>
<clus scale="   47.409">  2  5  1 -1</clus>
</clustering>
</event>
<event>
10    2  0.3984345E-006  0.1149663E+03  0.7546771E-02  0.1254643E+00
         21   -1    0    0  501  502  0.00000000000E+00  0.00000000000E+00  0.17789100878E+03  0.17789100878E+03  0.00000000000E+00 0.  1.
          3   -1    0    0  503    0 -0.00000000000E+00 -0.00000000000E+00 -0.23317004844E+03  0.23317004844E+03  0.00000000000E+00 0. -1.
         23    2    1    2    0    0  0.35971464028E+02  0.73258815753E+02 -0.15899285309E+03  0.20404074260E+03  0.98453527092E+02 0.  0.
         23    2    1    2    0    0 -0.11477299047E+01 -0.52282761820E+02  0.11665109756E+03  0.15667882038E+03  0.90586807677E+02 0.  0.
        -13    1    3    3    0    0  0.39189946673E+02 -0.78744813050E+01 -0.24339006600E+02  0.46800070709E+02  0.00000000000E+00 0.  1.
         13    1    3    3    0    0 -0.32184826456E+01  0.81133297058E+02 -0.13465384649E+03  0.15724067189E+03  0.00000000000E+00 0. -1.
        -13    1    4    4    0    0 -0.38133966883E+02 -0.18960995421E+02  0.18113779780E+02  0.46279885431E+02  0.00000000000E+00 0. -1.
         13    1    4    4    0    0  0.36986236978E+02 -0.33321766399E+02  0.98537317781E+02  0.11039893495E+03  0.00000000000E+00 0.  1.
         21    1    1    2  503  502 -0.11624385949E+02 -0.21388687739E+02 -0.11947823471E+02  0.27117389210E+02  0.00000000000E+00 0.  1.
          3    1    1    2  501    0 -0.23199348174E+02  0.41263380675E+00 -0.98946066471E+00  0.23224105037E+02  0.00000000000E+00 0. -1.
<scales pt_clust_5="13000.00000" pt_clust_6="13000.00000" pt_clust_7="13000.00000" pt_clust_8="13000.00000" pt_clust_9="24.84840" pt_clust_10="23.20302"></scales>
<clustering>
<clus scale="   23.203">  1 10  2 -1</clus>
<clus scale="   24.848">  2  9  1 -1</clus>
<clus scale="   90.587">  7  8 -1 -1</clus>
<clus scale="   98.454">  5  6 -1 -1</clus>
<clus scale="  108.306">  1  7  2 -1</clus>
<clus scale="   23.203">  1  5  2 -1</clus>
</clustering>
</event>
<event>
10    2  0.3984345E-006  0.2980167E+03  0.7546771E-02  0.1086248E+00
          1   -1    0    0  503    0 -0.00000000000E+00  0.00000000000E+00  0.13560774569E+04  0.13560774569E+04  0.00000000000E+00 0. -1.
         21   -1    0    0  501  502  0.00000000000E+00 -0.00000000000E+00 -0.20659077643E+03  0.20659077643E+03  0.00000000000E+00 0. -1.
         23    2    1    2    0    0  0.24520374038E+03  0.10947255660E+03  0.45586341683E+03  0.53695555721E+03  0.91655336278E+02 0.  0.
         23    2    1    2    0    0 -0.21693780648E+03 -0.20857445049E+03  0.19826605283E+03  0.37177917247E+03  0.91351037739E+02 0.  0.
        -13    1    3    3    0    0  0.23848940928E+03  0.83495208310E+02  0.37870293400E+03  0.45526317705E+03  0.00000000000E+00 0. -1.
         13    1    3    3    0    0  0.67143310939E+01  0.25977348295E+02  0.77160482832E+02  0.81692380167E+02  0.00000000000E+00 0.  1.
        -13    1    4    4    0    0 -0.37647146557E+02 -0.83582774757E+02  0.31743490622E+02  0.97010499827E+02  0.00000000000E+00 0.  1.
         13    1    4    4    0    0 -0.17929065993E+03 -0.12499167574E+03  0.16652256221E+03  0.27476867264E+03  0.00000000000E+00 0. -1.
         21    1    1    2  503  502 -0.52737084145E+02  0.11985344556E+03  0.56355373072E+03  0.57856620698E+03  0.00000000000E+00 0. -1.
          1    1    1    2  501    0  0.24471150251E+02 -0.20751551669E+02 -0.68196519867E+02  0.75367296710E+02  0.00000000000E+00 0. -1.
<scales pt_clust_5="13000.00000" pt_clust_6="13000.00000" pt_clust_7="13000.00000" pt_clust_8="13000.00000" pt_clust_9="129.33891" pt_clust_10="32.08526"></scales>
<clustering>
<clus scale="   32.085">  2 10  1 -1</clus>
<clus scale="   91.351">  7  8 -1 -1</clus>
<clus scale="   91.655">  5  6 -1 -1</clus>
<clus scale="  129.339">  1  9  2 -1</clus>
<clus scale="  297.923">  2  7  1 -1</clus>
<clus scale="   32.085">  2  5  1 -1</clus>
</clustering>
</event>
<event>
10    2  0.3984345E-006  0.1591960E+03  0.7546771E-02  0.1214240E+00
         21   -1    0    0  501  502  0.00000000000E+00  0.00000000000E+00  0.10262063360E+03  0.10262063360E+03  0.00000000000E+00 0.  1.
          2   -1    0    0  503    0 -0.00000000000E+00 -0.00000000000E+00 -0.11972706214E+04  0.11972706214E+04  0.00000000000E+00 0. -1.
         23    2    1    2    0    0  0.56607561914E+01 -0.11049378882E+02 -0.33787069457E+03  0.35011938855E+03  0.90955192586E+02 0.  0.
         23    2    1    2    0    0 -0.49971364129E+02  0.97622119373E+02 -0.52267610501E+03  0.54215736982E+03  0.93365344144E+02 0.  0.
        -11    1    4    4    0    0  0.54518985043E+01  0.81047042620E+02 -0.37182731246E+03  0.38059676379E+03  0.00000000000E+00 0. -1.
         11    1    4    4    0    0 -0.55423262634E+02  0.16575076754E+02 -0.15084879255E+03  0.16156060604E+03  0.00000000000E+00 0.  1.
        -13    1    3    3    0    0 -0.22457849450E+02  0.32773405670E+02 -0.14554892227E+03  0.15087392053E+03  0.00000000000E+00 0.  1.
         13    1    3    3    0    0  0.28118605641E+02 -0.43822784552E+02 -0.19232177229E+03  0.19924546802E+03  0.00000000000E+00 0. -1.
         21    1    1    2  503  502 -0.59938944694E+02 -0.59732125116E+01 -0.26542123319E+03  0.27217051161E+03  0.00000000000E+00 0.  1.
          2    1    1    2  501    0  0.10424955263E+03 -0.80599527980E+02  0.31318044975E+02  0.13544398501E+03  0.00000000000E+00 0. -1.
<scales pt_clust_5="13000.00000" pt_clust_6="13000.00000" pt_clust_7="13000.00000" pt_clust_8="13000.00000" pt_clust_9="60.23584" pt_clust_10="128.94297"></scales>
<clustering>
<clus scale="   60.236">  2  9  1 -1</clus>
<clus scale="   90.955">  7  8 -1 -1</clus>
<clus scale="   93.365">  5  6 -1 -1</clus>
<clus scale="   93.394">  2  7  1 -1</clus>
<clus scale="  128.943">  1 10  2 -1</clus>
<clus scale="  128.943">  1  5  2 -1</clus>
</clustering>
</event>
<event>
10    2  0.3984345E-006  0.1162792E+03  0.7546771E-02  0.1249751E+00
          2   -1    0    0  503    0 -0.00000000000E+00  0.00000000000E+00  0.66837760719E+03  0.66837760719E+03  0.00000000000E+00 0. -1.
         21   -1    0    0  501  502  0.00000000000E+00 -0.00000000000E+00 -0.10771511619E+03  0.10771511619E+03  0.00000000000E+00 0. -1.
         23    2    1    2    0    0 -0.69864232131E+02  0.82395130011E+02  0.37242929820E+03  0.39836566701E+03  0.91223100778E+02 0.  0.
         23    2    1    2    0    0  0.52655027657E+02  0.20763056844E+02  0.14055095338E+03  0.17627348174E+03  0.90078373656E+02 0.  0.
        -11    1    3    3    0    0  0.18330950063E+02  0.38363145794E+02  0.10067224079E+03  0.10928245399E+03  0.00000000000E+00 0. -1.
         11    1    3    3    0    0 -0.88195182194E+02  0.44031984217E+02  0.27175705741E+03  0.28908321302E+03  0.00000000000E+00 0.  1.
        -13    1    4    4    0    0 -0.50013038944E+01 -0.20544354039E+02  0.27917737485E+01  0.21327857937E+02  0.00000000000E+00 0.  1.
         13    1    4    4    0    0  0.57656331551E+02  0.41307410883E+02  0.13775917963E+03  0.15494562380E+03  0.00000000000E+00 0. -1.
         21    1    1    2  503  502 -0.16177118780E+02 -0.36098570631E+02  0.10168390235E+03  0.10910738734E+03  0.00000000000E+00 0. -1.
          2    1    1    2  501    0  0.33386323254E+02 -0.67059616224E+02 -0.54001662936E+02  0.92346187297E+02  0.00000000000E+00 0. -1.
<scales pt_clust_5="13000.00000" pt_clust_6="13000.00000" pt_clust_7="13000.00000" pt_clust_8="13000.00000" pt_clust_9="39.55763" pt_clust_10="75.77298"></scales>
<clustering>
<clus scale="   39.558">  1  9  2 -1</clus>
<clus scale="   75.773">  2 10  1 -1</clus>
<clus scale="   90.078">  7  8 -1 -1</clus>
<clus scale="   91.223">  5  6 -1 -1</clus>
<clus scale="  115.383">  2  7  1 -1</clus>
<clus scale="   75.773">  2  5  1 -1</clus>
</clustering>
</event>
<event>
10    2  0.3984345E-006  0.1107878E+03  0.7546771E-02  0.1260977E+00
          3   -1    0    0  503    0 -0.00000000000E+00  0.00000000000E+00  0.59889139248E+02  0.59889139248E+02  0.00000000000E+00 0. -1.
         21   -1    0    0  501  502  0.00000000000E+00 -0.00000000000E+00 -0.56492996694E+03  0.56492996694E+03  0.00000000000E+00 0. -1.
         23    2    1    2    0    0 -0.68104240873E+02 -0.36850715204E+02 -0.11462394458E+03  0.16557905309E+03  0.91003358815E+02 0.  0.
         23    2    1    2    0    0  0.22227493890E+02  0.27823416920E+02 -0.16827066282E+03  0.19679808822E+03  0.95636120517E+02 0.  0.
        -11    1    4    4    0    0  0.51070424086E+02  0.12509654737E+02 -0.15092333724E+03  0.15982031599E+03  0.00000000000E+00 0.  1.
         11    1    4    4    0    0 -0.28842930195E+02  0.15313762183E+02 -0.17347325572E+02  0.36977772228E+02  0.00000000000E+00 0. -1.
        -13    1    3    3    0    0 -0.15001065124E+02 -0.22392625515E+02 -0.10660771868E+03  0.10996211763E+03  0.00000000000E+00 0.  1.
         13    1    3    3    0    0 -0.53103175749E+02 -0.14458089689E+02 -0.80162258988E+01  0.55616935458E+02  0.00000000000E+00 0. -1.
         21    1    1    2  503  502  0.47297259151E+01  0.23567619950E+02  0.10142249036E+02  0.26089619254E+02  0.00000000000E+00 0.  1.
          3    1    1    2  501    0  0.41147021068E+02 -0.14540321665E+02 -0.23228846934E+03  0.23635234563E+03  0.00000000000E+00 0. -1.
<scales pt_clust_5="13000.00000" pt_clust_6="13000.00000" pt_clust_7="13000.00000" pt_clust_8="13000.00000" pt_clust_9="24.03753" pt_clust_10="43.49093"></scales>
<clustering>
<clus scale="   24.038">  1  9  2 -1</clus>
<clus scale="   43.491">  2 10  1 -1</clus>
<clus scale="   91.003">  7  8 -1 -1</clus>
<clus scale="   95.636">  5  6 -1 -1</clus>
<clus scale="  106.814">  1  7  2 -1</clus>
<clus scale="   43.491">  2  5  1 -1</clus>
</clustering>
</event>
<event>
10    2  0.3984345E-006  0.1755394E+03  0.7546771E-02  0.1172363E+00
         -4   -1    0    0    0  501 -0.00000000000E+00  0.00000000000E+00  0.31335095291E+03  0.31335095291E+03  0.00000000000E+00 0.  1.
         21   -1    0    0  503  502  0.00000000000E+00 -0.00000000000E+00 -0.29984675197E+03  0.29984675197E+03  0.00000000000E+00 0.  1.
         23    2    1    2    0    0 -0.92312712502E+01  0.15860619302E+03  0.19134055619E+03  0.26556506533E+03  0.93126014877E+02 0.  0.
         23    2    1    2    0    0  0.29881654613E+02 -0.12748334379E+03 -0.16160510795E+03  0.22736253528E+03  0.91829163693E+02 0.  0.
        -11    1    4    4    0    0 -0.25193963807E+02 -0.88674755660E+02 -0.10094385100E+03  0.13670263040E+03  0.00000000000E+00 0.  1.
         11    1    4    4    0    0  0.55075618420E+02 -0.38808588129E+02 -0.60661256951E+02  0.90659904874E+02  0.00000000000E+00 0. -1.
        -11    1    3    3    0    0  0.26547786834E+02  0.10634526665E+03  0.16240679928E+03  0.19593383878E+03  0.00000000000E+00 0.  1.
         11    1    3    3    0    0 -0.35779058084E+02  0.52260926371E+02  0.28933756910E+02  0.69631226555E+02  0.00000000000E+00 0. -1.
         21    1    1    2  503  501 -0.54295007437E+02 -0.17745933198E+02  0.27582395693E+02  0.63432283026E+02  0.00000000000E+00 0.  1.
         -4    1    1    2    0  502  0.33644624075E+02 -0.13376916035E+02 -0.43813642989E+02  0.56837821244E+02  0.00000000000E+00 0.  1.
<scales pt_clust_5="13000.00000" pt_clust_6="13000.00000" pt_clust_7="13000.00000" pt_clust_8="13000.00000" pt_clust_9="55.14782" pt_clust_10="36.20639"></scales>
<clustering>
<clus scale="   36.206">  2 10  1 -1</clus>
<clus scale="   55.148">  1  9  2 -1</clus>
<clus scale="   91.829">  5  6 -1 -1</clus>
<clus scale="   93.126">  7  8 -1 -1</clus>
<clus scale="  174.855">  2  5  1 -1</clus>
<clus scale="   36.206">  2  5  1 -1</clus>
</clustering>
</event>
<event>
10    2  0.3984345E-006  0.1228957E+03  0.7546771E-02  0.1238545E+00
         -4   -1    0    0    0  501 -0.00000000000E+00  0.00000000000E+00  0.94988019736E+02  0.94988019736E+02  0.00000000000E+00 0.  1.
         21   -1    0    0  503  502  0.00000000000E+00 -0.00000000000E+00 -0.68723118216E+03  0.68723118216E+03  0.00000000000E+00 0. -1.
         23    2    1    2    0    0 -0.48232759115E+02  0.60943848565E+02 -0.70637397156E+01  0.11908463239E+03  0.89948326954E+02 0.  0.
         23    2    1    2    0    0  0.92550230460E+02 -0.79831007842E+02 -0.27181173398E+03  0.31145258345E+03  0.90457492979E+02 0.  0.
        -13    1    4    4    0    0  0.98046924298E+02 -0.39610358265E+02 -0.23016487307E+03  0.25329439125E+03  0.00000000000E+00 0. -1.
         13    1    4    4    0    0 -0.54966938379E+01 -0.40220649577E+02 -0.41646860913E+02  0.58158192196E+02  0.00000000000E+00 0.  1.
        -13    1    3    3    0    0 -0.42564715585E+02 -0.10115925610E+02 -0.17341980849E+02  0.47061993833E+02  0.00000000000E+00 0. -1.
         13    1    3    3    0    0 -0.56680435306E+01  0.71059774175E+02  0.10278241133E+02  0.72022638552E+02  0.00000000000E+00 0.  1.
         21    1    1    2  503  501 -0.26429079083E+02 -0.53168780060E+02 -0.48682686238E+02  0.76781634090E+02  0.00000000000E+00 0.  1.
         -4    1    1    2    0  502 -0.17888392262E+02  0.72055939337E+02 -0.26468500249E+03  0.27490035197E+03  0.00000000000E+00 0.  1.
<scales pt_clust_5="13000.00000" pt_clust_6="13000.00000" pt_clust_7="13000.00000" pt_clust_8="13000.00000" pt_clust_9="59.37521" pt_clust_10="71.42990"></scales>
<clustering>
<clus scale="   59.375">  1  9  2 -1</clus>
<clus scale="   71.430">  2 10  1 -1</clus>
<clus scale="   89.948">  7  8 -1 -1</clus>
<clus scale="   90.457">  5  6 -1 -1</clus>
<clus scale="  122.521">  1  7  2 -1</clus>
<clus scale="   71.430">  2  5  1 -1</clus>
</clustering>
</event>
<event>
10    2  0.3984345E-006  0.2223608E+03  0.7546771E-02  0.1156286E+00
         21   -1    0    0  501  502  0.00000000000E+00  0.00000000000E+00  0.12054963556E+04  0.12054963556E+04  0.00000000000E+00 0. -1.
          2   -1    0    0  503    0 -0.00000000000E+00 -0.00000000000E+00 -0.41569561736E+03  0.41569561736E+03  0.00000000000E+00 0. -1.
         23    2    1    2    0    0  0.84760869488E+02 -0.30578956196E+02  0.13462278321E+01  0.12472546385E+03  0.86227324232E+02 0.  0.
         23    2    1    2    0    0 -0.14573685017E+03  0.22970417984E+03 -0.17565532604E+03  0.33766585433E+03  0.95708912233E+02 0.  0.
        -11    1    4    4    0    0 -0.14020929566E+03  0.18082249478E+03 -0.10545439174E+03  0.25194453744E+03  0.00000000000E+00 0.  1.
         11    1    4    4    0    0 -0.55275545126E+01  0.48881685062E+02 -0.70200934303E+02  0.85721316896E+02  0.00000000000E+00 0. -1.
        -13    1    3    3    0    0  0.75260965778E+02  0.16164756323E+02  0.23957784058E+01  0.77014622449E+02  0.00000000000E+00 0.  1.
         13    1    3    3    0    0  0.94999037097E+01 -0.46743712519E+02 -0.10495505737E+01  0.47710841398E+02  0.00000000000E+00 0. -1.
         21    1    1    2  503  502  0.20362060245E+03 -0.39259202901E+02  0.41297911693E+02  0.21144302369E+03  0.00000000000E+00 0. -1.
          2    1    1    2  501    0 -0.14264462177E+03 -0.15986602074E+03  0.92281192480E+03  0.94735763113E+03  0.00000000000E+00 0. -1.
<scales pt_clust_5="13000.00000" pt_clust_6="13000.00000" pt_clust_7="13000.00000" pt_clust_8="13000.00000" pt_clust_9="200.70908" pt_clust_10="213.10799"></scales>
<clustering>
<clus scale="   86.227">  7  8 -1 -1</clus>
<clus scale="   95.709">  5  6 -1 -1</clus>
<clus scale="  124.718">  2  7  1 -1</clus>
<clus scale="  213.108">  1 10  2 -1</clus>
<clus scale="  200.709">  1  9  2 -1</clus>
<clus scale="  213.108">  1  5  2 -1</clus>
</clustering>
</event>
<event>
10    2  0.3984345E-006  0.9839643E+02  0.7546771E-02  0.1283900E+00
         -2   -1    0    0    0  501 -0.00000000000E+00  0.00000000000E+00  0.26067033339E+03  0.26067033339E+03  0.00000000000E+00 0.  1.
         21   -1    0    0  503  502  0.00000000000E+00 -0.00000000000E+00 -0.24855389511E+03  0.24855389511E+03  0.00000000000E+00 0. -1.
         23    2    1    2    0    0 -0.59079209278E+02 -0.20176133221E+02  0.14302509946E+03  0.17907209527E+03  0.87824864989E+02 0.  0.
         23    2    1    2    0    0  0.43903974420E+02 -0.41811084116E+02 -0.26681470017E+02  0.11032725766E+03  0.88229684439E+02 0.  0.
        -11    1    4    4    0    0  0.14184641407E+02 -0.33126401473E+02  0.29240113434E+02  0.46406322415E+02  0.00000000000E+00 0.  1.
         11    1    4    4    0    0  0.29719333013E+02 -0.86846826433E+01 -0.55921583451E+02  0.63920935248E+02  0.00000000000E+00 0. -1.
        -13    1    3    3    0    0 -0.70257748603E+02  0.27197093033E+01  0.60676379151E+02  0.92871798972E+02  0.00000000000E+00 0.  1.
         13    1    3    3    0    0  0.11178539325E+02 -0.22895842525E+02  0.82348720306E+02  0.86200296301E+02  0.00000000000E+00 0. -1.
         21    1    1    2  503  501  0.21945185448E+02  0.56802297646E+01  0.50325632310E+02  0.55195338951E+02  0.00000000000E+00 0.  1.
         -2    1    1    2    0  502 -0.67699505907E+01  0.56306987573E+02 -0.15455282347E+03  0.16462953661E+03  0.00000000000E+00 0.  1.
<scales pt_clust_5="13000.00000" pt_clust_6="13000.00000" pt_clust_7="13000.00000" pt_clust_8="13000.00000" pt_clust_9="22.66840" pt_clust_10="56.78831"></scales>
<clustering>
<clus scale="   22.668">  1  9  2 -1</clus>
<clus scale="   56.788">  2 10  1 -1</clus>
<clus scale="   87.825">  7  8 -1 -1</clus>
<clus scale="   88.230">  5  6 -1 -1</clus>
<clus scale="   98.034">  1  7  2 -1</clus>
<clus scale="   56.788">  2  5  1 -1</clus>
</clustering>
</event>
<event>
10    2  0.3984345E-006  0.1096106E+03  0.7546771E-02  0.1261518E+00
          1   -1    0    0  503    0 -0.00000000000E+00  0.00000000000E+00  0.18981878673E+03  0.18981878673E+03  0.00000000000E+00 0. -1.
         21   -1    0    0  501  502  0.00000000000E+00 -0.00000000000E+00 -0.19004812092E+03  0.19004812092E+03  0.00000000000E+00 0.  1.
         23    2    1    2    0    0 -0.66046585809E+02  0.25745965486E+01  0.75637451840E+01  0.11239604792E+03  0.90591839054E+02 0.  0.
         23    2    1    2    0    0  0.55924943165E+02  0.22138728120E+02 -0.53315284740E+02  0.12154421298E+03  0.91174303242E+02 0.  0.
        -11    1    4    4    0    0  0.58445923567E+02 -0.10351029840E+01 -0.71229900905E+02  0.92144973833E+02  0.00000000000E+00 0.  1.
         11    1    4    4    0    0 -0.25209804016E+01  0.23173831104E+02  0.17914616165E+02  0.29399239149E+02  0.00000000000E+00 0. -1.
        -11    1    3    3    0    0 -0.74744641625E+02  0.24723739913E+02  0.25327232362E+02  0.82701230136E+02  0.00000000000E+00 0. -1.
         11    1    3    3    0    0  0.86980558152E+01 -0.22149143364E+02 -0.17763487178E+02  0.29694817788E+02  0.00000000000E+00 0.  1.
         21    1    1    2  503  502  0.23025026371E+02 -0.64339391121E+02  0.69812118238E+02  0.97690536604E+02  0.00000000000E+00 0.  1.
          1    1    1    2  501    0 -0.12903383727E+02  0.39626066452E+02 -0.24289912871E+02  0.48236110139E+02  0.00000000000E+00 0. -1.
<scales pt_clust_5="13000.00000" pt_clust_6="13000.00000" pt_clust_7="13000.00000" pt_clust_8="13000.00000" pt_clust_9="64.55957" pt_clust_10="41.67400"></scales>
<clustering>
<clus scale="   41.674">  2 10  1 -1</clus>
<clus scale="   64.560">  1  9  2 -1</clus>
<clus scale="   90.592">  7  8 -1 -1</clus>
<clus scale="   91.174">  5  6 -1 -1</clus>
<clus scale="  109.127">  1  7  2 -1</clus>
<clus scale="   41.674">  2  5  1 -1</clus>
</clustering>
</event>
<event>
10    2  0.3984345E-006  0.9072488E+02  0.7546771E-02  0.1302579E+00
         21   -1    0    0  501  502  0.00000000000E+00  0.00000000000E+00  0.39599389388E+02  0.39599389388E+02  0.00000000000E+00 0.  1.
          1   -1    0    0  503    0 -0.00000000000E+00 -0.00000000000E+00 -0.68575461832E+03  0.68575461832E+03  0.00000000000E+00 0. -1.
         23    2    1    2    0    0 -0.10142260619E+01 -0.29875208383E+02 -0.18504764600E+03  0.20815426547E+03  0.90509724419E+02 0.  0.
         23    2    1    2    0    0  0.50593245963E+01 -0.15517044863E+02 -0.16510847428E+03  0.18784382680E+03  0.88080188128E+02 0.  0.
        -13    1    3    3    0    0 -0.84277517885E+01 -0.57221849633E+02 -0.76116799386E+02  0.95598819159E+02  0.00000000000E+00 0. -1.
         13    1    3    3    0    0  0.74135257266E+01  0.27346641250E+02 -0.10893084661E+03  0.11255544631E+03  0.00000000000E+00 0.  1.
        -13    1    4    4    0    0  0.32361175084E+02  0.10666604655E+02 -0.23807871595E+02  0.41567257037E+02  0.00000000000E+00 0.  1.
         13    1    4    4    0    0 -0.27301850488E+02 -0.26183649517E+02 -0.14130060268E+03  0.14627656976E+03  0.00000000000E+00 0. -1.
         21    1    1    2  503  502  0.30384396842E+02  0.48465879010E+02 -0.28832921809E+03  0.29394878977E+03  0.00000000000E+00 0.  1.
          1    1    1    2  501    0 -0.34429495376E+02 -0.30736257635E+01 -0.76698905641E+01  0.35407125673E+02  0.00000000000E+00 0. -1.
<scales pt_clust_5="13000.00000" pt_clust_6="13000.00000" pt_clust_7="13000.00000" pt_clust_8="13000.00000" pt_clust_9="55.00360" pt_clust_10="34.56642"></scales>
<clustering>
<clus scale="   34.566">  1 10  2 -1</clus>
<clus scale="   55.004">  2  9  1 -1</clus>
<clus scale="   88.080">  7  8 -1 -1</clus>
<clus scale="   88.301">  1  7  2 -1</clus>
<clus scale="   90.510">  5  6 -1 -1</clus>
<clus scale="   34.566">  1  5  2 -1</clus>
</clustering>
</event>
<event>
10    2  0.3984345E-006  0.1426645E+03  0.7546771E-02  0.1224055E+00
         -1   -1    0    0    0  501 -0.00000000000E+00  0.00000000000E+00  0.34481128200E+03  0.34481128200E+03  0.00000000000E+00 0.  1.
         21   -1    0    0  503  502  0.00000000000E+00 -0.00000000000E+00 -0.34129355159E+03  0.34129355159E+03  0.00000000000E+00 0.  1.
         23    2    1    2    0    0  0.39040436976E+02 -0.45377223723E+02  0.13907669184E+03  0.17599614907E+03  0.89716610066E+02 0.  0.
         23    2    1    2    0    0 -0.10322085469E+03 -0.28055834228E+01  0.11506068498E+03  0.17996474175E+03  0.92119112594E+02 0.  0.
        -11    1    3    3    0    0  0.49850887629E+02  0.10405680020E+02  0.61825501656E+02  0.80098575700E+02  0.00000000000E+00 0.  1.
         11    1    3    3    0    0 -0.10810450653E+02 -0.55782903742E+02  0.77251190187E+02  0.95897573372E+02  0.00000000000E+00 0. -1.
        -13    1    4    4    0    0 -0.38260011340E+02  0.23737475592E+02 -0.19571322775E+00  0.45025931627E+02  0.00000000000E+00 0. -1.
         13    1    4    4    0    0 -0.64960843350E+02 -0.26543059015E+02  0.11525639821E+03  0.13493881012E+03  0.00000000000E+00 0.  1.
         21    1    1    2  503  501 -0.29830109320E+02 -0.95100665975E+01  0.20514926655E+02  0.37431791360E+02  0.00000000000E+00 0.  1.
         -1    1    1    2    0  502  0.94010527034E+02  0.57692873743E+02 -0.27113457306E+03  0.29271215141E+03  0.00000000000E+00 0.  1.
<scales pt_clust_5="13000.00000" pt_clust_6="13000.00000" pt_clust_7="13000.00000" pt_clust_8="13000.00000" pt_clust_9="31.30937" pt_clust_10="108.93681"></scales>
<clustering>
<clus scale="   31.309">  1  9  2 -1</clus>
<clus scale="   89.717">  5  6 -1 -1</clus>
<clus scale="   92.119">  7  8 -1 -1</clus>
<clus scale="  105.570">  1  5  2 -1</clus>
<clus scale="  108.937">  2 10  1 -1</clus>
<clus scale="  108.937">  2  5  1 -1</clus>
</clustering>
</event>
<event>
10    2  0.3984345E-006  0.9452145E+02  0.7546771E-02  0.1293469E+00
          1   -1    0    0  503    0 -0.00000000000E+00  0.00000000000E+00  0.25275992302E+03  0.25275992302E+03  0.00000000000E+00 0. -1.
         21   -1    0    0  501  502  0.00000000000E+00 -0.00000000000E+00 -0.46683170716E+03  0.46683170716E+03  0.00000000000E+00 0. -1.
         23    2    1    2    0    0  0.38730742745E+02 -0.27782279496E+01  0.20199183728E+03  0.22574078963E+03  0.93007595351E+02 0.  0.
         23    2    1    2    0    0 -0.12270164263E+02 -0.36012393179E+02 -0.18097753237E+03  0.20604868069E+03  0.90861114891E+02 0.  0.
        -11    1    3    3    0    0 -0.14658250937E+02 -0.33784268963E+02  0.53747628150E+02  0.65154038107E+02  0.00000000000E+00 0.  1.
         11    1    3    3    0    0  0.53388993682E+02  0.31006041013E+02  0.14824420913E+03  0.16058675152E+03  0.00000000000E+00 0. -1.
        -13    1    4    4    0    0 -0.21976215615E+02 -0.64567350069E+02 -0.13046211752E+03  0.14721501572E+03  0.00000000000E+00 0. -1.
         13    1    4    4    0    0  0.97060513515E+01  0.28554956891E+02 -0.50515414850E+02  0.58833664966E+02  0.00000000000E+00 0.  1.
         21    1    1    2  503  502 -0.23262668201E+02  0.29578471285E+01  0.19615574550E+02  0.30572395333E+02  0.00000000000E+00 0.  1.
          1    1    1    2  501    0 -0.31979102805E+01  0.35832774000E+02 -0.25470166359E+03  0.25722976453E+03  0.00000000000E+00 0. -1.
<scales pt_clust_5="13000.00000" pt_clust_6="13000.00000" pt_clust_7="13000.00000" pt_clust_8="13000.00000" pt_clust_9="23.44996" pt_clust_10="36.00325"></scales>
<clustering>
<clus scale="   23.450">  1  9  2 -1</clus>
<clus scale="   36.003">  2 10  1 -1</clus>
<clus scale="   90.861">  7  8 -1 -1</clus>
<clus scale="   92.410">  2  7  1 -1</clus>
<clus scale="   93.008">  5  6 -1 -1</clus>
<clus scale="   36.003">  2  5  1 -1</clus>
</clustering>
</event>
<event>
10    2  0.3984345E-006  0.1001922E+03  0.7546771E-02  0.1280706E+00
         21   -1    0    0  503  502  0.00000000000E+00  0.00000000000E+00  0.31394051958E+03  0.31394051958E+03  0.00000000000E+00 0.  1.
         -1   -1    0    0    0  501 -0.00000000000E+00 -0.00000000000E+00 -0.17892215325E+03  0.17892215325E+03  0.00000000000E+00 0.  1.
         23    2    1    2    0    0  0.74121112274E+02  0.37232966204E+02 -0.47903910574E+02  0.13148613519E+03  0.90075446393E+02 0.  0.
         23    2    1    2    0    0  0.77149257983E+01 -0.16629635159E+02 -0.95762378869E+01  0.94059513508E+02  0.91757413345E+02 0.  0.
        -11    1    4    4    0    0  0.46705165692E+02 -0.15656005902E+02 -0.20805305446E+02  0.53472831960E+02  0.00000000000E+00 0.  1.
         11    1    4    4    0    0 -0.38990239893E+02 -0.97362925760E+00  0.11229067559E+02  0.40586681549E+02  0.00000000000E+00 0. -1.
        -13    1    3    3    0    0  0.24147963676E+02 -0.28395219305E+02 -0.25755732075E+01  0.37363701723E+02  0.00000000000E+00 0. -1.
         13    1    3    3    0    0  0.49973148598E+02  0.65628185510E+02 -0.45328337366E+02  0.94122433471E+02  0.00000000000E+00 0.  1.
         21    1    1    2  503  501 -0.44597221555E+02  0.23548139720E+01 -0.21022931927E+02  0.49360115337E+02  0.00000000000E+00 0. -1.
         -1    1    1    2    0  502 -0.37238816518E+02 -0.22958145017E+02  0.21352144672E+03  0.21795690879E+03  0.00000000000E+00 0.  1.
<scales pt_clust_5="13000.00000" pt_clust_6="13000.00000" pt_clust_7="13000.00000" pt_clust_8="13000.00000" pt_clust_9="49.97925" pt_clust_10="43.74707"></scales>
<clustering>
<clus scale="   43.747">  1 10  2 -1</clus>
<clus scale="   49.979">  2  9  1 -1</clus>
<clus scale="   90.075">  7  8 -1 -1</clus>
<clus scale="   91.757">  5  6 -1 -1</clus>
<clus scale="   98.654">  2  7  1 -1</clus>
<clus scale="   43.747">  1  5  2 -1</clus>
</clustering>
</event>
<event>
10    2  0.3984345E-006  0.1258468E+03  0.7546771E-02  0.1241245E+00
         -1   -1    0    0    0  501 -0.00000000000E+00  0.00000000000E+00  0.24799690588E+03  0.24799690588E+03  0.00000000000E+00 0.  1.
         21   -1    0    0  503  502  0.00000000000E+00 -0.00000000000E+00 -0.18096364996E+03  0.18096364996E+03  0.00000000000E+00 0.  1.
         23    2    1    2    0    0  0.25076989155E+02  0.11225497159E+02  0.50585617650E+02  0.10793373190E+03  0.91301251894E+02 0.  0.
         23    2    1    2    0    0 -0.12498983917E+03  0.86721261771E+01  0.10839555741E+01  0.16794480516E+03  0.11183298686E+03 0.  0.
        -13    1    4    4    0    0 -0.14462827527E+03 -0.32735618590E+01 -0.24643070454E+01  0.14468630558E+03  0.00000000000E+00 0.  1.
         13    1    4    4    0    0  0.19638436093E+02  0.11945688036E+02  0.35482626195E+01  0.23258499574E+02  0.00000000000E+00 0. -1.
        -13    1    3    3    0    0  0.31105036372E+02 -0.36062209437E+02  0.23504315075E+02  0.53107994354E+02  0.00000000000E+00 0.  1.
         13    1    3    3    0    0 -0.60280472163E+01  0.47287706596E+02  0.27081302574E+02  0.54825737546E+02  0.00000000000E+00 0. -1.
         21    1    1    2  503  501  0.20670226464E+02 -0.16172367514E+02  0.57535833729E+02  0.63239037753E+02  0.00000000000E+00 0.  1.
         -1    1    1    2    0  502  0.79242623554E+02 -0.37252558217E+01 -0.42172151035E+02  0.89842981037E+02  0.00000000000E+00 0.  1.
<scales pt_clust_5="13000.00000" pt_clust_6="13000.00000" pt_clust_7="13000.00000" pt_clust_8="13000.00000" pt_clust_9="26.24507" pt_clust_10="82.07251"></scales>
<clustering>
<clus scale="   26.245">  1  9  2 -1</clus>
<clus scale="   82.073">  2 10  1 -1</clus>
<clus scale="   91.301">  7  8 -1 -1</clus>
<clus scale="  108.013">  1  7  2 -1</clus>
<clus scale="  111.833">  5  6 -1 -1</clus>
<clus scale="   82.073">  2  5  1 -1</clus>
</clustering>
</event>
<event>
10    2  0.3984345E-006  0.1323004E+03  0.7546771E-02  0.1224469E+00
          2   -1    0    0  503    0 -0.00000000000E+00  0.00000000000E+00  0.18977191019E+03  0.18977191019E+03  0.00000000000E+00 0. -1.
         21   -1    0    0  501  502  0.00000000000E+00 -0.00000000000E+00 -0.56300465405E+03  0.56300465405E+03  0.00000000000E+00 0.  1.
         23    2    1    2    0    0  0.42008109998E+02  0.50352218972E+02  0.43207337272E+02  0.12207175107E+03  0.93459141632E+02 0.  0.
         23    2    1    2    0    0 -0.74682019550E+02 -0.21979441058E+02 -0.29216407022E+03  0.31602917220E+03  0.91946146638E+02 0.  0.
        -13    1    3    3    0    0  0.20715676895E+02  0.73476982967E+02  0.11109988223E+02  0.77145564574E+02  0.00000000000E+00 0.  1.
         13    1    3    3    0    0  0.21292433103E+02 -0.23124763995E+02  0.32097349049E+02  0.44926186498E+02  0.00000000000E+00 0. -1.
        -13    1    4    4    0    0 -0.96225139419E+02 -0.15061229950E+02 -0.22566643830E+03  0.24578742742E+03  0.00000000000E+00 0.  1.
         13    1    4    4    0    0  0.21543119869E+02 -0.69182111078E+01 -0.66497631921E+02  0.70241744780E+02  0.00000000000E+00 0. -1.
         21    1    1    2  503  502  0.49973471775E+02  0.51085780972E+00  0.87216370513E+02  0.10052016784E+03  0.00000000000E+00 0. -1.
          2    1    1    2  501    0 -0.17299562224E+02 -0.28883635724E+02 -0.21149238143E+03  0.21415547312E+03  0.00000000000E+00 0. -1.
<scales pt_clust_5="13000.00000" pt_clust_6="13000.00000" pt_clust_7="13000.00000" pt_clust_8="13000.00000" pt_clust_9="49.64487" pt_clust_10="33.66807"></scales>
<clustering>
<clus scale="   33.668">  2 10  1 -1</clus>
<clus scale="   49.645">  1  9  2 -1</clus>
<clus scale="   91.946">  7  8 -1 -1</clus>
<clus scale="   93.459">  5  6 -1 -1</clus>
<clus scale="  131.236">  2  7  1 -1</clus>
<clus scale="   33.668">  2  5  1 -1</clus>
</clustering>
</event>
<event>
10    2  0.8178631E-006  0.1133998E+03  0.7546771E-02  0.1255608E+00
         -4   -1    0    0    0  501 -0.00000000000E+00  0.00000000000E+00  0.31126314687E+03  0.31126314687E+03  0.00000000000E+00 0.  1.
         21   -1    0    0  503  502  0.00000000000E+00 -0.00000000000E+00 -0.25733986132E+03  0.25733986132E+03  0.00000000000E+00 0. -1.
         23    2    1    2    0    0 -0.35008441879E+02 -0.73445828418E+02  0.20964747630E+03  0.24227493892E+03  0.90139896799E+02 0.  0.
         23    2    1    2    0    0  0.96110704586E+02  0.50610682026E+02 -0.17091947109E+03  0.22302087047E+03  0.93413780549E+02 0.  0.
        -11    1    4    4    0    0  0.70095399808E+02 -0.16598697602E+01 -0.14087137061E+03  0.15735584927E+03  0.00000000000E+00 0. -1.
         11    1    4    4    0    0  0.26015304778E+02  0.52270551786E+02 -0.30048100480E+02  0.65665021200E+02  0.00000000000E+00 0.  1.
        -13    1    3    3    0    0 -0.41314256683E+02 -0.23838288367E+02  0.17513679661E+03  0.18151592031E+03  0.00000000000E+00 0.  1.
         13    1    3    3    0    0  0.63058148046E+01 -0.49607540052E+02  0.34510679689E+02  0.60759018614E+02  0.00000000000E+00 0. -1.
         21    1    1    2  503  501  0.12551511483E+02  0.21758364116E+02  0.15740783621E+02  0.29643534178E+02  0.00000000000E+00 0.  1.
         -4    1    1    2    0  502 -0.73653774190E+02  0.10767822755E+01 -0.54550327510E+00  0.73663664627E+02  0.00000000000E+00 0.  1.
<scales pt_clust_5="13000.00000" pt_clust_6="13000.00000" pt_clust_7="13000.00000" pt_clust_8="13000.00000" pt_clust_9="25.11905" pt_clust_10="72.16551"></scales>
<clustering>
<clus scale="   25.119">  1  9  2 -1</clus>
<clus scale="   72.166">  2 10  1 -1</clus>
<clus scale="   90.140">  7  8 -1 -1</clus>
<clus scale="   93.414">  5  6 -1 -1</clus>
<clus scale="  110.719">  1  7  2 -1</clus>
<clus scale="   72.166">  2  5  1 -1</clus>
</clustering>
</event>
<event>
10    2  0.3984345E-006  0.2136241E+03  0.7546771E-02  0.1138852E+00
         21   -1    0    0  501  502  0.00000000000E+00  0.00000000000E+00  0.18911084680E+03  0.18911084680E+03  0.00000000000E+00 0.  1.
          1   -1    0    0  503    0 -0.00000000000E+00 -0.00000000000E+00 -0.68932848190E+03  0.68932848190E+03  0.00000000000E+00 0. -1.
         23    2    1    2    0    0  0.13350862516E+01 -0.11428055293E+03 -0.27918027592E+03  0.31572256241E+03  0.93151933537E+02 0.  0.
         23    2    1    2    0    0 -0.40180296212E+01  0.25017990004E+03 -0.66552026945E+02  0.27565645643E+03  0.94610690372E+02 0.  0.
        -11    1    3    3    0    0  0.41322978264E+02 -0.92702385840E+02 -0.20458948728E+03  0.22838165245E+03  0.00000000000E+00 0. -1.
         11    1    3    3    0    0 -0.39987892012E+02 -0.21578167093E+02 -0.74590788640E+02  0.87340909960E+02  0.00000000000E+00 0.  1.
        -13    1    4    4    0    0  0.40832012955E+02  0.17698045794E+03 -0.46964831265E+02  0.18760338790E+03  0.00000000000E+00 0.  1.
         13    1    4    4    0    0 -0.44850042576E+02  0.73199442100E+02 -0.19587195680E+02  0.88053068529E+02  0.00000000000E+00 0. -1.
         21    1    1    2  503  502 -0.84944360816E+01 -0.10457054583E+03 -0.20284184919E+03  0.22836805881E+03  0.00000000000E+00 0. -1.
          1    1    1    2  501    0  0.11177379451E+02 -0.31328801275E+02  0.48356516958E+02  0.58692251048E+02  0.00000000000E+00 0. -1.
<scales pt_clust_5="13000.00000" pt_clust_6="13000.00000" pt_clust_7="13000.00000" pt_clust_8="13000.00000" pt_clust_9="107.77687" pt_clust_10="33.26301"></scales>
<clustering>
<clus scale="   33.263">  1 10  2 -1</clus>
<clus scale="   93.152">  5  6 -1 -1</clus>
<clus scale="   94.611">  7  8 -1 -1</clus>
<clus scale="  107.777">  2  9  1 -1</clus>
<clus scale="  212.982">  2  5  1 -1</clus>
<clus scale="   33.263">  1  5  2 -1</clus>
</clustering>
</event>
<event>
10    2  0.3984345E-006  0.9411360E+02  0.7546771E-02  0.1294211E+00
         -1   -1    0    0    0  501 -0.00000000000E+00  0.00000000000E+00  0.16877837634E+03  0.16877837634E+03  0.00000000000E+00 0.  1.
         21   -1    0    0  503  502  0.00000000000E+00 -0.00000000000E+00 -0.10658826997E+03  0.10658826997E+03  0.00000000000E+00 0. -1.
         23    2    1    2    0    0 -0.12178307136E+02  0.39648763939E+01  0.66506956967E+02  0.11367324823E+03  0.91292938548E+02 0.  0.
         23    2    1    2    0    0 -0.79086877463E+00 -0.76168927033E+01  0.47388403859E+00  0.93409714948E+02  0.93094080117E+02 0.  0.
        -11    1    4    4    0    0  0.31882702556E+02  0.26887483094E+02  0.14014948197E+02  0.43998434544E+02  0.00000000000E+00 0. -1.
         11    1    4    4    0    0 -0.32673571330E+02 -0.34504375797E+02 -0.13541064158E+02  0.49411280404E+02  0.00000000000E+00 0.  1.
        -11    1    3    3    0    0 -0.21924536867E+02 -0.24028376445E+02  0.75902302600E+02  0.82578494364E+02  0.00000000000E+00 0.  1.
         11    1    3    3    0    0  0.97462297303E+01  0.27993252839E+02 -0.93953456328E+01  0.31094753867E+02  0.00000000000E+00 0. -1.
         21    1    1    2  503  501 -0.89570993877E+00  0.21832625708E+02  0.23380397202E+02  0.32001700188E+02  0.00000000000E+00 0. -1.
         -1    1    1    2    0  502  0.13864885850E+02 -0.18180609399E+02 -0.28171131838E+02  0.36281982950E+02  0.00000000000E+00 0.  1.
<scales pt_clust_5="13000.00000" pt_clust_6="13000.00000" pt_clust_7="13000.00000" pt_clust_8="13000.00000" pt_clust_9="21.85099" pt_clust_10="22.35244"></scales>
<clustering>
<clus scale="   21.851">  1  9  2 -1</clus>
<clus scale="   22.352">  2 10  1 -1</clus>
<clus scale="   91.293">  7  8 -1 -1</clus>
<clus scale="   92.332">  1  7  2 -1</clus>
<clus scale="   93.094">  5  6 -1 -1</clus>
<clus scale="   22.352">  2  5  1 -1</clus>
</clustering>
</event>
<event>
10    2  0.8480480E-006  0.1577095E+03  0.7546771E-02  0.1191451E+00
         21   -1    0    0  503  502  0.00000000000E+00  0.00000000000E+00  0.10847248485E+03  0.10847248485E+03  0.00000000000E+00 0.  1.
         -3   -1    0    0    0  501 -0.00000000000E+00 -0.00000000000E+00 -0.11761348649E+04  0.11761348649E+04  0.00000000000E+00 0.  1.
         23    2    1    2    0    0  0.12126328729E+03 -0.91720433815E+02 -0.95749584338E+03  0.97374576286E+03  0.90912583125E+02 0.  0.
         23    2    1    2    0    0 -0.72485515870E+02  0.60274569703E+02  0.18516945898E+02  0.13286199732E+03  0.91772867908E+02 0.  0.
        -11    1    4    4    0    0 -0.35484457943E+02 -0.19663994736E+02  0.18945233167E+02  0.44774337563E+02  0.00000000000E+00 0.  1.
         11    1    4    4    0    0 -0.37001057927E+02  0.79938564439E+02 -0.42828726873E+00  0.88087659761E+02  0.00000000000E+00 0. -1.
        -11    1    3    3    0    0  0.10596910801E+03 -0.10995138941E+03 -0.85441744058E+03  0.86795617554E+03  0.00000000000E+00 0.  1.
         11    1    3    3    0    0  0.15294179282E+02  0.18230955595E+02 -0.10307840280E+03  0.10578958732E+03  0.00000000000E+00 0. -1.
         21    1    1    2  503  501 -0.12444596598E+02  0.20452400650E+02 -0.13705267649E+03  0.13912801590E+03  0.00000000000E+00 0. -1.
         -3    1    1    2    0  502 -0.36333174824E+02  0.10993463463E+02  0.83691939225E+01  0.38871573658E+02  0.00000000000E+00 0.  1.
<scales pt_clust_5="13000.00000" pt_clust_6="13000.00000" pt_clust_7="13000.00000" pt_clust_8="13000.00000" pt_clust_9="23.94094" pt_clust_10="38.22267"></scales>
<clustering>
<clus scale="   23.941">  2  9  1 -1</clus>
<clus scale="   38.223">  1 10  2 -1</clus>
<clus scale="   90.913">  7  8 -1 -1</clus>
<clus scale="   91.773">  5  6 -1 -1</clus>
<clus scale="  157.210">  2  7  1 -1</clus>
<clus scale="   38.223">  1  5  2 -1</clus>
</clustering>
</event>
<event>
10    2  0.3984345E-006  0.1078804E+03  0.7546771E-02  0.1265111E+00
         21   -1    0    0  501  502  0.00000000000E+00  0.00000000000E+00  0.15305105670E+03  0.15305105670E+03  0.00000000000E+00 0.  1.
          1   -1    0    0  503    0 -0.00000000000E+00 -0.00000000000E+00 -0.15941988438E+03  0.15941988438E+03  0.00000000000E+00 0. -1.
         23    2    1    2    0    0 -0.55137160207E+02 -0.54332733418E+02 -0.38513292839E+02  0.12623764862E+03  0.91981073308E+02 0.  0.
         23    2    1    2    0    0 -0.53271839361E+01  0.42612490715E+02  0.14461353446E+02  0.10129357788E+03  0.90592797297E+02 0.  0.
        -11    1    4    4    0    0  0.14548385083E+02 -0.24943481634E+02  0.10629118763E+02  0.30770293307E+02  0.00000000000E+00 0. -1.
         11    1    4    4    0    0 -0.19875569019E+02  0.67555972349E+02  0.38322346830E+01  0.70523284570E+02  0.00000000000E+00 0.  1.
        -11    1    3    3    0    0  0.25167797990E+02 -0.21825456186E+02 -0.69375406986E+01  0.34027901263E+02  0.00000000000E+00 0. -1.
         11    1    3    3    0    0 -0.80304958197E+02 -0.32507277233E+02 -0.31575752140E+02  0.92209747355E+02  0.00000000000E+00 0.  1.
         21    1    1    2  503  502  0.25577090209E+02 -0.10002622685E+02 -0.16016090686E+02  0.31792375894E+02  0.00000000000E+00 0. -1.
          1    1    1    2  501    0  0.34887253934E+02  0.21722865388E+02  0.33699202402E+02  0.53147338694E+02  0.00000000000E+00 0. -1.
<scales pt_clust_5="13000.00000" pt_clust_6="13000.00000" pt_clust_7="13000.00000" pt_clust_8="13000.00000" pt_clust_9="27.46343" pt_clust_10="42.30558"></scales>
<clustering>
<clus scale="   27.463">  2  9  1 -1</clus>
<clus scale="   42.306">  1 10  2 -1</clus>
<clus scale="   90.593">  5  6 -1 -1</clus>
<clus scale="   91.981">  7  8 -1 -1</clus>
<clus scale="  106.699">  1  5  2 -1</clus>
<clus scale="   42.306">  1  5  2 -1</clus>
</clustering>
</event>
<event>
10    2  0.3984345E-006  0.1641862E+03  0.7546771E-02  0.1201856E+00
         21   -1    0    0  501  502  0.00000000000E+00  0.00000000000E+00  0.24480820538E+03  0.24480820538E+03  0.00000000000E+00 0. -1.
          1   -1    0    0  503    0 -0.00000000000E+00 -0.00000000000E+00 -0.50382259047E+03  0.50382259047E+03  0.00000000000E+00 0. -1.
         23    2    1    2    0    0 -0.59893012808E+02 -0.44818416953E+02 -0.10382676442E+03  0.15735478033E+03  0.91567824045E+02 0.  0.
         23    2    1    2    0    0  0.14065753774E+02  0.12929048091E+03 -0.27564640361E+01  0.15894544919E+03  0.91335556278E+02 0.  0.
        -11    1    4    4    0    0  0.21210293815E+02  0.43829738892E+02 -0.42308491384E+02  0.64505278995E+02  0.00000000000E+00 0.  1.
         11    1    4    4    0    0 -0.71445400408E+01  0.85460742021E+02  0.39552027348E+02  0.94440170196E+02  0.00000000000E+00 0. -1.
        -13    1    3    3    0    0 -0.35414794831E+02  0.16183395221E+02 -0.58527833732E+01  0.39374675199E+02  0.00000000000E+00 0. -1.
         13    1    3    3    0    0 -0.24478217977E+02 -0.61001812175E+02 -0.97973981044E+02  0.11798010513E+03  0.00000000000E+00 0.  1.
         21    1    1    2  503  502 -0.45892494574E+00  0.51269994777E+02 -0.25237125894E+03  0.25752684388E+03  0.00000000000E+00 0. -1.
          1    1    1    2  501    0  0.46286183980E+02 -0.13574205874E+03  0.99940102302E+02  0.17480372246E+03  0.00000000000E+00 0. -1.
<scales pt_clust_5="13000.00000" pt_clust_6="13000.00000" pt_clust_7="13000.00000" pt_clust_8="13000.00000" pt_clust_9="51.27205" pt_clust_10="136.43657"></scales>
<clustering>
<clus scale="   51.272">  2  9  1 -1</clus>
<clus scale="   91.336">  5  6 -1 -1</clus>
<clus scale="   91.568">  7  8 -1 -1</clus>
<clus scale="  111.003">  2  7  1 -1</clus>
<clus scale="  136.437">  1 10  2 -1</clus>
<clus scale="  136.437">  1  5  2 -1</clus>
</clustering>
</event>
<event>
10    2  0.3984345E-006  0.1113090E+03  0.7546771E-02  0.1258886E+00
         21   -1    0    0  501  502  0.00000000000E+00  0.00000000000E+00  0.60201390627E+02  0.60201390627E+02  0.00000000000E+00 0. -1.
          1   -1    0    0  503    0 -0.00000000000E+00 -0.00000000000E+00 -0.92614683111E+03  0.92614683111E+03  0.00000000000E+00 0. -1.
         23    2    1    2    0    0 -0.48087781598E+02  0.56858882028E+02 -0.35353100853E+03  0.37300181640E+03  0.92740572781E+02 0.  0.
         23    2    1    2    0    0  0.69948279040E+02  0.22624898650E+02 -0.13560556018E+03  0.17953417667E+03  0.91864056402E+02 0.  0.
        -13    1    4    4    0    0  0.92671406327E+02  0.16550237213E+02 -0.10833699197E+03  0.14352283349E+03  0.00000000000E+00 0. -1.
         13    1    4    4    0    0 -0.22723127286E+02  0.60746614378E+01 -0.27268568212E+02  0.36011343180E+02  0.00000000000E+00 0.  1.
        -13    1    3    3    0    0 -0.13517495601E+02  0.63351247551E+02 -0.31164239388E+03  0.31830344785E+03  0.00000000000E+00 0. -1.
         13    1    3    3    0    0 -0.34570285997E+02 -0.64923655239E+01 -0.41888614654E+02  0.54698368547E+02  0.00000000000E+00 0.  1.
         21    1    1    2  503  502  0.33885631295E+02  0.27011055943E+02 -0.26861546649E+03  0.27208840840E+03  0.00000000000E+00 0.  1.
          1    1    1    2  501    0 -0.55746128736E+02 -0.10649483662E+03 -0.10819340528E+03  0.16172382027E+03  0.00000000000E+00 0. -1.
<scales pt_clust_5="13000.00000" pt_clust_6="13000.00000" pt_clust_7="13000.00000" pt_clust_8="13000.00000" pt_clust_9="43.33397" pt_clust_10="112.10207"></scales>
<clustering>
<clus scale="   43.334">  2  9  1 -1</clus>
<clus scale="   91.864">  5  6 -1 -1</clus>
<clus scale="   92.741">  7  8 -1 -1</clus>
<clus scale="  112.102">  1 10  2 -1</clus>
<clus scale="  112.102">  1  5  2 -1</clus>
<clus scale="  111.309">  1  5  2 -1</clus>
</clustering>
</event>
<event>
10    2  0.3984345E-006  0.1128477E+03  0.7546771E-02  0.1255444E+00
         21   -1    0    0  501  502  0.00000000000E+00  0.00000000000E+00  0.26643503406E+03  0.26643503406E+03  0.00000000000E+00 0.  1.
          4   -1    0    0  503    0 -0.00000000000E+00 -0.00000000000E+00 -0.28486693881E+03  0.28486693881E+03  0.00000000000E+00 0. -1.
         23    2    1    2    0    0 -0.49371071390E+02 -0.73483202059E+02 -0.18942134389E+03  0.22808117869E+03  0.91122416986E+02 0.  0.
         23    2    1    2    0    0  0.43200973630E+02  0.30212807818E+02  0.32501413504E+02  0.11030971644E+03  0.91283918535E+02 0.  0.
        -11    1    3    3    0    0  0.88178752522E+01 -0.66150985666E+02 -0.11900042470E+03  0.13643609826E+03  0.00000000000E+00 0. -1.
         11    1    3    3    0    0 -0.58188946642E+02 -0.73322163930E+01 -0.70420919188E+02  0.91645080434E+02  0.00000000000E+00 0.  1.
        -13    1    4    4    0    0 -0.26227072638E+02  0.35992648645E+01  0.23525875301E+02  0.35415827753E+02  0.00000000000E+00 0.  1.
         13    1    4    4    0    0  0.69428046268E+02  0.26613542953E+02  0.89755382028E+01  0.74893888691E+02  0.00000000000E+00 0. -1.
         21    1    1    2  503  502  0.83495689343E+01  0.21847007040E+02 -0.32794564396E+02  0.40280149850E+02  0.00000000000E+00 0. -1.
          4    1    1    2  501    0 -0.21794711751E+01  0.21423387201E+02  0.17128259003E+03  0.17263092788E+03  0.00000000000E+00 0. -1.
<scales pt_clust_5="13000.00000" pt_clust_6="13000.00000" pt_clust_7="13000.00000" pt_clust_8="13000.00000" pt_clust_9="24.15317" pt_clust_10="21.53396"></scales>
<clustering>
<clus scale="   21.534">  1 10  2 -1</clus>
<clus scale="   24.153">  2  9  1 -1</clus>
<clus scale="   91.122">  5  6 -1 -1</clus>
<clus scale="   91.284">  7  8 -1 -1</clus>
<clus scale="  112.717">  2  5  1 -1</clus>
<clus scale="   21.534">  1  5  2 -1</clus>
</clustering>
</event>
<event>
10    2  0.3984345E-006  0.1636403E+03  0.7546771E-02  0.1208513E+00
         21   -1    0    0  501  502  0.00000000000E+00  0.00000000000E+00  0.48272244238E+03  0.48272244238E+03  0.00000000000E+00 0. -1.
          1   -1    0    0  503    0 -0.00000000000E+00 -0.00000000000E+00 -0.44830693969E+03  0.44830693969E+03  0.00000000000E+00 0. -1.
         23    2    1    2    0    0  0.63230521748E+01 -0.27216123375E+02 -0.22692064426E+02  0.93350393793E+02  0.86131689134E+02 0.  0.
         23    2    1    2    0    0  0.17241268652E+03 -0.19511156553E+02  0.13473403914E+02  0.19671535545E+03  0.91698302900E+02 0.  0.
        -11    1    4    4    0    0  0.88726366030E+02 -0.48986170319E+02 -0.17275852454E+02  0.10281278126E+03  0.00000000000E+00 0. -1.
         11    1    4    4    0    0  0.83686320488E+02  0.29475013766E+02  0.30749256368E+02  0.93902574196E+02  0.00000000000E+00 0.  1.
        -13    1    3    3    0    0  0.16934248176E+02  0.17172254142E+02 -0.38176215489E+02  0.45156156863E+02  0.00000000000E+00 0.  1.
         13    1    3    3    0    0 -0.10611196001E+02 -0.44388377517E+02  0.15484151063E+02  0.48194236930E+02  0.00000000000E+00 0. -1.
         21    1    1    2  503  502 -0.74426404691E+02 -0.36274257269E+02 -0.27945117018E+03  0.29145851844E+03  0.00000000000E+00 0. -1.
          1    1    1    2  501    0 -0.10430933400E+03  0.83001537197E+02  0.32308533338E+03  0.34950511439E+03  0.00000000000E+00 0. -1.
<scales pt_clust_5="13000.00000" pt_clust_6="13000.00000" pt_clust_7="13000.00000" pt_clust_8="13000.00000" pt_clust_9="82.79560" pt_clust_10="135.53436"></scales>
<clustering>
<clus scale="   82.796">  2  9  1 -1</clus>
<clus scale="   86.132">  7  8 -1 -1</clus>
<clus scale="   91.698">  5  6 -1 -1</clus>
<clus scale="   97.148">  2  7  1 -1</clus>
<clus scale="  135.534">  1 10  2 -1</clus>
<clus scale="  135.534">  1  5  2 -1</clus>
</clustering>
</event>
<event>
10    2  0.3984345E-006  0.1046812E+03  0.7546771E-02  0.1271224E+00
         21   -1    0    0  503  502  0.00000000000E+00  0.00000000000E+00  0.13990168063E+03  0.13990168063E+03  0.00000000000E+00 0.  1.
         -4   -1    0    0    0  501 -0.00000000000E+00 -0.00000000000E+00 -0.39352175047E+03  0.39352175047E+03  0.00000000000E+00 0.  1.
         23    2    1    2    0    0  0.24135133492E+02 -0.66347417077E+02 -0.11122481284E+03  0.16087329190E+03  0.92329695301E+02 0.  0.
         23    2    1    2    0    0 -0.61787043407E+02 -0.39780677049E+02 -0.53248574355E+02  0.13022921999E+03  0.93402880411E+02 0.  0.
        -11    1    3    3    0    0  0.46736249554E+02 -0.66899772075E+02 -0.11160900155E+03  0.13826216313E+03  0.00000000000E+00 0.  1.
         11    1    3    3    0    0 -0.22601116062E+02  0.55235499845E+00  0.38418871352E+00  0.22611128770E+02  0.00000000000E+00 0. -1.
        -13    1    4    4    0    0 -0.12576704105E+02  0.17888335574E+02 -0.49742515270E+02  0.54336763440E+02  0.00000000000E+00 0. -1.
         13    1    4    4    0    0 -0.49210339301E+02 -0.57669012623E+02 -0.35060590856E+01  0.75892456551E+02  0.00000000000E+00 0.  1.
         21    1    1    2  503  501  0.16872477570E+02  0.11990809136E+02 -0.13428669669E+03  0.13587264961E+03  0.00000000000E+00 0.  1.
         -4    1    1    2    0  502  0.20779432345E+02  0.94137284989E+02  0.45140014045E+02  0.10644826960E+03  0.00000000000E+00 0.  1.
<scales pt_clust_5="13000.00000" pt_clust_6="13000.00000" pt_clust_7="13000.00000" pt_clust_8="13000.00000" pt_clust_9="20.69928" pt_clust_10="98.23739"></scales>
<clustering>
<clus scale="   20.699">  2  9  1 -1</clus>
<clus scale="   92.330">  5  6 -1 -1</clus>
<clus scale="   93.403">  7  8 -1 -1</clus>
<clus scale="   98.237">  1 10  2 -1</clus>
<clus scale="  103.725">  2  5  1 -1</clus>
<clus scale="   98.237">  1  5  2 -1</clus>
</clustering>
</event>
<event>
10    2  0.3984345E-006  0.1733258E+03  0.7546771E-02  0.1174450E+00
         21   -1    0    0  501  502  0.00000000000E+00  0.00000000000E+00  0.22085927762E+03  0.22085927762E+03  0.00000000000E+00 0. -1.
          2   -1    0    0  503    0 -0.00000000000E+00 -0.00000000000E+00 -0.71965339011E+03  0.71965339011E+03  0.00000000000E+00 0. -1.
         23    2    1    2    0    0  0.76248677043E+02 -0.11736393565E+03 -0.40453669735E+03  0.43767294913E+03  0.91211385022E+02 0.  0.
         23    2    1    2    0    0 -0.27081651877E+02  0.17585771059E+03 -0.17704358808E+03  0.26713165444E+03  0.91408634613E+02 0.  0.
        -11    1    4    4    0    0 -0.51404723368E+02  0.73890297990E+02 -0.51972190146E+02  0.10393906999E+03  0.00000000000E+00 0.  1.
         11    1    4    4    0    0  0.24323071491E+02  0.10196741260E+03 -0.12507139793E+03  0.16319258445E+03  0.00000000000E+00 0. -1.
        -13    1    3    3    0    0  0.42673207973E+02 -0.60786516719E+01 -0.58714820161E+02  0.72838058675E+02  0.00000000000E+00 0.  1.
         13    1    3    3    0    0  0.33575469070E+02 -0.11128528398E+03 -0.34582187718E+03  0.36483489046E+03  0.00000000000E+00 0. -1.
         21    1    1    2  503  502 -0.18050580503E+02 -0.51334178046E+02 -0.64851826975E+02  0.84656841154E+02  0.00000000000E+00 0.  1.
          2    1    1    2  501    0 -0.31116444663E+02 -0.71595968938E+01  0.14763799991E+03  0.15105122301E+03  0.00000000000E+00 0. -1.
<scales pt_clust_5="13000.00000" pt_clust_6="13000.00000" pt_clust_7="13000.00000" pt_clust_8="13000.00000" pt_clust_9="56.90253" pt_clust_10="31.92950"></scales>
<clustering>
<clus scale="   31.929">  1 10  2 -1</clus>
<clus scale="   56.903">  1  9  2 -1</clus>
<clus scale="   91.211">  7  8 -1 -1</clus>
<clus scale="   91.409">  5  6 -1 -1</clus>
<clus scale="  173.222">  2  7  1 -1</clus>
<clus scale="   31.929">  1  5  2 -1</clus>
</clustering>
</event>
<event>
10    2  0.3984345E-006  0.1277377E+03  0.7546771E-02  0.1231105E+00
         21   -1    0    0  501  502  0.00000000000E+00  0.00000000000E+00  0.30943088902E+02  0.30943088902E+02  0.00000000000E+00 0.  1.
          2   -1    0    0  503    0 -0.00000000000E+00 -0.00000000000E+00 -0.11955940663E+04  0.11955940663E+04  0.00000000000E+00 0. -1.
         23    2    1    2    0    0 -0.77539994939E+02  0.89354387516E+01 -0.64602715527E+03  0.65700830503E+03  0.90645102788E+02 0.  0.
         23    2    1    2    0    0  0.10804200227E+03 -0.45678874576E+02 -0.42469773963E+03  0.45001565198E+03  0.91576651743E+02 0.  0.
        -11    1    4    4    0    0  0.61541123553E+02 -0.39839017693E+00 -0.32688258504E+03  0.33262545454E+03  0.00000000000E+00 0.  1.
         11    1    4    4    0    0  0.46500878716E+02 -0.45280484400E+02 -0.97815154592E+02  0.11739019745E+03  0.00000000000E+00 0. -1.
        -13    1    3    3    0    0  0.14429913453E+02  0.22415243520E+02 -0.14071362196E+03  0.14321658057E+03  0.00000000000E+00 0.  1.
         13    1    3    3    0    0 -0.91969908392E+02 -0.13479804769E+02 -0.50531353331E+03  0.51379172446E+03  0.00000000000E+00 0. -1.
         21    1    1    2  503  502 -0.83744967688E+01  0.31588023762E+02 -0.90895838996E+02  0.96591868126E+02  0.00000000000E+00 0. -1.
          2    1    1    2  501    0 -0.22127510561E+02  0.51554120628E+01 -0.30302435323E+01  0.22921330089E+02  0.00000000000E+00 0. -1.
<scales pt_clust_5="13000.00000" pt_clust_6="13000.00000" pt_clust_7="13000.00000" pt_clust_8="13000.00000" pt_clust_9="34.23269" pt_clust_10="22.72015"></scales>
<clustering>
<clus scale="   22.720">  1 10  2 -1</clus>
<clus scale="   34.233">  1  9  2 -1</clus>
<clus scale="   90.645">  7  8 -1 -1</clus>
<clus scale="   91.577">  5  6 -1 -1</clus>
<clus scale="  127.071">  2  7  1 -1</clus>
<clus scale="   22.720">  1  5  2 -1</clus>
</clustering>
</event>
<event>
10    2  0.3984345E-006  0.1406617E+03  0.7546771E-02  0.1212666E+00
         21   -1    0    0  503  502  0.00000000000E+00  0.00000000000E+00  0.30176050308E+03  0.30176050308E+03  0.00000000000E+00 0. -1.
         -1   -1    0    0    0  501 -0.00000000000E+00 -0.00000000000E+00 -0.69250163874E+03  0.69250163874E+03  0.00000000000E+00 0.  1.
         23    2    1    2    0    0 -0.81638222193E+02  0.10676394692E+03 -0.73740614119E+02  0.17845626694E+03  0.91354372388E+02 0.  0.
         23    2    1    2    0    0 -0.67422554583E+01 -0.12612180736E+03  0.77026970389E+01  0.15546503034E+03  0.90320960005E+02 0.  0.
        -11    1    4    4    0    0  0.27505298711E+02 -0.23427826138E+02 -0.23137126863E+02  0.42903742660E+02  0.00000000000E+00 0. -1.
         11    1    4    4    0    0 -0.34247554169E+02 -0.10269398122E+03  0.30839823902E+02  0.11256128768E+03  0.00000000000E+00 0.  1.
        -13    1    3    3    0    0 -0.87764034128E+02  0.45868375920E+02 -0.59810563350E+02  0.11568810260E+03  0.00000000000E+00 0.  1.
         13    1    3    3    0    0  0.61258119352E+01  0.60895571005E+02 -0.13930050769E+02  0.62768164337E+02  0.00000000000E+00 0. -1.
         21    1    1    2  503  501  0.75156870347E+02 -0.31947558067E+02 -0.48483858997E+03  0.49166824176E+03  0.00000000000E+00 0.  1.
         -1    1    1    2    0  502  0.13223607304E+02  0.51305418504E+02  0.16013537139E+03  0.16867260278E+03  0.00000000000E+00 0.  1.
<scales pt_clust_5="13000.00000" pt_clust_6="13000.00000" pt_clust_7="13000.00000" pt_clust_8="13000.00000" pt_clust_9="81.47916" pt_clust_10="52.98216"></scales>
<clustering>
<clus scale="   52.982">  1 10  2 -1</clus>
<clus scale="   81.479">  2  9  1 -1</clus>
<clus scale="   90.321">  5  6 -1 -1</clus>
<clus scale="   91.354">  7  8 -1 -1</clus>
<clus scale="  139.993">  1  5  2 -1</clus>
<clus scale="   52.982">  1  5  2 -1</clus>
</clustering>
</event>
<event>
10    2  0.3984345E-006  0.2281835E+03  0.7546771E-02  0.1148088E+00
         21   -1    0    0  501  502  0.00000000000E+00  0.00000000000E+00  0.10334525957E+04  0.10334525957E+04  0.00000000000E+00 0. -1.
          1   -1    0    0  503    0 -0.00000000000E+00 -0.00000000000E+00 -0.18860473250E+03  0.18860473250E+03  0.00000000000E+00 0. -1.
         23    2    1    2    0    0 -0.83347558277E+02  0.69749192138E+02 -0.80522082224E+02  0.16205437070E+03  0.89252720194E+02 0.  0.
         23    2    1    2    0    0  0.22778256885E+03 -0.71193514597E+02  0.80874839150E+03  0.84795581482E+03  0.89452154494E+02 0.  0.
        -11    1    3    3    0    0 -0.75005387157E+02  0.37701211284E+02 -0.94241757720E+02  0.12620894712E+03  0.00000000000E+00 0.  1.
         11    1    3    3    0    0 -0.83421711199E+01  0.32047980854E+02  0.13719675496E+02  0.35845423579E+02  0.00000000000E+00 0. -1.
        -13    1    4    4    0    0  0.19836980593E+03 -0.68271185262E+02  0.77592451543E+03  0.80378503861E+03  0.00000000000E+00 0. -1.
         13    1    4    4    0    0  0.29412762919E+02 -0.29223293355E+01  0.32823876072E+02  0.44170776218E+02  0.00000000000E+00 0.  1.
         21    1    1    2  503  502  0.11289781246E+01 -0.27592761141E+02  0.27193439760E+02  0.38757169981E+02  0.00000000000E+00 0.  1.
          1    1    1    2  501    0 -0.14556398870E+03  0.29037083600E+02  0.89428114154E+02  0.17328997268E+03  0.00000000000E+00 0. -1.
<scales pt_clust_5="13000.00000" pt_clust_6="13000.00000" pt_clust_7="13000.00000" pt_clust_8="13000.00000" pt_clust_9="27.61585" pt_clust_10="209.91922"></scales>
<clustering>
<clus scale="   27.616">  1  9  2 -1</clus>
<clus scale="   89.253">  5  6 -1 -1</clus>
<clus scale="   89.452">  7  8 -1 -1</clus>
<clus scale="  140.052">  2  5  1 -1</clus>
<clus scale="  209.919">  1 10  2 -1</clus>
<clus scale="   27.616">  1  5  2 -1</clus>
</clustering>
</event>
<event>
10    2  0.3984345E-006  0.1475958E+03  0.7546771E-02  0.1221846E+00
         21   -1    0    0  501  502  0.00000000000E+00  0.00000000000E+00  0.63964489092E+03  0.63964489092E+03  0.00000000000E+00 0. -1.
          1   -1    0    0  503    0 -0.00000000000E+00 -0.00000000000E+00 -0.14719893377E+03  0.14719893377E+03  0.00000000000E+00 0. -1.
         23    2    1    2    0    0  0.30880749330E+02 -0.30886438954E+02 -0.24027707023E+02  0.10283086770E+03  0.89940334983E+02 0.  0.
         23    2    1    2    0    0 -0.86449109913E+02  0.49599014022E+02  0.13039781241E+03  0.19028750662E+03  0.96292444658E+02 0.  0.
        -11    1    3    3    0    0  0.54706637128E+02 -0.13355553617E+02  0.10585742390E+02  0.57299606458E+02  0.00000000000E+00 0.  1.
         11    1    3    3    0    0 -0.23825887798E+02 -0.17530885336E+02 -0.34613449413E+02  0.45531261243E+02  0.00000000000E+00 0. -1.
        -11    1    4    4    0    0 -0.52766161218E+02  0.66225157932E+02  0.42592251429E+02  0.94784699159E+02  0.00000000000E+00 0. -1.
         11    1    4    4    0    0 -0.33682948695E+02 -0.16626143910E+02  0.87805560980E+02  0.95502807462E+02  0.00000000000E+00 0.  1.
         21    1    1    2  503  502  0.11909047477E+03  0.27287247199E+02  0.25617432117E+02  0.12483344051E+03  0.00000000000E+00 0. -1.
          1    1    1    2  501    0 -0.63522114187E+02 -0.45999822267E+02  0.36045841965E+03  0.36889200986E+03  0.00000000000E+00 0. -1.
<scales pt_clust_5="13000.00000" pt_clust_6="13000.00000" pt_clust_7="13000.00000" pt_clust_8="13000.00000" pt_clust_9="111.85834" pt_clust_10="78.42858"></scales>
<clustering>
<clus scale="   78.429">  1 10  2 -1</clus>
<clus scale="   89.940">  5  6 -1 -1</clus>
<clus scale="   96.292">  7  8 -1 -1</clus>
<clus scale="   99.841">  2  5  1 -1</clus>
<clus scale="  111.858">  2  9  1 -1</clus>
<clus scale="   78.429">  1  5  2 -1</clus>
</clustering>
</event>
<event>
10    2  0.3984345E-006  0.9614671E+02  0.7546771E-02  0.1293375E+00
         -1   -1    0    0    0  501 -0.00000000000E+00  0.00000000000E+00  0.51764149229E+03  0.51764149229E+03  0.00000000000E+00 0.  1.
         21   -1    0    0  503  502  0.00000000000E+00 -0.00000000000E+00 -0.54080975870E+02  0.54080975870E+02  0.00000000000E+00 0. -1.
         23    2    1    2    0    0 -0.12814308091E+02 -0.10846303299E+02  0.15252012369E+03  0.17888497441E+03  0.91954321003E+02 0.  0.
         23    2    1    2    0    0 -0.51690632071E+02  0.36549531807E+02  0.15930660832E+03  0.19061537432E+03  0.83353678714E+02 0.  0.
        -13    1    4    4    0    0 -0.55055704050E+01  0.54446909161E+02  0.92037402480E+02  0.10707782533E+03  0.00000000000E+00 0.  1.
         13    1    4    4    0    0 -0.46185061666E+02 -0.17897377354E+02  0.67269205839E+02  0.83537548991E+02  0.00000000000E+00 0. -1.
        -13    1    3    3    0    0  0.27397308626E+02  0.29585434379E+01  0.12554602301E+03  0.12853470112E+03  0.00000000000E+00 0.  1.
         13    1    3    3    0    0 -0.40211616717E+02 -0.13804846737E+02  0.26974100684E+02  0.50350273288E+02  0.00000000000E+00 0. -1.
         21    1    1    2  503  501  0.94855113301E+02 -0.32240794296E+02  0.97892642117E+02  0.14007116304E+03  0.00000000000E+00 0.  1.
         -1    1    1    2    0  502 -0.30350173139E+02  0.65375657878E+01  0.53841142296E+02  0.62150956386E+02  0.00000000000E+00 0.  1.
<scales pt_clust_5="13000.00000" pt_clust_6="13000.00000" pt_clust_7="13000.00000" pt_clust_8="13000.00000" pt_clust_9="87.17082" pt_clust_10="31.04632"></scales>
<clustering>
<clus scale="   31.046">  2 10  1 -1</clus>
<clus scale="   83.354">  5  6 -1 -1</clus>
<clus scale="   87.171">  2  9  1 -1</clus>
<clus scale="   87.957">  2  5  1 -1</clus>
<clus scale="   91.954">  7  8 -1 -1</clus>
<clus scale="   31.046">  2  5  1 -1</clus>
</clustering>
</event>
<event>
10    2  0.3984345E-006  0.1176711E+03  0.7546771E-02  0.1247275E+00
         -1   -1    0    0    0  501 -0.00000000000E+00  0.00000000000E+00  0.12859348511E+03  0.12859348511E+03  0.00000000000E+00 0.  1.
         21   -1    0    0  503  502  0.00000000000E+00 -0.00000000000E+00 -0.32812037464E+03  0.32812037464E+03  0.00000000000E+00 0. -1.
         23    2    1    2    0    0  0.27721032471E+02 -0.20341032767E+02  0.11468794887E+02  0.97263461434E+02  0.90257600337E+02 0.  0.
         23    2    1    2    0    0 -0.17242085894E+02  0.11938288656E+03 -0.92055723049E+02  0.17610359471E+03  0.89379286152E+02 0.  0.
        -11    1    3    3    0    0  0.50495365348E+02  0.12063021123E+02  0.21837406542E+02  0.56322026993E+02  0.00000000000E+00 0.  1.
         11    1    3    3    0    0 -0.22774332876E+02 -0.32404053889E+02 -0.10368611654E+02  0.40941434440E+02  0.00000000000E+00 0. -1.
        -13    1    4    4    0    0  0.34185421416E+02  0.72112303370E+02 -0.56019780959E+02  0.97504067573E+02  0.00000000000E+00 0.  1.
         13    1    4    4    0    0 -0.51427507310E+02  0.47270583195E+02 -0.36035942089E+02  0.78599527136E+02  0.00000000000E+00 0. -1.
         21    1    1    2  503  501 -0.34412249332E+01 -0.69350392235E+02 -0.99245947841E+01  0.70141403706E+02  0.00000000000E+00 0.  1.
         -1    1    1    2    0  502 -0.70377216436E+01 -0.29691461563E+02 -0.10901536659E+03  0.11320539991E+03  0.00000000000E+00 0.  1.
<scales pt_clust_5="13000.00000" pt_clust_6="13000.00000" pt_clust_7="13000.00000" pt_clust_8="13000.00000" pt_clust_9="74.97768" pt_clust_10="30.51413"></scales>
<clustering>
<clus scale="   30.514">  2 10  1 -1</clus>
<clus scale="   74.978">  1  9  2 -1</clus>
<clus scale="   89.379">  7  8 -1 -1</clus>
<clus scale="   90.258">  5  6 -1 -1</clus>
<clus scale="  116.999">  2  7  1 -1</clus>
<clus scale="   30.514">  2  5  1 -1</clus>
</clustering>
</event>
<event>
10    2  0.3984345E-006  0.2107391E+03  0.7546771E-02  0.1152649E+00
         -1   -1    0    0    0  501 -0.00000000000E+00  0.00000000000E+00  0.14717679448E+04  0.14717679448E+04  0.00000000000E+00 0.  1.
         21   -1    0    0  503  502  0.00000000000E+00 -0.00000000000E+00 -0.20249739329E+03  0.20249739329E+03  0.00000000000E+00 0. -1.
         23    2    1    2    0    0  0.33324609921E+02 -0.19472266812E+03  0.54531042247E+03  0.58708862558E+03  0.91006320294E+02 0.  0.
         23    2    1    2    0    0 -0.14172710123E+03  0.24538376601E+02 -0.46085601635E+02  0.17902877874E+03  0.96118248990E+02 0.  0.
        -11    1    3    3    0    0  0.65093432549E+02 -0.13158476875E+03  0.36409236840E+03  0.39257478148E+03  0.00000000000E+00 0.  1.
         11    1    3    3    0    0 -0.31768822628E+02 -0.63137899367E+02  0.18121805407E+03  0.19451384410E+03  0.00000000000E+00 0. -1.
        -11    1    4    4    0    0 -0.83321644675E+02 -0.37514774870E+01  0.20668413752E+02  0.85928769232E+02  0.00000000000E+00 0.  1.
         11    1    4    4    0    0 -0.58405456559E+02  0.28289854088E+02 -0.66754015388E+02  0.93100009509E+02  0.00000000000E+00 0. -1.
         21    1    1    2  503  501  0.88335899089E+02  0.17926897017E+03  0.82504320457E+03  0.84890334205E+03  0.00000000000E+00 0. -1.
         -1    1    1    2    0  502  0.20066592224E+02 -0.90846786530E+01 -0.54997473908E+02  0.59244591703E+02  0.00000000000E+00 0.  1.
<scales pt_clust_5="13000.00000" pt_clust_6="13000.00000" pt_clust_7="13000.00000" pt_clust_8="13000.00000" pt_clust_9="190.07584" pt_clust_10="22.02724"></scales>
<clustering>
<clus scale="   22.027">  2 10  1 -1</clus>
<clus scale="   91.006">  5  6 -1 -1</clus>
<clus scale="   96.118">  7  8 -1 -1</clus>
<clus scale="  159.591">  2  7  1 -1</clus>
<clus scale="  190.076">  1  9  2 -1</clus>
<clus scale="   22.027">  2  5  1 -1</clus>
</clustering>
</event>
<event>
10    2  0.3984345E-006  0.9613326E+02  0.7546771E-02  0.1289662E+00
         -1   -1    0    0    0  501 -0.00000000000E+00  0.00000000000E+00  0.14691828750E+03  0.14691828750E+03  0.00000000000E+00 0.  1.
         21   -1    0    0  503  502  0.00000000000E+00 -0.00000000000E+00 -0.13840551907E+03  0.13840551907E+03  0.00000000000E+00 0. -1.
         23    2    1    2    0    0 -0.24633754787E+02  0.29687829405E+02 -0.27471455537E+02  0.10299054214E+03  0.91455900911E+02 0.  0.
         23    2    1    2    0    0  0.12347039748E+02 -0.16955478726E+02 -0.33240440463E+02  0.97788694118E+02  0.89541968740E+02 0.  0.
        -11    1    4    4    0    0  0.43802435439E+02 -0.24297727799E+01  0.72857800338E+01  0.44470661530E+02  0.00000000000E+00 0.  1.
         11    1    4    4    0    0 -0.31455395691E+02 -0.14525705946E+02 -0.40526220497E+02  0.53318032588E+02  0.00000000000E+00 0. -1.
        -13    1    3    3    0    0  0.32059367661E+02  0.12596042635E+02 -0.27015024020E+02  0.43775276900E+02  0.00000000000E+00 0.  1.
         13    1    3    3    0    0 -0.56693122447E+02  0.17091786769E+02 -0.45643151719E+00  0.59215265241E+02  0.00000000000E+00 0. -1.
         21    1    1    2  503  501  0.24523058970E+02  0.65825512583E+01  0.40931894174E+02  0.48167731554E+02  0.00000000000E+00 0.  1.
         -1    1    1    2    0  502 -0.12236343932E+02 -0.19314901937E+02  0.28292770248E+02  0.36376838757E+02  0.00000000000E+00 0.  1.
<scales pt_clust_5="13000.00000" pt_clust_6="13000.00000" pt_clust_7="13000.00000" pt_clust_8="13000.00000" pt_clust_9="24.94159" pt_clust_10="22.86469"></scales>
<clustering>
<clus scale="   22.865">  2 10  1 -1</clus>
<clus scale="   24.942">  1  9  2 -1</clus>
<clus scale="   89.542">  5  6 -1 -1</clus>
<clus scale="   91.456">  7  8 -1 -1</clus>
<clus scale="   94.314">  2  5  1 -1</clus>
<clus scale="   22.865">  2  5  1 -1</clus>
</clustering>
</event>
<event>
10    2  0.3984345E-006  0.1894440E+03  0.7546771E-02  0.1180455E+00
          2   -1    0    0  503    0 -0.00000000000E+00  0.00000000000E+00  0.68041380600E+03  0.68041380600E+03  0.00000000000E+00 0. -1.
         21   -1    0    0  501  502  0.00000000000E+00 -0.00000000000E+00 -0.17673038835E+03  0.17673038835E+03  0.00000000000E+00 0.  1.
         23    2    1    2    0    0 -0.10025934762E+03  0.17151248933E+03  0.11466906198E+03  0.24580607845E+03  0.88335517482E+02 0.  0.
         23    2    1    2    0    0 -0.48514069230E+02 -0.52191806451E+02  0.91725712949E+02  0.14829701454E+03  0.92199775120E+02 0.  0.
        -11    1    4    4    0    0  0.27479816663E+02 -0.92508798537E+01  0.27124265695E+02  0.39704469413E+02  0.00000000000E+00 0. -1.
         11    1    4    4    0    0 -0.75993885893E+02 -0.42940926598E+02  0.64601447254E+02  0.10859254513E+03  0.00000000000E+00 0.  1.
        -13    1    3    3    0    0 -0.61926037473E+02  0.55365273591E+02  0.78843474143E+01  0.83440461234E+02  0.00000000000E+00 0.  1.
         13    1    3    3    0    0 -0.38333310149E+02  0.11614721574E+03  0.10678471456E+03  0.16236561722E+03  0.00000000000E+00 0. -1.
         21    1    1    2  503  502  0.12370272639E+03 -0.10410794031E+03  0.35954428025E+03  0.39422445030E+03  0.00000000000E+00 0. -1.
          2    1    1    2  501    0  0.25070690465E+02 -0.15212742571E+02 -0.62255637535E+02  0.68816651050E+02  0.00000000000E+00 0. -1.
<scales pt_clust_5="13000.00000" pt_clust_6="13000.00000" pt_clust_7="13000.00000" pt_clust_8="13000.00000" pt_clust_9="167.58838" pt_clust_10="29.32519"></scales>
<clustering>
<clus scale="   29.325">  2 10  1 -1</clus>
<clus scale="   88.336">  7  8 -1 -1</clus>
<clus scale="   92.200">  5  6 -1 -1</clus>
<clus scale="  115.841">  2  5  1 -1</clus>
<clus scale="  167.588">  1  9  2 -1</clus>
<clus scale="   29.325">  2  5  1 -1</clus>
</clustering>
</event>
<event>
10    2  0.3984345E-006  0.1714006E+03  0.7546771E-02  0.1199802E+00
         21   -1    0    0  503  502  0.00000000000E+00  0.00000000000E+00  0.15058471842E+03  0.15058471842E+03  0.00000000000E+00 0. -1.
         -1   -1    0    0    0  501 -0.00000000000E+00 -0.00000000000E+00 -0.67111148041E+03  0.67111148041E+03  0.00000000000E+00 0.  1.
         23    2    1    2    0    0  0.61302869136E+02  0.95076533050E+02 -0.20237366863E+03  0.24918229530E+03  0.91318813133E+02 0.  0.
         23    2    1    2    0    0  0.14493586119E+02 -0.39496978566E+02 -0.54542237709E+02  0.11914071906E+03  0.97208949632E+02 0.  0.
        -11    1    3    3    0    0  0.29657037247E+02  0.95986955912E+02 -0.19050413382E+03  0.21537144789E+03  0.00000000000E+00 0.  1.
         11    1    3    3    0    0  0.31645831890E+02 -0.91042286151E+00 -0.11869534814E+02  0.33810847408E+02  0.00000000000E+00 0. -1.
        -13    1    4    4    0    0 -0.40496451119E+02 -0.13526776990E+02 -0.35168809256E+02  0.55315290775E+02  0.00000000000E+00 0. -1.
         13    1    4    4    0    0  0.54990037238E+02 -0.25970201576E+02 -0.19373428453E+02  0.63825428282E+02  0.00000000000E+00 0.  1.
         21    1    1    2  503  501 -0.11469340806E+03 -0.13686414387E+03 -0.30560989685E+03  0.35395448970E+03  0.00000000000E+00 0. -1.
         -1    1    1    2    0  502  0.38896952801E+02  0.81284589387E+02  0.41999041202E+02  0.99418694776E+02  0.00000000000E+00 0.  1.
<scales pt_clust_5="13000.00000" pt_clust_6="13000.00000" pt_clust_7="13000.00000" pt_clust_8="13000.00000" pt_clust_9="145.04836" pt_clust_10="90.11192"></scales>
<clustering>
<clus scale="   90.112">  1 10  2 -1</clus>
<clus scale="   91.319">  5  6 -1 -1</clus>
<clus scale="   97.209">  7  8 -1 -1</clus>
<clus scale="  102.014">  1  7  2 -1</clus>
<clus scale="  145.048">  1  9  2 -1</clus>
<clus scale="   90.112">  1  5  2 -1</clus>
</clustering>
</event>
<event>
10    2  0.6057215E-006  0.1081203E+03  0.7546771E-02  0.1270390E+00
          3   -1    0    0  503    0 -0.00000000000E+00  0.00000000000E+00  0.61694720699E+03  0.61694720699E+03  0.00000000000E+00 0. -1.
         21   -1    0    0  501  502  0.00000000000E+00 -0.00000000000E+00 -0.27647889078E+03  0.27647889078E+03  0.00000000000E+00 0. -1.
         23    2    1    2    0    0 -0.23801034123E+02  0.65236706011E+01  0.34659811969E+03  0.35979126238E+03  0.93329783058E+02 0.  0.
         23    2    1    2    0    0 -0.35034096678E+02  0.61429234928E+02  0.84854016602E+02  0.15313121364E+03  0.10605670947E+03 0.  0.
        -11    1    4    4    0    0 -0.71191046798E-01 -0.29289853295E+02  0.27915330927E+02  0.40461911411E+02  0.00000000000E+00 0.  1.
         11    1    4    4    0    0 -0.34962905631E+02  0.90719088223E+02  0.56938685675E+02  0.11266930223E+03  0.00000000000E+00 0. -1.
        -13    1    3    3    0    0  0.10736290951E+02 -0.38168917021E+02  0.15941962217E+03  0.16427644415E+03  0.00000000000E+00 0.  1.
         13    1    3    3    0    0 -0.34537325074E+02  0.44692587622E+02  0.18717849752E+03  0.19551481823E+03  0.00000000000E+00 0. -1.
         21    1    1    2  503  502  0.20507094959E+01 -0.20503465094E+02  0.13816992311E+03  0.13969797830E+03  0.00000000000E+00 0. -1.
          3    1    1    2  501    0  0.56784421305E+02 -0.47449440435E+02 -0.22915374319E+03  0.24080564345E+03  0.00000000000E+00 0. -1.
<scales pt_clust_5="13000.00000" pt_clust_6="13000.00000" pt_clust_7="13000.00000" pt_clust_8="13000.00000" pt_clust_9="20.60576" pt_clust_10="74.17908"></scales>
<clustering>
<clus scale="   20.606">  1  9  2 -1</clus>
<clus scale="   74.179">  2 10  1 -1</clus>
<clus scale="   93.330">  7  8 -1 -1</clus>
<clus scale="   95.668">  1  7  2 -1</clus>
<clus scale="  106.057">  5  6 -1 -1</clus>
<clus scale="   74.179">  2  5  1 -1</clus>
</clustering>
</event>
<event>
10    2  0.3984345E-006  0.2465588E+03  0.7546771E-02  0.1115546E+00
         21   -1    0    0  501  502  0.00000000000E+00  0.00000000000E+00  0.13454930732E+03  0.13454930732E+03  0.00000000000E+00 0. -1.
          2   -1    0    0  503    0 -0.00000000000E+00 -0.00000000000E+00 -0.89294824239E+03  0.89294824239E+03  0.00000000000E+00 0. -1.
         23    2    1    2    0    0  0.16179029713E+03  0.14078422188E+03 -0.41271596231E+03  0.47419415380E+03  0.92354385778E+02 0.  0.
         23    2    1    2    0    0 -0.16833722427E+03 -0.19639717114E+03 -0.24399955596E+03  0.36719493886E+03  0.91580947296E+02 0.  0.
        -13    1    3    3    0    0  0.10271922781E+03  0.30253513894E+02 -0.16739383986E+03  0.19871389606E+03  0.00000000000E+00 0. -1.
         13    1    3    3    0    0  0.59071069325E+02  0.11053070798E+03 -0.24532212246E+03  0.27548025774E+03  0.00000000000E+00 0.  1.
        -13    1    4    4    0    0 -0.30337053931E+02  0.43884355000E+01 -0.30654298651E+02  0.43350677424E+02  0.00000000000E+00 0.  1.
         13    1    4    4    0    0 -0.13800017033E+03 -0.20078560664E+03 -0.21334525731E+03  0.32384426143E+03  0.00000000000E+00 0. -1.
         21    1    1    2  503  502 -0.41863771553E+02 -0.31337239941E+02 -0.55954162351E+02  0.76586332071E+02  0.00000000000E+00 0. -1.
          2    1    1    2  501    0  0.48410698686E+02  0.86950189204E+02 -0.45729254450E+02  0.10952212499E+03  0.00000000000E+00 0. -1.
<scales pt_clust_5="13000.00000" pt_clust_6="13000.00000" pt_clust_7="13000.00000" pt_clust_8="13000.00000" pt_clust_9="52.29338" pt_clust_10="87.43206"></scales>
<clustering>
<clus scale="   52.293">  1  9  2 -1</clus>
<clus scale="   87.432">  1 10  2 -1</clus>
<clus scale="   91.581">  7  8 -1 -1</clus>
<clus scale="   92.354">  5  6 -1 -1</clus>
<clus scale="  246.270">  1  7  2 -1</clus>
<clus scale="   52.293">  1  5  2 -1</clus>
</clustering>
</event>
<event>
10    2  0.3984345E-006  0.1086311E+03  0.7546771E-02  0.1265528E+00
         21   -1    0    0  501  502  0.00000000000E+00  0.00000000000E+00  0.53331067331E+03  0.53331067331E+03  0.00000000000E+00 0. -1.
          1   -1    0    0  503    0 -0.00000000000E+00 -0.00000000000E+00 -0.24623239703E+03  0.24623239703E+03  0.00000000000E+00 0. -1.
         23    2    1    2    0    0  0.31295581310E+02 -0.27664614468E+02 -0.48889216771E+02  0.11262147337E+03  0.92459160951E+02 0.  0.
         23    2    1    2    0    0 -0.32105003804E+02  0.66349265147E+02  0.43053520983E+03  0.44529328227E+03  0.86559713948E+02 0.  0.
        -13    1    4    4    0    0 -0.40974106533E+02 -0.90679440206E+00  0.22922765246E+03  0.23286265551E+03  0.00000000000E+00 0.  1.
         13    1    4    4    0    0  0.88691027295E+01  0.67256059549E+02  0.20130755737E+03  0.21243062675E+03  0.00000000000E+00 0. -1.
        -13    1    3    3    0    0  0.39363377301E+02 -0.52642048651E+02 -0.11178923146E+02  0.66675550852E+02  0.00000000000E+00 0. -1.
         13    1    3    3    0    0 -0.80677959902E+01  0.24977434183E+02 -0.37710293625E+02  0.45945922515E+02  0.00000000000E+00 0.  1.
         21    1    1    2  503  502  0.25291876051E+02  0.52658984653E+01 -0.14683034918E+03  0.14908574755E+03  0.00000000000E+00 0. -1.
          1    1    1    2  501    0 -0.24482453558E+02 -0.43950549144E+02  0.52262632418E+02  0.72542567155E+02  0.00000000000E+00 0. -1.
<scales pt_clust_5="13000.00000" pt_clust_6="13000.00000" pt_clust_7="13000.00000" pt_clust_8="13000.00000" pt_clust_9="25.83425" pt_clust_10="48.60666"></scales>
<clustering>
<clus scale="   25.834">  2  9  1 -1</clus>
<clus scale="   48.607">  1 10  2 -1</clus>
<clus scale="   86.560">  5  6 -1 -1</clus>
<clus scale="   92.459">  7  8 -1 -1</clus>
<clus scale="  103.656">  1  5  2 -1</clus>
<clus scale="   48.607">  1  5  2 -1</clus>
</clustering>
</event>
<event>
10    2  0.3984345E-006  0.1178067E+03  0.7546771E-02  0.1247008E+00
         21   -1    0    0  501  502  0.00000000000E+00  0.00000000000E+00  0.42569160314E+03  0.42569160314E+03  0.00000000000E+00 0. -1.
          2   -1    0    0  503    0 -0.00000000000E+00 -0.00000000000E+00 -0.64071507757E+03  0.64071507757E+03  0.00000000000E+00 0. -1.
         23    2    1    2    0    0 -0.40976737672E+02 -0.53285467873E+02 -0.47282459686E+03  0.48609079722E+03  0.90568921986E+02 0.  0.
         23    2    1    2    0    0  0.10426790206E+02  0.11970836248E+03  0.13323078140E+03  0.20063487584E+03  0.89805914558E+02 0.  0.
        -11    1    4    4    0    0  0.26179205669E+02  0.51680290768E+02  0.11452619297E+03  0.12834505109E+03  0.00000000000E+00 0.  1.
         11    1    4    4    0    0 -0.15752415463E+02  0.68028071716E+02  0.18704588429E+02  0.72289824751E+02  0.00000000000E+00 0. -1.
        -13    1    3    3    0    0 -0.67076332944E+02 -0.27484178319E+02 -0.25127158755E+03  0.26151868998E+03  0.00000000000E+00 0.  1.
         13    1    3    3    0    0  0.26099595272E+02 -0.25801289554E+02 -0.22155300931E+03  0.22457210724E+03  0.00000000000E+00 0. -1.
         21    1    1    2  503  502  0.32693847165E+02 -0.19897369899E+02 -0.12245846616E+03  0.12829991780E+03  0.00000000000E+00 0. -1.
          2    1    1    2  501    0 -0.21438996994E+01 -0.46525524712E+02  0.24702880718E+03  0.25138108985E+03  0.00000000000E+00 0. -1.
<scales pt_clust_5="13000.00000" pt_clust_6="13000.00000" pt_clust_7="13000.00000" pt_clust_8="13000.00000" pt_clust_9="38.27261" pt_clust_10="46.65269"></scales>
<clustering>
<clus scale="   38.273">  2  9  1 -1</clus>
<clus scale="   46.653">  1 10  2 -1</clus>
<clus scale="   89.806">  5  6 -1 -1</clus>
<clus scale="   90.569">  7  8 -1 -1</clus>
<clus scale="  117.221">  1  5  2 -1</clus>
<clus scale="   46.653">  1  5  2 -1</clus>
</clustering>
</event>
<event>
10    2  0.3984345E-006  0.1088541E+03  0.7546771E-02  0.1263855E+00
         -2   -1    0    0    0  501 -0.00000000000E+00  0.00000000000E+00  0.36253860915E+03  0.36253860915E+03  0.00000000000E+00 0.  1.
         21   -1    0    0  503  502  0.00000000000E+00 -0.00000000000E+00 -0.13751653875E+03  0.13751653875E+03  0.00000000000E+00 0. -1.
         23    2    1    2    0    0 -0.51082979993E+02 -0.52012694961E+01  0.23718244838E+03  0.25806411043E+03  0.87778398372E+02 0.  0.
         23    2    1    2    0    0  0.36238020264E+02  0.31327757241E+02  0.27612774217E+02  0.10621765269E+03  0.90692347839E+02 0.  0.
        -11    1    3    3    0    0 -0.37487457482E+02  0.38242220262E+02  0.15672844256E+03  0.16562482177E+03  0.00000000000E+00 0.  1.
         11    1    3    3    0    0 -0.13595522510E+02 -0.43443489758E+02  0.80454005821E+02  0.92439288656E+02  0.00000000000E+00 0. -1.
        -11    1    4    4    0    0  0.35369528068E+02 -0.18835127366E+02 -0.12507076895E+02  0.41978476760E+02  0.00000000000E+00 0. -1.
         11    1    4    4    0    0  0.86849219628E+00  0.50162884607E+02  0.40119851112E+02  0.64239175929E+02  0.00000000000E+00 0.  1.
         21    1    1    2  503  501 -0.22416691396E+02 -0.70059064001E+01  0.39593040420E+02  0.46034765421E+02  0.00000000000E+00 0. -1.
         -2    1    1    2    0  502  0.37261651125E+02 -0.19120581345E+02 -0.79366192617E+02  0.89738619368E+02  0.00000000000E+00 0.  1.
<scales pt_clust_5="13000.00000" pt_clust_6="13000.00000" pt_clust_7="13000.00000" pt_clust_8="13000.00000" pt_clust_9="23.48597" pt_clust_10="41.61034"></scales>
<clustering>
<clus scale="   23.486">  1  9  2 -1</clus>
<clus scale="   41.610">  2 10  1 -1</clus>
<clus scale="   87.778">  5  6 -1 -1</clus>
<clus scale="   90.692">  7  8 -1 -1</clus>
<clus scale="  106.439">  1  5  2 -1</clus>
<clus scale="   41.610">  2  5  1 -1</clus>
</clustering>
</event>
<event>
10    2  0.3984345E-006  0.1874182E+03  0.7546771E-02  0.1160875E+00
         21   -1    0    0  501  502  0.00000000000E+00  0.00000000000E+00  0.16635484357E+03  0.16635484357E+03  0.00000000000E+00 0. -1.
          2   -1    0    0  503    0 -0.00000000000E+00 -0.00000000000E+00 -0.68158293458E+03  0.68158293458E+03  0.00000000000E+00 0. -1.
         23    2    1    2    0    0 -0.30877695626E+02  0.11658840566E+03 -0.34997212672E+03  0.38139599609E+03  0.91848396467E+02 0.  0.
         23    2    1    2    0    0  0.38290155029E+02 -0.20645034898E+03  0.17117998670E+02  0.22959258247E+03  0.91278943256E+02 0.  0.
        -11    1    3    3    0    0  0.11673357125E+02  0.90884514899E+02 -0.28636046971E+03  0.30066356768E+03  0.00000000000E+00 0. -1.
         11    1    3    3    0    0 -0.42551052751E+02  0.25703890761E+02 -0.63611657004E+02  0.80732428412E+02  0.00000000000E+00 0.  1.
        -13    1    4    4    0    0  0.62815646729E+01 -0.36048823707E+02 -0.32828810306E+02  0.49160009475E+02  0.00000000000E+00 0.  1.
         13    1    4    4    0    0  0.32008590356E+02 -0.17040152527E+03  0.49946808976E+02  0.18043257300E+03  0.00000000000E+00 0. -1.
         21    1    1    2  503  502  0.45323535939E+02  0.54790667862E+02 -0.14959810122E+03  0.16563765297E+03  0.00000000000E+00 0.  1.
          2    1    1    2  501    0 -0.52735995342E+02  0.35071275460E+02 -0.32775861746E+02  0.71311546613E+02  0.00000000000E+00 0. -1.
<scales pt_clust_5="13000.00000" pt_clust_6="13000.00000" pt_clust_7="13000.00000" pt_clust_8="13000.00000" pt_clust_9="70.83124" pt_clust_10="63.33308"></scales>
<clustering>
<clus scale="   63.333">  1 10  2 -1</clus>
<clus scale="   70.831">  2  9  1 -1</clus>
<clus scale="   91.279">  7  8 -1 -1</clus>
<clus scale="   91.848">  5  6 -1 -1</clus>
<clus scale="  187.140">  1  7  2 -1</clus>
<clus scale="   63.333">  1  5  2 -1</clus>
</clustering>
</event>
<event>
10    2  0.3984345E-006  0.1378938E+03  0.7546771E-02  0.1216471E+00
          2   -1    0    0  503    0 -0.00000000000E+00  0.00000000000E+00  0.42424983266E+03  0.42424983266E+03  0.00000000000E+00 0. -1.
         21   -1    0    0  501  502  0.00000000000E+00 -0.00000000000E+00 -0.13069781582E+03  0.13069781582E+03  0.00000000000E+00 0.  1.
         23    2    1    2    0    0 -0.22519720228E+02 -0.65172413730E+02  0.16271882319E+03  0.19927085347E+03  0.92069953362E+02 0.  0.
         23    2    1    2    0    0  0.60043912660E+02  0.10966491828E+03 -0.37314650050E+02  0.15898836141E+03  0.90847400666E+02 0.  0.
        -11    1    4    4    0    0 -0.40749185569E+01  0.67166801641E+02 -0.46095742537E+02  0.81564708569E+02  0.00000000000E+00 0.  1.
         11    1    4    4    0    0  0.64118831217E+02  0.42498116636E+02  0.87810924867E+01  0.77423652842E+02  0.00000000000E+00 0. -1.
        -13    1    3    3    0    0 -0.43452732221E+02 -0.96612747155E+00  0.90502158661E+02  0.10039777917E+03  0.00000000000E+00 0.  1.
         13    1    3    3    0    0  0.20933011993E+02 -0.64206286258E+02  0.72216664529E+02  0.98873074302E+02  0.00000000000E+00 0. -1.
         21    1    1    2  503  502 -0.45042444739E+02 -0.23964694705E+02  0.16719495030E+03  0.17480640671E+03  0.00000000000E+00 0. -1.
          2    1    1    2  501    0  0.75182523073E+01 -0.20527809842E+02  0.95289339841E+00  0.21882026883E+02  0.00000000000E+00 0. -1.
<scales pt_clust_5="13000.00000" pt_clust_6="13000.00000" pt_clust_7="13000.00000" pt_clust_8="13000.00000" pt_clust_9="51.12056" pt_clust_10="21.86127"></scales>
<clustering>
<clus scale="   21.861">  2 10  1 -1</clus>
<clus scale="   51.121">  1  9  2 -1</clus>
<clus scale="   90.847">  5  6 -1 -1</clus>
<clus scale="   92.070">  7  8 -1 -1</clus>
<clus scale="  137.081">  2  5  1 -1</clus>
<clus scale="   21.861">  2  5  1 -1</clus>
</clustering>
</event>
<event>
10    2  0.3984345E-006  0.2344520E+03  0.7546771E-02  0.1162538E+00
          2   -1    0    0  503    0 -0.00000000000E+00  0.00000000000E+00  0.83169626168E+03  0.83169626168E+03  0.00000000000E+00 0. -1.
         21   -1    0    0  501  502  0.00000000000E+00 -0.00000000000E+00 -0.50505980535E+03  0.50505980535E+03  0.00000000000E+00 0. -1.
         23    2    1    2    0    0  0.42036236930E+01 -0.16140488282E+02  0.85068358417E+00  0.92174323133E+02  0.90648752713E+02 0.  0.
         23    2    1    2    0    0 -0.21044105786E+03  0.10404437371E+03  0.57588806637E+03  0.62840171794E+03  0.90171966765E+02 0.  0.
        -13    1    4    4    0    0 -0.31004956278E+02  0.18280682090E+02  0.28205875221E+02  0.45728131915E+02  0.00000000000E+00 0.  1.
         13    1    4    4    0    0 -0.17943610159E+03  0.85763691623E+02  0.54768219114E+03  0.58267358602E+03  0.00000000000E+00 0. -1.
        -13    1    3    3    0    0 -0.15888064974E+01  0.27738084552E+02  0.28649652469E+02  0.39908999327E+02  0.00000000000E+00 0.  1.
         13    1    3    3    0    0  0.57924301904E+01 -0.43878572835E+02 -0.27798968885E+02  0.52265323806E+02  0.00000000000E+00 0. -1.
         21    1    1    2  503  502  0.22028606728E+02  0.24193648792E+02  0.15437943911E+03  0.15780875570E+03  0.00000000000E+00 0. -1.
          2    1    1    2  501    0  0.18420882744E+03 -0.11209753422E+03 -0.40448173273E+03  0.45837127026E+03  0.00000000000E+00 0. -1.
<scales pt_clust_5="13000.00000" pt_clust_6="13000.00000" pt_clust_7="13000.00000" pt_clust_8="13000.00000" pt_clust_9="32.71990" pt_clust_10="216.41797"></scales>
<clustering>
<clus scale="   32.720">  1  9  2 -1</clus>
<clus scale="   90.172">  5  6 -1 -1</clus>
<clus scale="   90.649">  7  8 -1 -1</clus>
<clus scale="   91.975">  1  7  2 -1</clus>
<clus scale="  216.418">  2 10  1 -1</clus>
<clus scale="  216.418">  2  5  1 -1</clus>
</clustering>
</event>
<event>
10    2  0.3984345E-006  0.9556663E+02  0.7546771E-02  0.1293030E+00
          3   -1    0    0  503    0 -0.00000000000E+00  0.00000000000E+00  0.19778997109E+03  0.19778997109E+03  0.00000000000E+00 0. -1.
         21   -1    0    0  501  502  0.00000000000E+00 -0.00000000000E+00 -0.11045166917E+03  0.11045166917E+03  0.00000000000E+00 0.  1.
         23    2    1    2    0    0 -0.26627807880E+02 -0.39172728398E+02  0.56350001064E+02  0.11304922523E+03  0.85797796604E+02 0.  0.
         23    2    1    2    0    0 -0.12473429356E+02  0.15628302079E+02  0.11092731030E+02  0.94291430279E+02  0.91476745005E+02 0.  0.
        -13    1    3    3    0    0  0.42472449107E+01 -0.57921587261E+02  0.19040579234E+02  0.61118679777E+02  0.00000000000E+00 0.  1.
         13    1    3    3    0    0 -0.30875052791E+02  0.18748858863E+02  0.37309421831E+02  0.51930545451E+02  0.00000000000E+00 0. -1.
        -13    1    4    4    0    0  0.22720405890E+02  0.33998646285E+02 -0.18394796173E+02  0.44838524945E+02  0.00000000000E+00 0.  1.
         13    1    4    4    0    0 -0.35193835245E+02 -0.18370344206E+02  0.29487527203E+02  0.49452905334E+02  0.00000000000E+00 0. -1.
         21    1    1    2  503  502  0.14814050757E+02  0.16623470422E+02  0.54031034575E+02  0.58439272463E+02  0.00000000000E+00 0.  1.
          3    1    1    2  501    0  0.24287186479E+02  0.69209558974E+01 -0.34135464740E+02  0.42461712290E+02  0.00000000000E+00 0. -1.
<scales pt_clust_5="13000.00000" pt_clust_6="13000.00000" pt_clust_7="13000.00000" pt_clust_8="13000.00000" pt_clust_9="22.26647" pt_clust_10="25.80942"></scales>
<clustering>
<clus scale="   22.266">  1  9  2 -1</clus>
<clus scale="   25.809">  2 10  1 -1</clus>
<clus scale="   85.798">  5  6 -1 -1</clus>
<clus scale="   90.146">  1  5  2 -1</clus>
<clus scale="   91.477">  7  8 -1 -1</clus>
<clus scale="   25.809">  2  5  1 -1</clus>
</clustering>
</event>
<event>
10    2  0.3984345E-006  0.9987554E+02  0.7546771E-02  0.1281015E+00
          4   -1    0    0  503    0 -0.00000000000E+00  0.00000000000E+00  0.11342599954E+03  0.11342599954E+03  0.00000000000E+00 0. -1.
         21   -1    0    0  501  502  0.00000000000E+00 -0.00000000000E+00 -0.24700358772E+03  0.24700358772E+03  0.00000000000E+00 0.  1.
         23    2    1    2    0    0  0.72662154918E+00  0.33112053033E+02  0.35793946381E+02  0.10336366434E+03  0.91136735043E+02 0.  0.
         23    2    1    2    0    0 -0.43944042582E+02 -0.37895658372E+02 -0.60900186317E+02  0.12332903861E+03  0.90189019674E+02 0.  0.
        -13    1    3    3    0    0 -0.16795040757E+02  0.56933356659E+02  0.42545367557E+02  0.73031423340E+02  0.00000000000E+00 0.  1.
         13    1    3    3    0    0  0.17521662306E+02 -0.23821303626E+02 -0.67514211762E+01  0.30332241004E+02  0.00000000000E+00 0. -1.
        -13    1    4    4    0    0 -0.34972642540E+02 -0.88710462611E+01  0.16874772564E+02  0.39831383820E+02  0.00000000000E+00 0. -1.
         13    1    4    4    0    0 -0.89714000424E+01 -0.29024612111E+02 -0.77774958880E+02  0.83497654792E+02  0.00000000000E+00 0.  1.
         21    1    1    2  503  502  0.22812103953E+02 -0.23062924682E+01  0.21013764193E+00  0.22929353012E+02  0.00000000000E+00 0. -1.
          4    1    1    2  501    0  0.20405317080E+02  0.70898978073E+01 -0.10868148589E+03  0.11080753129E+03  0.00000000000E+00 0. -1.
<scales pt_clust_5="13000.00000" pt_clust_6="13000.00000" pt_clust_7="13000.00000" pt_clust_8="13000.00000" pt_clust_9="24.56112" pt_clust_10="21.60194"></scales>
<clustering>
<clus scale="   21.602">  2 10  1 -1</clus>
<clus scale="   24.561">  1  9  2 -1</clus>
<clus scale="   90.189">  7  8 -1 -1</clus>
<clus scale="   91.137">  5  6 -1 -1</clus>
<clus scale="   99.012">  2  7  1 -1</clus>
<clus scale="   21.602">  2  5  1 -1</clus>
</clustering>
</event>
<event>
10    2  0.3984345E-006  0.1772487E+03  0.7546771E-02  0.1170661E+00
         21   -1    0    0  501  502  0.00000000000E+00  0.00000000000E+00  0.70640333876E+02  0.70640333876E+02  0.00000000000E+00 0. -1.
          2   -1    0    0  503    0 -0.00000000000E+00 -0.00000000000E+00 -0.11630882329E+04  0.11630882329E+04  0.00000000000E+00 0. -1.
         23    2    1    2    0    0 -0.13417988809E+03 -0.13221704027E+03 -0.52841574517E+03  0.56824438662E+03  0.90514612539E+02 0.  0.
         23    2    1    2    0    0  0.11552560790E+03  0.44080641205E+02 -0.25732492340E+03  0.29989930291E+03  0.91837937008E+02 0.  0.
        -11    1    3    3    0    0 -0.27884064908E+02 -0.92674122050E+00 -0.25798949701E+02  0.37999549086E+02  0.00000000000E+00 0.  1.
         11    1    3    3    0    0 -0.10629582318E+03 -0.13129029905E+03 -0.50261679547E+03  0.53024483754E+03  0.00000000000E+00 0. -1.
        -13    1    4    4    0    0  0.36460623822E+02 -0.18297545033E+02 -0.13723838054E+03  0.14317314810E+03  0.00000000000E+00 0.  1.
         13    1    4    4    0    0  0.79064984078E+02  0.62378186238E+02 -0.12008654286E+03  0.15672615481E+03  0.00000000000E+00 0. -1.
         21    1    1    2  503  502 -0.20973235265E+00  0.43911554680E+02 -0.31391162341E+03  0.31696809923E+03  0.00000000000E+00 0. -1.
          2    1    1    2  501    0  0.18864012542E+02  0.44224844389E+02  0.72043929109E+01  0.48616778047E+02  0.00000000000E+00 0. -1.
<scales pt_clust_5="13000.00000" pt_clust_6="13000.00000" pt_clust_7="13000.00000" pt_clust_8="13000.00000" pt_clust_9="43.91206" pt_clust_10="49.06650"></scales>
<clustering>
<clus scale="   43.912">  2  9  1 -1</clus>
<clus scale="   49.067">  1 10  2 -1</clus>
<clus scale="   90.515">  5  6 -1 -1</clus>
<clus scale="   91.838">  7  8 -1 -1</clus>
<clus scale="  176.567">  2  5  1 -1</clus>
<clus scale="   49.067">  1  5  2 -1</clus>
</clustering>
</event>
<event>
10    2  0.3984345E-006  0.1058719E+03  0.7546771E-02  0.1268441E+00
         21   -1    0    0  503  502  0.00000000000E+00  0.00000000000E+00  0.75307139640E+03  0.75307139640E+03  0.00000000000E+00 0.  1.
         -1   -1    0    0    0  501 -0.00000000000E+00 -0.00000000000E+00 -0.33025330634E+03  0.33025330634E+03  0.00000000000E+00 0.  1.
         23    2    1    2    0    0  0.53795805645E+02  0.89073126210E+01 -0.14388430096E+03  0.17864896097E+03  0.90771307515E+02 0.  0.
         23    2    1    2    0    0 -0.62396825045E+02  0.12796130928E+02 -0.78862441113E+02  0.13612016018E+03  0.90842218412E+02 0.  0.
        -13    1    4    4    0    0 -0.42340402103E+02  0.39045031639E+02 -0.82769986710E+01  0.58187050561E+02  0.00000000000E+00 0.  1.
         13    1    4    4    0    0 -0.20056422942E+02 -0.26248900712E+02 -0.70585442442E+02  0.77933109617E+02  0.00000000000E+00 0. -1.
        -13    1    3    3    0    0  0.20738625880E+02  0.14475591101E+02 -0.14289042512E+03  0.14511136045E+03  0.00000000000E+00 0.  1.
         13    1    3    3    0    0  0.33057179766E+02 -0.55682784800E+01 -0.99387584387E+00  0.33537600518E+02  0.00000000000E+00 0. -1.
         21    1    1    2  503  501 -0.22695107415E+02  0.57811211495E+02 -0.42467194665E+02  0.75237402253E+02  0.00000000000E+00 0.  1.
         -1    1    1    2    0  502  0.31296126814E+02 -0.79514655044E+02  0.68803202679E+03  0.69331817935E+03  0.00000000000E+00 0.  1.
<scales pt_clust_5="13000.00000" pt_clust_6="13000.00000" pt_clust_7="13000.00000" pt_clust_8="13000.00000" pt_clust_9="62.10639" pt_clust_10="84.84707"></scales>
<clustering>
<clus scale="   62.106">  2  9  1 -1</clus>
<clus scale="   84.847">  1 10  2 -1</clus>
<clus scale="   90.771">  7  8 -1 -1</clus>
<clus scale="   90.842">  5  6 -1 -1</clus>
<clus scale="  105.811">  2  7  1 -1</clus>
<clus scale="   84.847">  1  5  2 -1</clus>
</clustering>
</event>
<event>
10    2  0.3984345E-006  0.1138686E+03  0.7546771E-02  0.1254519E+00
         21   -1    0    0  503  502  0.00000000000E+00  0.00000000000E+00  0.52766109427E+03  0.52766109427E+03  0.00000000000E+00 0.  1.
         -1   -1    0    0    0  501 -0.00000000000E+00 -0.00000000000E+00 -0.54850640121E+02  0.54850640121E+02  0.00000000000E+00 0.  1.
         23    2    1    2    0    0 -0.35678728757E+02 -0.15066296760E+02  0.84901775447E+02  0.13299004419E+03  0.94752706536E+02 0.  0.
         23    2    1    2    0    0  0.65755834881E+02  0.64415298739E+02  0.28805408950E+03  0.31614287856E+03  0.92184600977E+02 0.  0.
        -11    1    4    4    0    0  0.51444542699E+02  0.86750705247E+01  0.53871199080E+02  0.74992692394E+02  0.00000000000E+00 0.  1.
         11    1    4    4    0    0  0.14311292182E+02  0.55740228214E+02  0.23418289042E+03  0.24115018617E+03  0.00000000000E+00 0. -1.
        -13    1    3    3    0    0  0.15945476604E+02  0.29338436880E+02  0.36350554367E+02  0.49359547258E+02  0.00000000000E+00 0.  1.
         13    1    3    3    0    0 -0.51624205361E+02 -0.44404733640E+02  0.48551221080E+02  0.83630496932E+02  0.00000000000E+00 0. -1.
         21    1    1    2  503  501 -0.18929839552E+02 -0.20878636227E+02 -0.78887681917E+00  0.28193591520E+02  0.00000000000E+00 0.  1.
         -1    1    1    2    0  502 -0.11147266572E+02 -0.28470365752E+02  0.10064346602E+03  0.10518522012E+03  0.00000000000E+00 0.  1.
<scales pt_clust_5="13000.00000" pt_clust_6="13000.00000" pt_clust_7="13000.00000" pt_clust_8="13000.00000" pt_clust_9="28.18255" pt_clust_10="32.06206"></scales>
<clustering>
<clus scale="   28.183">  2  9  1 -1</clus>
<clus scale="   32.062">  1 10  2 -1</clus>
<clus scale="   92.185">  5  6 -1 -1</clus>
<clus scale="   94.753">  7  8 -1 -1</clus>
<clus scale="  111.741">  1  5  2 -1</clus>
<clus scale="   32.062">  1  5  2 -1</clus>
</clustering>
</event>
<event>
10    2  0.3984345E-006  0.9982735E+02  0.7546771E-02  0.1282932E+00
         21   -1    0    0  503  502  0.00000000000E+00  0.00000000000E+00  0.13864866548E+03  0.13864866548E+03  0.00000000000E+00 0.  1.
         -2   -1    0    0    0  501 -0.00000000000E+00 -0.00000000000E+00 -0.20621201610E+03  0.20621201610E+03  0.00000000000E+00 0.  1.
         23    2    1    2    0    0 -0.35068675423E+02 -0.42281668630E+01 -0.11256755930E+03  0.14833922125E+03  0.89918739784E+02 0.  0.
         23    2    1    2    0    0  0.46636536643E+02  0.10026534823E+02 -0.14498769118E+02  0.98729359647E+02  0.85216044263E+02 0.  0.
        -11    1    4    4    0    0  0.57972896366E+01  0.21176513003E+02 -0.42594741754E+02  0.47920405832E+02  0.00000000000E+00 0. -1.
         11    1    4    4    0    0  0.40839247006E+02 -0.11149978179E+02  0.28095972636E+02  0.50808953815E+02  0.00000000000E+00 0.  1.
        -13    1    3    3    0    0 -0.62426888798E+02  0.12429913619E+02 -0.84204372342E+02  0.10555565129E+03  0.00000000000E+00 0.  1.
         13    1    3    3    0    0  0.27358213375E+02 -0.16658080482E+02 -0.28363186959E+02  0.42783569965E+02  0.00000000000E+00 0. -1.
         21    1    1    2  503  501 -0.12385054359E+02  0.19154582717E+02 -0.92746200578E+01  0.24623285478E+02  0.00000000000E+00 0. -1.
         -2    1    1    2    0  502  0.81719313837E+00 -0.24952950677E+02  0.68777597849E+02  0.73168815202E+02  0.00000000000E+00 0.  1.
<scales pt_clust_5="13000.00000" pt_clust_6="13000.00000" pt_clust_7="13000.00000" pt_clust_8="13000.00000" pt_clust_9="22.80981" pt_clust_10="24.73991"></scales>
<clustering>
<clus scale="   22.810">  2  9  1 -1</clus>
<clus scale="   24.740">  1 10  2 -1</clus>
<clus scale="   85.216">  5  6 -1 -1</clus>
<clus scale="   89.919">  7  8 -1 -1</clus>
<clus scale="   95.613">  1  5  2 -1</clus>
<clus scale="   24.740">  1  5  2 -1</clus>
</clustering>
</event>
<event>
10    2  0.3984345E-006  0.1587882E+03  0.7546771E-02  0.1190150E+00
          3   -1    0    0  503    0 -0.00000000000E+00  0.00000000000E+00  0.69631795005E+03  0.69631795005E+03  0.00000000000E+00 0. -1.
         21   -1    0    0  501  502  0.00000000000E+00 -0.00000000000E+00 -0.12966165153E+03  0.12966165153E+03  0.00000000000E+00 0.  1.
         23    2    1    2    0    0 -0.22126530961E+02  0.11130178583E+03  0.39075082432E+03  0.41690693898E+03  0.90815847547E+02 0.  0.
         23    2    1    2    0    0  0.31547685860E+02 -0.13716047541E+03  0.74447624033E+02  0.18353703920E+03  0.91297007257E+02 0.  0.
        -11    1    3    3    0    0 -0.42667233927E+02  0.29607475797E+02  0.83629408830E+02  0.98442742217E+02  0.00000000000E+00 0.  1.
         11    1    3    3    0    0  0.20540702966E+02  0.81694310031E+02  0.30712141549E+03  0.31846419676E+03  0.00000000000E+00 0. -1.
        -13    1    4    4    0    0  0.69253958589E+01 -0.11393581662E+03  0.90885572336E+02  0.14590928235E+03  0.00000000000E+00 0.  1.
         13    1    4    4    0    0  0.24622290001E+02 -0.23224658790E+02 -0.16437948302E+02  0.37627756845E+02  0.00000000000E+00 0. -1.
         21    1    1    2  503  502  0.12202476845E+02  0.21647743499E+02  0.16055459093E+03  0.16246631007E+03  0.00000000000E+00 0. -1.
          3    1    1    2  501    0 -0.21623631745E+02  0.42109460855E+01 -0.59096740760E+02  0.63069313340E+02  0.00000000000E+00 0. -1.
<scales pt_clust_5="13000.00000" pt_clust_6="13000.00000" pt_clust_7="13000.00000" pt_clust_8="13000.00000" pt_clust_9="24.75490" pt_clust_10="22.02983"></scales>
<clustering>
<clus scale="   22.030">  2 10  1 -1</clus>
<clus scale="   24.755">  1  9  2 -1</clus>
<clus scale="   90.816">  5  6 -1 -1</clus>
<clus scale="   91.297">  7  8 -1 -1</clus>
<clus scale="  158.512">  1  5  2 -1</clus>
<clus scale="   22.030">  2  5  1 -1</clus>
</clustering>
</event>
<event>
10    2  0.3984345E-006  0.1034886E+03  0.7546771E-02  0.1273749E+00
         21   -1    0    0  501  502  0.00000000000E+00  0.00000000000E+00  0.24332334080E+03  0.24332334080E+03  0.00000000000E+00 0.  1.
          1   -1    0    0  503    0 -0.00000000000E+00 -0.00000000000E+00 -0.14069105201E+03  0.14069105201E+03  0.00000000000E+00 0. -1.
         23    2    1    2    0    0 -0.22485303691E+02 -0.21044161983E+02 -0.14584622591E+02  0.96517544687E+02  0.90302157121E+02 0.  0.
         23    2    1    2    0    0  0.35103171468E+01  0.77883887138E+02  0.91741482245E+02  0.15133562440E+03  0.91693780842E+02 0.  0.
        -11    1    3    3    0    0 -0.45250790581E+02  0.57854272783E+01  0.17537308215E+02  0.48873943941E+02  0.00000000000E+00 0.  1.
         11    1    3    3    0    0  0.22765486890E+02 -0.26829589262E+02 -0.32121930806E+02  0.47643600746E+02  0.00000000000E+00 0. -1.
        -11    1    4    4    0    0 -0.42136056205E+02  0.31923923240E+02  0.25521832397E+02  0.58702197884E+02  0.00000000000E+00 0.  1.
         11    1    4    4    0    0  0.45646373352E+02  0.45959963898E+02  0.66219649847E+02  0.92633426513E+02  0.00000000000E+00 0. -1.
         21    1    1    2  503  502 -0.10584431504E+02 -0.17690421294E+02 -0.45460003213E+02  0.49915860085E+02  0.00000000000E+00 0. -1.
          1    1    1    2  501    0  0.29559418048E+02 -0.39149303860E+02  0.70935432351E+02  0.86245363649E+02  0.00000000000E+00 0. -1.
<scales pt_clust_5="13000.00000" pt_clust_6="13000.00000" pt_clust_7="13000.00000" pt_clust_8="13000.00000" pt_clust_9="20.61507" pt_clust_10="49.71731"></scales>
<clustering>
<clus scale="   20.615">  2  9  1 -1</clus>
<clus scale="   49.717">  1 10  2 -1</clus>
<clus scale="   90.302">  5  6 -1 -1</clus>
<clus scale="   91.694">  7  8 -1 -1</clus>
<clus scale="  102.258">  2  5  1 -1</clus>
<clus scale="   49.717">  1  5  2 -1</clus>
</clustering>
</event>
<event>
10    2  0.3984345E-006  0.1059796E+03  0.7546771E-02  0.1269437E+00
         21   -1    0    0  501  502  0.00000000000E+00  0.00000000000E+00  0.83766002003E+02  0.83766002003E+02  0.00000000000E+00 0.  1.
          2   -1    0    0  503    0 -0.00000000000E+00 -0.00000000000E+00 -0.51069744528E+03  0.51069744528E+03  0.00000000000E+00 0. -1.
         23    2    1    2    0    0 -0.39512865002E+02  0.15458151838E+02 -0.31701159041E+03  0.33335975311E+03  0.93979548731E+02 0.  0.
         23    2    1    2    0    0  0.41046554512E+02 -0.21308004543E+02 -0.13663383044E+03  0.17063029107E+03  0.91142975120E+02 0.  0.
        -11    1    4    4    0    0  0.63301320249E+02  0.55384691259E+01 -0.10886653343E+03  0.12605417045E+03  0.00000000000E+00 0. -1.
         11    1    4    4    0    0 -0.22254765736E+02 -0.26846473669E+02 -0.27767297012E+02  0.44576120623E+02  0.00000000000E+00 0.  1.
        -11    1    3    3    0    0 -0.26887859884E+02  0.44716684830E+02 -0.27863192035E+03  0.28347537097E+03  0.00000000000E+00 0. -1.
         11    1    3    3    0    0 -0.12625005117E+02 -0.29258532992E+02 -0.38379670064E+02  0.49884382137E+02  0.00000000000E+00 0.  1.
         21    1    1    2  503  502 -0.21936005850E+02 -0.48341782122E+01 -0.25153202578E+02  0.33723007452E+02  0.00000000000E+00 0. -1.
          2    1    1    2  501    0  0.20402316339E+02  0.10684030917E+02  0.51867180159E+02  0.56750395649E+02  0.00000000000E+00 0. -1.
<scales pt_clust_5="13000.00000" pt_clust_6="13000.00000" pt_clust_7="13000.00000" pt_clust_8="13000.00000" pt_clust_9="22.46236" pt_clust_10="22.92053"></scales>
<clustering>
<clus scale="   22.462">  2  9  1 -1</clus>
<clus scale="   22.921">  1 10  2 -1</clus>
<clus scale="   91.143">  5  6 -1 -1</clus>
<clus scale="   93.980">  7  8 -1 -1</clus>
<clus scale="  103.473">  1  5  2 -1</clus>
<clus scale="   22.921">  1  5  2 -1</clus>
</clustering>
</event>
<event>
10    2  0.3984345E-006  0.9351217E+02  0.7546771E-02  0.1295875E+00
         21   -1    0    0  501  502  0.00000000000E+00  0.00000000000E+00  0.26894259013E+03  0.26894259013E+03  0.00000000000E+00 0.  1.
          2   -1    0    0  503    0 -0.00000000000E+00 -0.00000000000E+00 -0.20510685183E+03  0.20510685183E+03  0.00000000000E+00 0. -1.
         23    2    1    2    0    0  0.66872015577E+01 -0.41442845928E+02 -0.53667170672E+02  0.11336723377E+03  0.90607595388E+02 0.  0.
         23    2    1    2    0    0  0.37424194596E+02  0.23279601114E+02  0.17705428660E+03  0.20269295077E+03  0.88281944476E+02 0.  0.
        -13    1    4    4    0    0 -0.12909223716E+02  0.26784246250E+02  0.13115783698E+03  0.13448576915E+03  0.00000000000E+00 0. -1.
         13    1    4    4    0    0  0.50333418312E+02 -0.35046451361E+01  0.45896449621E+02  0.68207181619E+02  0.00000000000E+00 0.  1.
        -13    1    3    3    0    0 -0.28825218656E+02 -0.43478188651E+02 -0.57445305034E+02  0.77596450881E+02  0.00000000000E+00 0. -1.
         13    1    3    3    0    0  0.35512420214E+02  0.20353427223E+01  0.37781343620E+01  0.35770782892E+02  0.00000000000E+00 0.  1.
         21    1    1    2  503  502 -0.24965121112E+02  0.33476494765E+02 -0.10130222348E+03  0.10957222940E+03  0.00000000000E+00 0. -1.
          2    1    1    2  501    0 -0.19146275042E+02 -0.15313249950E+02  0.41750845858E+02  0.48417028016E+02  0.00000000000E+00 0. -1.
<scales pt_clust_5="13000.00000" pt_clust_6="13000.00000" pt_clust_7="13000.00000" pt_clust_8="13000.00000" pt_clust_9="41.74755" pt_clust_10="24.51684"></scales>
<clustering>
<clus scale="   24.517">  1 10  2 -1</clus>
<clus scale="   41.748">  2  9  1 -1</clus>
<clus scale="   88.282">  5  6 -1 -1</clus>
<clus scale="   90.608">  7  8 -1 -1</clus>
<clus scale="   91.261">  1  5  2 -1</clus>
<clus scale="   24.517">  1  5  2 -1</clus>
</clustering>
</event>
<event>
10    2  0.3984345E-006  0.1598626E+03  0.7546771E-02  0.1189113E+00
         21   -1    0    0  503  502  0.00000000000E+00  0.00000000000E+00  0.13384866841E+03  0.13384866841E+03  0.00000000000E+00 0.  1.
         -4   -1    0    0    0  501 -0.00000000000E+00 -0.00000000000E+00 -0.61365608342E+03  0.61365608342E+03  0.00000000000E+00 0.  1.
         23    2    1    2    0    0 -0.41580806098E+02 -0.13293234641E+03 -0.38289650732E+03  0.41743016497E+03  0.90764724156E+02 0.  0.
         23    2    1    2    0    0 -0.27322334684E+02  0.13030518704E+03 -0.89275471867E+02  0.18500838737E+03  0.92369052059E+02 0.  0.
        -13    1    3    3    0    0 -0.42231715496E+02 -0.10450180572E+03 -0.36889917361E+03  0.38573403464E+03  0.00000000000E+00 0.  1.
         13    1    3    3    0    0  0.65090939778E+00 -0.28430540688E+02 -0.13997333718E+02  0.31696130333E+02  0.00000000000E+00 0. -1.
        -13    1    4    4    0    0  0.33879701012E+02  0.45665442476E+02 -0.39991068732E+02  0.69515842478E+02  0.00000000000E+00 0. -1.
         13    1    4    4    0    0 -0.61202035696E+02  0.84639744561E+02 -0.49284403135E+02  0.11549254489E+03  0.00000000000E+00 0.  1.
         21    1    1    2  503  501  0.24912270496E+02  0.47814806996E+01 -0.66715689033E+02  0.71375534619E+02  0.00000000000E+00 0.  1.
         -4    1    1    2    0  502  0.43990870286E+02 -0.21543213288E+01  0.59080253212E+02  0.73690664867E+02  0.00000000000E+00 0.  1.
<scales pt_clust_5="13000.00000" pt_clust_6="13000.00000" pt_clust_7="13000.00000" pt_clust_8="13000.00000" pt_clust_9="25.36698" pt_clust_10="44.37429"></scales>
<clustering>
<clus scale="   25.367">  2  9  1 -1</clus>
<clus scale="   44.374">  1 10  2 -1</clus>
<clus scale="   90.765">  5  6 -1 -1</clus>
<clus scale="   92.369">  7  8 -1 -1</clus>
<clus scale="  158.941">  2  5  1 -1</clus>
<clus scale="   44.374">  1  5  2 -1</clus>
</clustering>
</event>
<event>
10    2  0.3984345E-006  0.9359600E+02  0.7546771E-02  0.1294979E+00
         -1   -1    0    0    0  501 -0.00000000000E+00  0.00000000000E+00  0.11334606548E+03  0.11334606548E+03  0.00000000000E+00 0.  1.
         21   -1    0    0  503  502  0.00000000000E+00 -0.00000000000E+00 -0.17619981635E+03  0.17619981635E+03  0.00000000000E+00 0. -1.
         23    2    1    2    0    0 -0.28269862636E+02  0.74209074466E+01  0.40018986060E+02  0.10301280087E+03  0.90309816168E+02 0.  0.
         23    2    1    2    0    0  0.17469831421E+02  0.17109864019E+01 -0.51928719349E+02  0.10656807581E+03  0.91389498323E+02 0.  0.
        -11    1    3    3    0    0 -0.41501253172E+02  0.33121577413E+02  0.49498721944E+02  0.72591434614E+02  0.00000000000E+00 0. -1.
         11    1    3    3    0    0  0.13231390537E+02 -0.25700669967E+02 -0.94797358840E+01  0.30421366253E+02  0.00000000000E+00 0.  1.
        -13    1    4    4    0    0  0.33029247651E+02  0.39868471749E+02 -0.26724699791E+02  0.58263503318E+02  0.00000000000E+00 0.  1.
         13    1    4    4    0    0 -0.15559416230E+02 -0.38157485347E+02 -0.25204019558E+02  0.48304572489E+02  0.00000000000E+00 0. -1.
         21    1    1    2  503  501  0.17039338108E+02  0.11153918685E+02  0.42736731401E+01  0.20808969876E+02  0.00000000000E+00 0.  1.
         -1    1    1    2    0  502 -0.62393068935E+01 -0.20285812533E+02 -0.55217690725E+02  0.59156035276E+02  0.00000000000E+00 0.  1.
<scales pt_clust_5="13000.00000" pt_clust_6="13000.00000" pt_clust_7="13000.00000" pt_clust_8="13000.00000" pt_clust_9="20.36539" pt_clust_10="20.91908"></scales>
<clustering>
<clus scale="   20.365">  1  9  2 -1</clus>
<clus scale="   20.919">  2 10  1 -1</clus>
<clus scale="   90.310">  5  6 -1 -1</clus>
<clus scale="   91.389">  7  8 -1 -1</clus>
<clus scale="   92.542">  1  5  2 -1</clus>
<clus scale="   20.919">  2  5  1 -1</clus>
</clustering>
</event>
<event>
10    2  0.3984345E-006  0.1415662E+03  0.7546771E-02  0.1227518E+00
         -3   -1    0    0    0  501 -0.00000000000E+00  0.00000000000E+00  0.61831636550E+03  0.61831636550E+03  0.00000000000E+00 0.  1.
         21   -1    0    0  503  502  0.00000000000E+00 -0.00000000000E+00 -0.13413229296E+03  0.13413229296E+03  0.00000000000E+00 0.  1.
         23    2    1    2    0    0 -0.44202466527E+02  0.43616513425E+00  0.59697368854E+02  0.11692607821E+03  0.90298857299E+02 0.  0.
         23    2    1    2    0    0  0.95449865160E+02 -0.59092558298E+02  0.57822400575E+02  0.15506046434E+03  0.89987279040E+02 0.  0.
        -11    1    3    3    0    0 -0.23392984506E+02 -0.44311619111E+02  0.21521092177E+02  0.54533555916E+02  0.00000000000E+00 0.  1.
         11    1    3    3    0    0 -0.20809482021E+02  0.44747784245E+02  0.38176276677E+02  0.62392522290E+02  0.00000000000E+00 0. -1.
        -11    1    4    4    0    0  0.30603392511E+02 -0.94168726921E+01  0.65606954216E+02  0.73003544887E+02  0.00000000000E+00 0. -1.
         11    1    4    4    0    0  0.64846472649E+02 -0.49675685606E+02 -0.77845536412E+01  0.82056919457E+02  0.00000000000E+00 0.  1.
         21    1    1    2  503  501 -0.11383636110E+03 -0.77888595548E+02  0.26602589586E+03  0.29965835162E+03  0.00000000000E+00 0.  1.
         -3    1    1    2    0  502  0.62588962471E+02  0.13654498871E+03  0.10063840725E+03  0.18080376429E+03  0.00000000000E+00 0.  1.
<scales pt_clust_5="13000.00000" pt_clust_6="13000.00000" pt_clust_7="13000.00000" pt_clust_8="13000.00000" pt_clust_9="13000.00000" pt_clust_10="141.56623"></scales>
<clustering>
<clus scale="   89.987">  7  8 -1 -1</clus>
<clus scale="   90.299">  5  6 -1 -1</clus>
<clus scale="  100.538">  1  5  2 -1</clus>
<clus scale="  138.109">  1  7  2 -1</clus>
<clus scale="  141.566">  2 10  1 -1</clus>
<clus scale="  141.566">  2  5  1 -1</clus>
</clustering>
</event>
<event>
10    2  0.3984345E-006  0.1374358E+03  0.7546771E-02  0.1217385E+00
         -4   -1    0    0    0  501 -0.00000000000E+00  0.00000000000E+00  0.11911616037E+03  0.11911616037E+03  0.00000000000E+00 0.  1.
         21   -1    0    0  503  502  0.00000000000E+00 -0.00000000000E+00 -0.39280447620E+03  0.39280447620E+03  0.00000000000E+00 0.  1.
         23    2    1    2    0    0  0.11294644408E+03 -0.27781685447E+02  0.10080134221E+02  0.14923312605E+03  0.92952652078E+02 0.  0.
         23    2    1    2    0    0 -0.91101644896E+02 -0.19505755138E+02 -0.17585178445E+03  0.21863193222E+03  0.90532245660E+02 0.  0.
        -11    1    4    4    0    0  0.48227979081E+01  0.23720769903E+02 -0.40700451221E+02  0.47354630545E+02  0.00000000000E+00 0.  1.
         11    1    4    4    0    0 -0.95924442804E+02 -0.43226525041E+02 -0.13515133323E+03  0.17127730168E+03  0.00000000000E+00 0. -1.
        -11    1    3    3    0    0  0.12269229331E+03 -0.46449631697E+01  0.14861374122E+02  0.12367633145E+03  0.00000000000E+00 0.  1.
         11    1    3    3    0    0 -0.97458492336E+01 -0.23136722277E+02 -0.47812399008E+01  0.25556794596E+02  0.00000000000E+00 0. -1.
         21    1    1    2  503  501 -0.11560720561E+02  0.26213742477E+02  0.46919016545E+01  0.29031439780E+02  0.00000000000E+00 0.  1.
         -4    1    1    2    0  502 -0.10284078621E+02  0.21073698108E+02 -0.11260856725E+03  0.11502413852E+03  0.00000000000E+00 0.  1.
<scales pt_clust_5="13000.00000" pt_clust_6="13000.00000" pt_clust_7="13000.00000" pt_clust_8="13000.00000" pt_clust_9="29.67193" pt_clust_10="23.44916"></scales>
<clustering>
<clus scale="   23.449">  2 10  1 -1</clus>
<clus scale="   29.672">  1  9  2 -1</clus>
<clus scale="   90.532">  5  6 -1 -1</clus>
<clus scale="   92.953">  7  8 -1 -1</clus>
<clus scale="  135.810">  2  5  1 -1</clus>
<clus scale="   23.449">  2  5  1 -1</clus>
</clustering>
</event>
<event>
10    2  0.3984345E-006  0.2330896E+03  0.7546771E-02  0.1124568E+00
          3   -1    0    0  503    0 -0.00000000000E+00  0.00000000000E+00  0.72842406375E+03  0.72842406375E+03  0.00000000000E+00 0. -1.
         21   -1    0    0  501  502  0.00000000000E+00 -0.00000000000E+00 -0.16782803283E+03  0.16782803283E+03  0.00000000000E+00 0.  1.
         23    2    1    2    0    0 -0.22964869046E+03 -0.89835820174E+02  0.42654225350E+03  0.50122952176E+03  0.92107241035E+02 0.  0.
         23    2    1    2    0    0  0.18749036772E+03  0.10595487161E+03  0.90064424473E+02  0.25049744713E+03  0.90875176250E+02 0.  0.
        -11    1    3    3    0    0 -0.70662954354E+02  0.58465664547E+01  0.71924191752E+02  0.10099764758E+03  0.00000000000E+00 0.  1.
         11    1    3    3    0    0 -0.15898573611E+03 -0.95682386629E+02  0.35461806175E+03  0.40023187418E+03  0.00000000000E+00 0. -1.
        -13    1    4    4    0    0  0.14328808847E+03  0.11980319003E+03  0.79489353970E+02  0.20298482217E+03  0.00000000000E+00 0.  1.
         13    1    4    4    0    0  0.44202279254E+02 -0.13848318422E+02  0.10575070502E+02  0.47512624959E+02  0.00000000000E+00 0. -1.
         21    1    1    2  503  502  0.53068853745E+02  0.82043469332E+01  0.82048066748E+02  0.98058654914E+02  0.00000000000E+00 0.  1.
          3    1    1    2  501    0 -0.10910531003E+02 -0.24323398369E+02 -0.38058713805E+02  0.46466472768E+02  0.00000000000E+00 0. -1.
<scales pt_clust_5="13000.00000" pt_clust_6="13000.00000" pt_clust_7="13000.00000" pt_clust_8="13000.00000" pt_clust_9="52.79422" pt_clust_10="26.65835"></scales>
<clustering>
<clus scale="   26.658">  2 10  1 -1</clus>
<clus scale="   52.794">  1  9  2 -1</clus>
<clus scale="   90.875">  7  8 -1 -1</clus>
<clus scale="   92.107">  5  6 -1 -1</clus>
<clus scale="  232.606">  2  7  1 -1</clus>
<clus scale="   26.658">  2  5  1 -1</clus>
</clustering>
</event>
<event>
10    2  0.3984345E-006  0.1519296E+03  0.7546771E-02  0.1214694E+00
          1   -1    0    0  503    0 -0.00000000000E+00  0.00000000000E+00  0.76447731260E+03  0.76447731260E+03  0.00000000000E+00 0. -1.
         21   -1    0    0  501  502  0.00000000000E+00 -0.00000000000E+00 -0.13706995430E+03  0.13706995430E+03  0.00000000000E+00 0. -1.
         23    2    1    2    0    0  0.58337945809E+02 -0.40710294707E+02  0.27323842788E+03  0.29669947004E+03  0.91163002555E+02 0.  0.
         23    2    1    2    0    0  0.53851128795E+02  0.93111927092E+02  0.37470182766E+03  0.40094220371E+03  0.93719880625E+02 0.  0.
        -13    1    4    4    0    0  0.31689543161E+02  0.85225912693E+02  0.36384548723E+03  0.37503496093E+03  0.00000000000E+00 0. -1.
         13    1    4    4    0    0  0.22161585634E+02  0.78860143993E+01  0.10856340426E+02  0.25907242778E+02  0.00000000000E+00 0.  1.
        -13    1    3    3    0    0  0.61384899479E+01 -0.37352923101E+02  0.21546422898E+03  0.21876415587E+03  0.00000000000E+00 0.  1.
         13    1    3    3    0    0  0.52199455862E+02 -0.33573716057E+01  0.57774198901E+02  0.77935314172E+02  0.00000000000E+00 0. -1.
         21    1    1    2  503  502 -0.26683607504E+02  0.33172732475E+02  0.48570813371E+02  0.64587684591E+02  0.00000000000E+00 0.  1.
          1    1    1    2  501    0 -0.85505467100E+02 -0.85574364861E+02 -0.69103710614E+02  0.13931790856E+03  0.00000000000E+00 0. -1.
<scales pt_clust_5="13000.00000" pt_clust_6="13000.00000" pt_clust_7="13000.00000" pt_clust_8="13000.00000" pt_clust_9="42.57282" pt_clust_10="119.57922"></scales>
<clustering>
<clus scale="   42.573">  1  9  2 -1</clus>
<clus scale="   91.163">  7  8 -1 -1</clus>
<clus scale="   93.720">  5  6 -1 -1</clus>
<clus scale="  106.417">  1  7  2 -1</clus>
<clus scale="  119.579">  2 10  1 -1</clus>
<clus scale="  119.579">  2  5  1 -1</clus>
</clustering>
</event>
<event>
10    2  0.3984345E-006  0.1902041E+03  0.7546771E-02  0.1158533E+00
          2   -1    0    0  503    0 -0.00000000000E+00  0.00000000000E+00  0.12358220519E+04  0.12358220519E+04  0.00000000000E+00 0. -1.
         21   -1    0    0  501  502  0.00000000000E+00 -0.00000000000E+00 -0.11244036115E+03  0.11244036115E+03  0.00000000000E+00 0. -1.
         23    2    1    2    0    0 -0.10912142644E+03  0.90099989917E+02  0.62371613316E+03  0.64624821419E+03  0.92679262439E+02 0.  0.
         23    2    1    2    0    0  0.57281276048E+02 -0.20080817281E+03  0.47246270613E+03  0.52520896186E+03  0.94965141366E+02 0.  0.
        -13    1    3    3    0    0 -0.15279253599E+02 -0.18595424335E+02  0.63137118896E+02  0.67568788499E+02  0.00000000000E+00 0.  1.
         13    1    3    3    0    0 -0.93842172839E+02  0.10869541425E+03  0.56057901427E+03  0.57867942569E+03  0.00000000000E+00 0. -1.
        -13    1    4    4    0    0 -0.19517952255E+02 -0.95345202147E+02  0.17158596091E+03  0.19726479669E+03  0.00000000000E+00 0.  1.
         13    1    4    4    0    0  0.76799228304E+02 -0.10546297066E+03  0.30087674522E+03  0.32794416516E+03  0.00000000000E+00 0. -1.
         21    1    1    2  503  502 -0.15658779624E+02  0.25888670928E+02  0.56871562902E+02  0.64418905057E+02  0.00000000000E+00 0. -1.
          2    1    1    2  501    0  0.67498930014E+02  0.84819511965E+02 -0.29668711463E+02  0.11238633192E+03  0.00000000000E+00 0. -1.
<scales pt_clust_5="13000.00000" pt_clust_6="13000.00000" pt_clust_7="13000.00000" pt_clust_8="13000.00000" pt_clust_9="30.25592" pt_clust_10="108.77387"></scales>
<clustering>
<clus scale="   30.256">  1  9  2 -1</clus>
<clus scale="   92.679">  5  6 -1 -1</clus>
<clus scale="   94.965">  7  8 -1 -1</clus>
<clus scale="  108.774">  2 10  1 -1</clus>
<clus scale="  189.073">  1  5  2 -1</clus>
<clus scale="  108.774">  2  5  1 -1</clus>
</clustering>
</event>
<event>
10    2  0.3984345E-006  0.1964125E+03  0.7546771E-02  0.1153231E+00
          1   -1    0    0  503    0 -0.00000000000E+00  0.00000000000E+00  0.64605202472E+03  0.64605202472E+03  0.00000000000E+00 0. -1.
         21   -1    0    0  501  502  0.00000000000E+00 -0.00000000000E+00 -0.19083105909E+03  0.19083105909E+03  0.00000000000E+00 0.  1.
         23    2    1    2    0    0 -0.41104543606E+02 -0.14913847983E+03  0.28439928800E+03  0.33533471619E+03  0.87375895951E+02 0.  0.
         23    2    1    2    0    0  0.32847228998E+01  0.26918505796E+03  0.72949299122E+02  0.29360059750E+03  0.91696923457E+02 0.  0.
        -11    1    4    4    0    0 -0.41222727812E+00  0.20292457821E+03  0.11651276278E+02  0.20325921040E+03  0.00000000000E+00 0.  1.
         11    1    4    4    0    0  0.36969501779E+01  0.66260479752E+02  0.61298022844E+02  0.90341387094E+02  0.00000000000E+00 0. -1.
        -13    1    3    3    0    0 -0.34285419290E+02 -0.68661117304E+01  0.63639053634E+02  0.72612413633E+02  0.00000000000E+00 0.  1.
         13    1    3    3    0    0 -0.68191243157E+01 -0.14227236810E+03  0.22076023437E+03  0.26272230255E+03  0.00000000000E+00 0. -1.
         21    1    1    2  503  502  0.30446960278E+02  0.30973531992E+00  0.80569099600E+02  0.86130674771E+02  0.00000000000E+00 0. -1.
          1    1    1    2  501    0  0.73728604281E+01 -0.12035631346E+03  0.17303278905E+02  0.12181709535E+03  0.00000000000E+00 0. -1.
<scales pt_clust_5="13000.00000" pt_clust_6="13000.00000" pt_clust_7="13000.00000" pt_clust_8="13000.00000" pt_clust_9="30.44854" pt_clust_10="120.83233"></scales>
<clustering>
<clus scale="   30.449">  1  9  2 -1</clus>
<clus scale="   87.376">  7  8 -1 -1</clus>
<clus scale="   91.697">  5  6 -1 -1</clus>
<clus scale="  120.832">  2 10  1 -1</clus>
<clus scale="  194.433">  1  7  2 -1</clus>
<clus scale="  120.832">  2  5  1 -1</clus>
</clustering>
</event>
<event>
10    2  0.3984345E-006  0.1164425E+03  0.7546771E-02  0.1250155E+00
         21   -1    0    0  501  502  0.00000000000E+00  0.00000000000E+00  0.46952735755E+03  0.46952735755E+03  0.00000000000E+00 0.  1.
          3   -1    0    0  503    0 -0.00000000000E+00 -0.00000000000E+00 -0.58950689328E+02  0.58950689328E+02  0.00000000000E+00 0. -1.
         23    2    1    2    0    0 -0.41412388243E+02  0.56108243620E+02  0.44548960064E+02  0.12229353046E+03  0.90044304916E+02 0.  0.
         23    2    1    2    0    0 -0.24517730117E+01 -0.62585706845E+02  0.26087662045E+03  0.28400035495E+03  0.93148315196E+02 0.  0.
        -11    1    3    3    0    0 -0.12171115202E+02  0.47627234697E+02 -0.18303699752E+02  0.52454884947E+02  0.00000000000E+00 0. -1.
         11    1    3    3    0    0 -0.29241273040E+02  0.84810089232E+01  0.62852659816E+02  0.69838645514E+02  0.00000000000E+00 0.  1.
        -13    1    4    4    0    0 -0.36606046529E+02 -0.22777382381E+02  0.46972458779E+02  0.63759106600E+02  0.00000000000E+00 0.  1.
         13    1    4    4    0    0  0.34154273518E+02 -0.39808324464E+02  0.21390416167E+03  0.22024124835E+03  0.00000000000E+00 0. -1.
         21    1    1    2  503  502  0.12728184595E+02  0.17242203180E+02  0.14882930988E+02  0.26092180598E+02  0.00000000000E+00 0. -1.
          3    1    1    2  501    0  0.31135976659E+02 -0.10764739955E+02  0.90268156725E+02  0.96091980870E+02  0.00000000000E+00 0. -1.
<scales pt_clust_5="13000.00000" pt_clust_6="13000.00000" pt_clust_7="13000.00000" pt_clust_8="13000.00000" pt_clust_9="21.43129" pt_clust_10="33.31215"></scales>
<clustering>
<clus scale="   21.431">  2  9  1 -1</clus>
<clus scale="   33.312">  1 10  2 -1</clus>
<clus scale="   90.044">  5  6 -1 -1</clus>
<clus scale="   93.148">  7  8 -1 -1</clus>
<clus scale="  113.975">  2  5  1 -1</clus>
<clus scale="   33.312">  1  5  2 -1</clus>
</clustering>
</event>
<event>
10    2  0.3984345E-006  0.1494906E+03  0.7546771E-02  0.1213106E+00
          2   -1    0    0  503    0 -0.00000000000E+00  0.00000000000E+00  0.75114216764E+03  0.75114216764E+03  0.00000000000E+00 0. -1.
         21   -1    0    0  501  502  0.00000000000E+00 -0.00000000000E+00 -0.32671226842E+03  0.32671226842E+03  0.00000000000E+00 0. -1.
         23    2    1    2    0    0 -0.57438905645E+02  0.41463696209E+02  0.42854263552E+03  0.44391694558E+03  0.91624222360E+02 0.  0.
         23    2    1    2    0    0  0.60097090089E+01  0.15864852745E+03  0.16733875688E+03  0.24786390256E+03  0.90712638458E+02 0.  0.
        -11    1    3    3    0    0 -0.43118828631E+02 -0.23623301952E+02  0.17955412658E+03  0.18616384759E+03  0.00000000000E+00 0.  1.
         11    1    3    3    0    0 -0.14320077014E+02  0.65086998162E+02  0.24898850895E+03  0.25775309799E+03  0.00000000000E+00 0. -1.
        -13    1    4    4    0    0 -0.24835345872E+02  0.80748297619E+02  0.13246423577E+03  0.15711096630E+03  0.00000000000E+00 0. -1.
         13    1    4    4    0    0  0.30845054881E+02  0.77900229830E+02  0.34874521109E+02  0.90752936265E+02  0.00000000000E+00 0.  1.
         21    1    1    2  503  502  0.76536712754E+02 -0.86552491409E+02  0.57664481971E+02  0.12912937175E+03  0.00000000000E+00 0.  1.
          2    1    1    2  501    0 -0.25107516118E+02 -0.11355973225E+03 -0.22911597515E+03  0.25694421617E+03  0.00000000000E+00 0. -1.
<scales pt_clust_5="13000.00000" pt_clust_6="13000.00000" pt_clust_7="13000.00000" pt_clust_8="13000.00000" pt_clust_9="115.53875" pt_clust_10="118.82199"></scales>
<clustering>
<clus scale="   90.713">  7  8 -1 -1</clus>
<clus scale="   91.624">  5  6 -1 -1</clus>
<clus scale="  115.539">  1  9  2 -1</clus>
<clus scale="  115.539">  1  5  2 -1</clus>
<clus scale="  118.822">  2 10  1 -1</clus>
<clus scale="  118.822">  2  5  1 -1</clus>
</clustering>
</event>
<event>
10    2  0.3984345E-006  0.1004447E+03  0.7546771E-02  0.1280050E+00
         21   -1    0    0  501  502  0.00000000000E+00  0.00000000000E+00  0.53054999055E+03  0.53054999055E+03  0.00000000000E+00 0.  1.
          2   -1    0    0  503    0 -0.00000000000E+00 -0.00000000000E+00 -0.63798531439E+02  0.63798531439E+02  0.00000000000E+00 0. -1.
         23    2    1    2    0    0  0.27168650680E+02  0.20637843431E+02  0.35718451345E+02  0.10382269993E+03  0.91319708131E+02 0.  0.
         23    2    1    2    0    0 -0.37832169240E+02  0.58790993660E+01  0.12287777947E+03  0.15698321124E+03  0.89882941016E+02 0.  0.
        -13    1    4    4    0    0 -0.60511540281E+02 -0.14978837260E+02  0.10274279561E+03  0.12017526419E+03  0.00000000000E+00 0.  1.
         13    1    4    4    0    0  0.22679371042E+02  0.20857936626E+02  0.20134983853E+02  0.36807947049E+02  0.00000000000E+00 0. -1.
        -13    1    3    3    0    0  0.14397748849E+02  0.44935352496E+02  0.53331086861E+02  0.71208748772E+02  0.00000000000E+00 0.  1.
         13    1    3    3    0    0  0.12770901831E+02 -0.24297509065E+02 -0.17612635517E+02  0.32613951158E+02  0.00000000000E+00 0. -1.
         21    1    1    2  503  502  0.38133895365E+02  0.67274699668E+01  0.22778256384E+02  0.44925513818E+02  0.00000000000E+00 0.  1.
          2    1    1    2  501    0 -0.27470376805E+02 -0.33244412764E+02  0.28537697191E+03  0.28861709700E+03  0.00000000000E+00 0. -1.
<scales pt_clust_5="13000.00000" pt_clust_6="13000.00000" pt_clust_7="13000.00000" pt_clust_8="13000.00000" pt_clust_9="38.72277" pt_clust_10="42.22687"></scales>
<clustering>
<clus scale="   38.723">  2  9  1 -1</clus>
<clus scale="   42.227">  1 10  2 -1</clus>
<clus scale="   89.883">  5  6 -1 -1</clus>
<clus scale="   91.320">  7  8 -1 -1</clus>
<clus scale="   99.140">  1  5  2 -1</clus>
<clus scale="   42.227">  1  5  2 -1</clus>
</clustering>
</event>
<event>
10    2  0.3984345E-006  0.1072444E+03  0.7546771E-02  0.1272884E+00
          1   -1    0    0  503    0 -0.00000000000E+00  0.00000000000E+00  0.20370058608E+03  0.20370058608E+03  0.00000000000E+00 0. -1.
         21   -1    0    0  501  502  0.00000000000E+00 -0.00000000000E+00 -0.14910579147E+03  0.14910579147E+03  0.00000000000E+00 0. -1.
         23    2    1    2    0    0 -0.42999153116E+02  0.34877092007E+02  0.75705496367E+02  0.12053511958E+03  0.75710330573E+02 0.  0.
         23    2    1    2    0    0  0.35886842421E+02  0.81165238239E+01 -0.20760551094E+02  0.10143838733E+03  0.92222570584E+02 0.  0.
        -11    1    3    3    0    0  0.13441175280E+02  0.34851138719E+02  0.29904600243E+02  0.47849265184E+02  0.00000000000E+00 0.  1.
         11    1    3    3    0    0 -0.56440328395E+02  0.25953288192E-01  0.45800896124E+02  0.72685854392E+02  0.00000000000E+00 0. -1.
        -11    1    4    4    0    0  0.26653748984E+02 -0.39595892786E+02  0.20041814771E+01  0.47773149402E+02  0.00000000000E+00 0.  1.
         11    1    4    4    0    0  0.92330934369E+01  0.47712416610E+02 -0.22764732571E+02  0.53665237931E+02  0.00000000000E+00 0. -1.
         21    1    1    2  503  502 -0.20724020573E+02  0.30788693454E+02  0.28571847933E+02  0.46837796357E+02  0.00000000000E+00 0. -1.
          1    1    1    2  501    0  0.27836331268E+02 -0.73782309285E+02 -0.28921998595E+02  0.83995074288E+02  0.00000000000E+00 0. -1.
<scales pt_clust_5="13000.00000" pt_clust_6="13000.00000" pt_clust_7="13000.00000" pt_clust_8="13000.00000" pt_clust_9="37.11373" pt_clust_10="72.88020"></scales>
<clustering>
<clus scale="   37.114">  1  9  2 -1</clus>
<clus scale="   72.880">  2 10  1 -1</clus>
<clus scale="   75.710">  5  6 -1 -1</clus>
<clus scale="   92.223">  7  8 -1 -1</clus>
<clus scale="   93.426">  1  5  2 -1</clus>
<clus scale="   72.880">  2  5  1 -1</clus>
</clustering>
</event>
<event>
10    2  0.3984345E-006  0.1626371E+03  0.7546771E-02  0.1210538E+00
          2   -1    0    0  503    0 -0.00000000000E+00  0.00000000000E+00  0.10426808532E+04  0.10426808532E+04  0.00000000000E+00 0. -1.
         21   -1    0    0  501  502  0.00000000000E+00 -0.00000000000E+00 -0.97495553634E+02  0.97495553634E+02  0.00000000000E+00 0. -1.
         23    2    1    2    0    0 -0.48146901921E+01 -0.23290603261E+02  0.22340204964E+01  0.94986319824E+02  0.91933544826E+02 0.  0.
         23    2    1    2    0    0 -0.59454289043E+02  0.81480024951E+02  0.73103978124E+03  0.74383330488E+03  0.93247073606E+02 0.  0.
        -11    1    4    4    0    0 -0.40775878730E+02  0.10171655617E+03  0.60106782126E+03  0.61097582263E+03  0.00000000000E+00 0. -1.
         11    1    4    4    0    0 -0.18678410313E+02 -0.20236531219E+02  0.12997195999E+03  0.13285748225E+03  0.00000000000E+00 0.  1.
        -13    1    3    3    0    0  0.18565288669E+02 -0.35635102467E+02  0.34718331676E+02  0.53102664957E+02  0.00000000000E+00 0.  1.
         13    1    3    3    0    0 -0.23379978861E+02  0.12344499206E+02 -0.32484311180E+02  0.41883654867E+02  0.00000000000E+00 0. -1.
         21    1    1    2  503  502 -0.45476049372E+02  0.27475041227E+02  0.12852475126E+03  0.13907393948E+03  0.00000000000E+00 0. -1.
          2    1    1    2  501    0  0.10974502861E+03 -0.85664462916E+02  0.83386746541E+02  0.16228284262E+03  0.00000000000E+00 0. -1.
<scales pt_clust_5="13000.00000" pt_clust_6="13000.00000" pt_clust_7="13000.00000" pt_clust_8="13000.00000" pt_clust_9="53.13143" pt_clust_10="133.25092"></scales>
<clustering>
<clus scale="   53.131">  1  9  2 -1</clus>
<clus scale="   91.934">  7  8 -1 -1</clus>
<clus scale="   93.247">  5  6 -1 -1</clus>
<clus scale="   94.765">  1  7  2 -1</clus>
<clus scale="  133.251">  2 10  1 -1</clus>
<clus scale="  133.251">  2  5  1 -1</clus>
</clustering>
</event>
<event>
10    2  0.3984345E-006  0.1162785E+03  0.7546771E-02  0.1250075E+00
          1   -1    0    0  503    0 -0.00000000000E+00  0.00000000000E+00  0.25717884699E+03  0.25717884699E+03  0.00000000000E+00 0. -1.
         21   -1    0    0  501  502  0.00000000000E+00 -0.00000000000E+00 -0.14028153808E+03  0.14028153808E+03  0.00000000000E+00 0.  1.
         23    2    1    2    0    0  0.57804821513E+02  0.50818693237E+02  0.12949619119E+03  0.17680665001E+03  0.92560201939E+02 0.  0.
         23    2    1    2    0    0 -0.93593365068E+02 -0.37137632843E+02 -0.22119456104E+02  0.13717792164E+03  0.90496354005E+02 0.  0.
        -11    1    4    4    0    0 -0.51181225413E+02 -0.62377564596E+02 -0.32075914321E+02  0.86829388338E+02  0.00000000000E+00 0.  1.
         11    1    4    4    0    0 -0.42412139655E+02  0.25239931753E+02  0.99564582166E+01  0.50348533298E+02  0.00000000000E+00 0. -1.
        -11    1    3    3    0    0  0.27460673922E+02 -0.79421201258E+01 -0.29796238913E+01  0.28740981940E+02  0.00000000000E+00 0.  1.
         11    1    3    3    0    0  0.30344147591E+02  0.58760813362E+02  0.13247581508E+03  0.14806566807E+03  0.00000000000E+00 0. -1.
         21    1    1    2  503  502 -0.13385371910E+02 -0.26555866895E+02  0.13147370257E+02  0.32515159424E+02  0.00000000000E+00 0. -1.
          1    1    1    2  501    0  0.49173915465E+02  0.12874806501E+02 -0.36267964267E+01  0.50960654008E+02  0.00000000000E+00 0. -1.
<scales pt_clust_5="13000.00000" pt_clust_6="13000.00000" pt_clust_7="13000.00000" pt_clust_8="13000.00000" pt_clust_9="29.73856" pt_clust_10="48.89632"></scales>
<clustering>
<clus scale="   29.739">  1  9  2 -1</clus>
<clus scale="   48.896">  2 10  1 -1</clus>
<clus scale="   90.496">  5  6 -1 -1</clus>
<clus scale="   92.560">  7  8 -1 -1</clus>
<clus scale="  114.642">  2  5  1 -1</clus>
<clus scale="   48.896">  2  5  1 -1</clus>
</clustering>
</event>
<event>
10    2  0.3984345E-006  0.1211621E+03  0.7546771E-02  0.1245786E+00
         21   -1    0    0  503  502  0.00000000000E+00  0.00000000000E+00  0.99913284027E+03  0.99913284027E+03  0.00000000000E+00 0.  1.
         -1   -1    0    0    0  501 -0.00000000000E+00 -0.00000000000E+00 -0.44501870573E+02  0.44501870573E+02  0.00000000000E+00 0.  1.
         23    2    1    2    0    0  0.26042575954E+02  0.36628794772E+02  0.12674472221E+03  0.16127523522E+03  0.89025796924E+02 0.  0.
         23    2    1    2    0    0 -0.71003589962E+02 -0.62207062950E+02  0.44756386961E+03  0.46865360019E+03  0.10203700859E+03 0.  0.
        -11    1    4    4    0    0 -0.10170603789E+02 -0.53229312170E+02  0.84260542491E+02  0.10018303188E+03  0.00000000000E+00 0.  1.
         11    1    4    4    0    0 -0.60832986173E+02 -0.89777507805E+01  0.36330332712E+03  0.36847056831E+03  0.00000000000E+00 0. -1.
        -13    1    3    3    0    0  0.24357284510E+02 -0.11997748732E+02  0.10414649950E+03  0.10762767600E+03  0.00000000000E+00 0. -1.
         13    1    3    3    0    0  0.16852914440E+01  0.48626543504E+02  0.22598222711E+02  0.53647559219E+02  0.00000000000E+00 0.  1.
         21    1    1    2  503  501  0.49816374575E+02 -0.29928902239E+02  0.44246026292E+02  0.73041914047E+02  0.00000000000E+00 0.  1.
         -1    1    1    2    0  502 -0.48553605667E+01  0.55507170417E+02  0.33607635158E+03  0.34066396139E+03  0.00000000000E+00 0.  1.
<scales pt_clust_5="13000.00000" pt_clust_6="13000.00000" pt_clust_7="13000.00000" pt_clust_8="13000.00000" pt_clust_9="55.35386" pt_clust_10="55.71912"></scales>
<clustering>
<clus scale="   55.719">  1 10  2 -1</clus>
<clus scale="   55.354">  2  9  1 -1</clus>
<clus scale="   89.026">  7  8 -1 -1</clus>
<clus scale="  102.037">  5  6 -1 -1</clus>
<clus scale="  110.428">  2  7  1 -1</clus>
<clus scale="   55.719">  1  5  2 -1</clus>
</clustering>
</event>
<event>
10    2  0.3984345E-006  0.1159450E+03  0.7546771E-02  0.1251126E+00
          1   -1    0    0  503    0 -0.00000000000E+00  0.00000000000E+00  0.32448293051E+03  0.32448293051E+03  0.00000000000E+00 0. -1.
         21   -1    0    0  501  502  0.00000000000E+00 -0.00000000000E+00 -0.27894399876E+03  0.27894399876E+03  0.00000000000E+00 0. -1.
         23    2    1    2    0    0  0.49450446797E+02  0.11451122329E+03  0.14225780143E+03  0.21043593719E+03  0.92129445056E+02 0.  0.
         23    2    1    2    0    0 -0.44402785531E+02 -0.29597475119E+01  0.55846816348E+02  0.11386651778E+03  0.88692443350E+02 0.  0.
        -11    1    3    3    0    0 -0.22249344390E+02  0.36889679103E+02  0.16389150885E+02  0.46092147020E+02  0.00000000000E+00 0.  1.
         11    1    3    3    0    0  0.71699791187E+02  0.77621544186E+02  0.12586865054E+03  0.16434379017E+03  0.00000000000E+00 0. -1.
        -13    1    4    4    0    0 -0.67326808357E+01  0.40877979185E+02  0.23707801311E+02  0.47732567671E+02  0.00000000000E+00 0. -1.
         13    1    4    4    0    0 -0.37670104695E+02 -0.43837726697E+02  0.32139015037E+02  0.66133950111E+02  0.00000000000E+00 0.  1.
         21    1    1    2  503  502  0.18043666224E+02 -0.55126932791E+02  0.44330727460E+02  0.73005246434E+02  0.00000000000E+00 0.  1.
          1    1    1    2  501    0 -0.23091327490E+02 -0.56424542986E+02 -0.19689641348E+03  0.20611922787E+03  0.00000000000E+00 0. -1.
<scales pt_clust_5="13000.00000" pt_clust_6="13000.00000" pt_clust_7="13000.00000" pt_clust_8="13000.00000" pt_clust_9="58.00476" pt_clust_10="61.73668"></scales>
<clustering>
<clus scale="   58.005">  1  9  2 -1</clus>
<clus scale="   61.737">  2 10  1 -1</clus>
<clus scale="   88.692">  7  8 -1 -1</clus>
<clus scale="   92.129">  5  6 -1 -1</clus>
<clus scale="  113.233">  2  7  1 -1</clus>
<clus scale="   61.737">  2  5  1 -1</clus>
</clustering>
</event>
<event>
10    2  0.3984345E-006  0.1186406E+03  0.7546771E-02  0.1245374E+00
         -4   -1    0    0    0  501 -0.00000000000E+00  0.00000000000E+00  0.41965509261E+03  0.41965509261E+03  0.00000000000E+00 0.  1.
         21   -1    0    0  503  502  0.00000000000E+00 -0.00000000000E+00 -0.89865568358E+02  0.89865568358E+02  0.00000000000E+00 0. -1.
         23    2    1    2    0    0 -0.78693282356E+02 -0.12229324658E+02  0.26908694428E+03  0.29488064790E+03  0.90579378728E+02 0.  0.
         23    2    1    2    0    0  0.61885867081E+02  0.55291658912E+01 -0.11268702055E+02  0.11046248968E+03  0.90634131326E+02 0.  0.
        -13    1    4    4    0    0 -0.18326667852E+02  0.13526779423E+02  0.13065657760E+02  0.26259320799E+02  0.00000000000E+00 0.  1.
         13    1    4    4    0    0  0.80212534933E+02 -0.79976135318E+01 -0.24334359816E+02  0.84203168885E+02  0.00000000000E+00 0. -1.
        -13    1    3    3    0    0 -0.90157235294E+02 -0.29838408321E+02  0.18190710096E+03  0.20520441288E+03  0.00000000000E+00 0.  1.
         13    1    3    3    0    0  0.11463952938E+02  0.17609083663E+02  0.87179843321E+02  0.89676235011E+02  0.00000000000E+00 0. -1.
         21    1    1    2  503  501 -0.56108165715E+01  0.36586730024E+02  0.27596116178E+02  0.46169423915E+02  0.00000000000E+00 0. -1.
         -4    1    1    2    0  502  0.22418231846E+02 -0.29886571257E+02  0.44375165848E+02  0.58008099474E+02  0.00000000000E+00 0.  1.
<scales pt_clust_5="13000.00000" pt_clust_6="13000.00000" pt_clust_7="13000.00000" pt_clust_8="13000.00000" pt_clust_9="37.01446" pt_clust_10="34.63106"></scales>
<clustering>
<clus scale="   37.014">  2  9  1 -1</clus>
<clus scale="   34.631">  2 10  1 -1</clus>
<clus scale="   90.579">  7  8 -1 -1</clus>
<clus scale="   90.634">  5  6 -1 -1</clus>
<clus scale="  118.599">  1  7  2 -1</clus>
<clus scale="   37.014">  2  5  1 -1</clus>
</clustering>
</event>
<event>
10    2  0.3984345E-006  0.9842613E+02  0.7546771E-02  0.1283688E+00
         -3   -1    0    0    0  501 -0.00000000000E+00  0.00000000000E+00  0.10818648841E+03  0.10818648841E+03  0.00000000000E+00 0.  1.
         21   -1    0    0  503  502  0.00000000000E+00 -0.00000000000E+00 -0.17343727169E+03  0.17343727169E+03  0.00000000000E+00 0. -1.
         23    2    1    2    0    0 -0.21916278286E+02  0.45365253550E+02  0.16626015538E+02  0.10619230439E+03  0.91989410455E+02 0.  0.
         23    2    1    2    0    0  0.26964564264E+02 -0.14149739324E+02 -0.38511727361E+02  0.10435466267E+03  0.92083872788E+02 0.  0.
        -11    1    3    3    0    0 -0.10454567879E+02 -0.25539452370E+02 -0.10342852662E+02  0.29470938534E+02  0.00000000000E+00 0.  1.
         11    1    3    3    0    0 -0.11461710407E+02  0.70904705920E+02  0.26968868200E+02  0.76721365857E+02  0.00000000000E+00 0. -1.
        -13    1    4    4    0    0  0.52802731384E+02 -0.29534116042E+02 -0.42617365824E+02  0.74004272321E+02  0.00000000000E+00 0.  1.
         13    1    4    4    0    0 -0.25838167119E+02  0.15384376718E+02  0.41056384633E+01  0.30350390348E+02  0.00000000000E+00 0. -1.
         21    1    1    2  503  501  0.13011451497E+02 -0.20288254734E+02 -0.14487537868E+01  0.24145600794E+02  0.00000000000E+00 0.  1.
         -3    1    1    2    0  502 -0.18059737475E+02 -0.10927259492E+02 -0.41916317674E+02  0.46931192240E+02  0.00000000000E+00 0.  1.
<scales pt_clust_5="13000.00000" pt_clust_6="13000.00000" pt_clust_7="13000.00000" pt_clust_8="13000.00000" pt_clust_9="24.13833" pt_clust_10="21.10827"></scales>
<clustering>
<clus scale="   21.108">  2 10  1 -1</clus>
<clus scale="   24.138">  1  9  2 -1</clus>
<clus scale="   91.989">  5  6 -1 -1</clus>
<clus scale="   92.084">  7  8 -1 -1</clus>
<clus scale="   98.338">  1  5  2 -1</clus>
<clus scale="   21.108">  2  5  1 -1</clus>
</clustering>
</event>
<event>
10    2  0.3984345E-006  0.1877232E+03  0.7546771E-02  0.1188180E+00
         -2   -1    0    0    0  501 -0.00000000000E+00  0.00000000000E+00  0.45460449706E+02  0.45460449706E+02  0.00000000000E+00 0.  1.
         21   -1    0    0  503  502  0.00000000000E+00 -0.00000000000E+00 -0.15351163601E+04  0.15351163601E+04  0.00000000000E+00 0.  1.
         23    2    1    2    0    0  0.12843729992E+02 -0.12189983515E+02 -0.28006879579E+03  0.29759312096E+03  0.99043314613E+02 0.  0.
         23    2    1    2    0    0  0.10551992120E+03 -0.12361427505E+03 -0.41402585839E+03  0.45390334434E+03  0.90531164957E+02 0.  0.
        -13    1    4    4    0    0  0.45832731367E+02 -0.11352719713E+03 -0.31350926245E+03  0.33656666709E+03  0.00000000000E+00 0.  1.
         13    1    4    4    0    0  0.59687189829E+02 -0.10087077917E+02 -0.10051659593E+03  0.11733667725E+03  0.00000000000E+00 0. -1.
        -13    1    3    3    0    0  0.52502520461E+02  0.10076484705E+02 -0.12403380694E+03  0.13506456036E+03  0.00000000000E+00 0.  1.
         13    1    3    3    0    0 -0.39658790469E+02 -0.22266468220E+02 -0.15603498884E+03  0.16252856060E+03  0.00000000000E+00 0. -1.
         21    1    1    2  503  501 -0.40356436359E+02 -0.11381291498E+02 -0.50568846585E+02  0.65691582388E+02  0.00000000000E+00 0.  1.
         -2    1    1    2    0  502 -0.78007214829E+02  0.14718555006E+03 -0.74499240960E+03  0.76338876208E+03  0.00000000000E+00 0.  1.
<scales pt_clust_5="13000.00000" pt_clust_6="13000.00000" pt_clust_7="13000.00000" pt_clust_8="13000.00000" pt_clust_9="41.93061" pt_clust_10="164.45093"></scales>
<clustering>
<clus scale="   41.931">  1  9  2 -1</clus>
<clus scale="   90.531">  5  6 -1 -1</clus>
<clus scale="   99.043">  7  8 -1 -1</clus>
<clus scale="  100.208">  1  7  2 -1</clus>
<clus scale="  164.451">  2 10  1 -1</clus>
<clus scale="  164.451">  2  5  1 -1</clus>
</clustering>
</event>
<event>
10    2  0.3984345E-006  0.2760909E+03  0.7546771E-02  0.1098108E+00
         21   -1    0    0  501  502  0.00000000000E+00  0.00000000000E+00  0.21998371256E+03  0.21998371256E+03  0.00000000000E+00 0. -1.
          2   -1    0    0  503    0 -0.00000000000E+00 -0.00000000000E+00 -0.11852049633E+04  0.11852049633E+04  0.00000000000E+00 0. -1.
         23    2    1    2    0    0 -0.11237567646E+01 -0.21150795696E+03 -0.80141738432E+03  0.83432711876E+03  0.95367911424E+02 0.  0.
         23    2    1    2    0    0  0.26378233151E+02  0.20013530229E+03  0.32274568311E+02  0.22325999868E+03  0.89740898400E+02 0.  0.
        -13    1    3    3    0    0 -0.18684215653E+02 -0.12611604477E+03 -0.30927061459E+03  0.33451856407E+03  0.00000000000E+00 0. -1.
         13    1    3    3    0    0  0.17560458888E+02 -0.85391912193E+02 -0.49214676973E+03  0.49980855469E+03  0.00000000000E+00 0.  1.
        -13    1    4    4    0    0  0.53761574175E+02  0.73227337501E+02  0.18441411956E+02  0.92696469675E+02  0.00000000000E+00 0. -1.
         13    1    4    4    0    0 -0.27383341023E+02  0.12690796479E+03  0.13833156355E+02  0.13056352901E+03  0.00000000000E+00 0.  1.
         21    1    1    2  503  502  0.69302767316E+02 -0.79086404305E+02 -0.18932684599E+03  0.21656912872E+03  0.00000000000E+00 0. -1.
          2    1    1    2  501    0 -0.94557243703E+02  0.90459058979E+02 -0.67515887685E+01  0.13103242972E+03  0.00000000000E+00 0. -1.
<scales pt_clust_5="13000.00000" pt_clust_6="13000.00000" pt_clust_7="13000.00000" pt_clust_8="13000.00000" pt_clust_9="105.15480" pt_clust_10="123.51342"></scales>
<clustering>
<clus scale="   89.741">  7  8 -1 -1</clus>
<clus scale="   95.368">  5  6 -1 -1</clus>
<clus scale="  105.155">  2  9  1 -1</clus>
<clus scale="  123.513">  1 10  2 -1</clus>
<clus scale="  274.198">  1  7  2 -1</clus>
<clus scale="  123.513">  1  5  2 -1</clus>
</clustering>
</event>
<event>
10    2  0.3984345E-006  0.1667357E+03  0.7546771E-02  0.1182624E+00
         -1   -1    0    0    0  501 -0.00000000000E+00  0.00000000000E+00  0.58933035536E+03  0.58933035536E+03  0.00000000000E+00 0.  1.
         21   -1    0    0  503  502  0.00000000000E+00 -0.00000000000E+00 -0.14248730813E+03  0.14248730813E+03  0.00000000000E+00 0.  1.
         23    2    1    2    0    0 -0.14320871208E+02 -0.10163328632E+03  0.14793820998E+03  0.20169225931E+03  0.90882568477E+02 0.  0.
         23    2    1    2    0    0  0.40019062353E+02  0.17882609780E+03  0.26358484293E+03  0.33122542161E+03  0.81565997179E+02 0.  0.
        -11    1    3    3    0    0  0.67675861566E+01 -0.10007823064E+03  0.14999821683E+03  0.18044643948E+03  0.00000000000E+00 0. -1.
         11    1    3    3    0    0 -0.21088457365E+02 -0.15550556851E+01 -0.20600068428E+01  0.21245819834E+02  0.00000000000E+00 0.  1.
        -11    1    4    4    0    0  0.38834999889E+02  0.41573735810E+02  0.42556566594E+02  0.71046422048E+02  0.00000000000E+00 0. -1.
         11    1    4    4    0    0  0.11840624642E+01  0.13725236199E+03  0.22102827633E+03  0.26017899956E+03  0.00000000000E+00 0.  1.
         21    1    1    2  503  501 -0.72162331216E+00 -0.20799322880E+02  0.10430648664E+03  0.10636247331E+03  0.00000000000E+00 0. -1.
         -1    1    1    2    0  502 -0.24976567833E+02 -0.56393488595E+02 -0.68986492319E+02  0.92537509255E+02  0.00000000000E+00 0.  1.
<scales pt_clust_5="13000.00000" pt_clust_6="13000.00000" pt_clust_7="13000.00000" pt_clust_8="13000.00000" pt_clust_9="20.81184" pt_clust_10="62.14711"></scales>
<clustering>
<clus scale="   20.812">  1  9  2 -1</clus>
<clus scale="   62.147">  2 10  1 -1</clus>
<clus scale="   81.566">  7  8 -1 -1</clus>
<clus scale="   90.883">  5  6 -1 -1</clus>
<clus scale="  161.846">  2  7  1 -1</clus>
<clus scale="   62.147">  2  5  1 -1</clus>
</clustering>
</event>
<event>
10    2  0.3984345E-006  0.1041445E+03  0.7546771E-02  0.1272944E+00
          2   -1    0    0  503    0 -0.00000000000E+00  0.00000000000E+00  0.29370037175E+03  0.29370037175E+03  0.00000000000E+00 0. -1.
         21   -1    0    0  501  502  0.00000000000E+00 -0.00000000000E+00 -0.15066463596E+03  0.15066463596E+03  0.00000000000E+00 0.  1.
         23    2    1    2    0    0 -0.31356875634E+02 -0.88774492151E+01  0.17593388317E+03  0.20080646916E+03  0.91150666796E+02 0.  0.
         23    2    1    2    0    0  0.54269261162E+02  0.21625484558E+02 -0.72566324297E+02  0.13209431136E+03  0.93649460126E+02 0.  0.
        -13    1    3    3    0    0 -0.11088296761E+02 -0.49673228108E+02  0.84259927553E+02  0.98438383301E+02  0.00000000000E+00 0.  1.
         13    1    3    3    0    0 -0.20268578873E+02  0.40795778893E+02  0.91673955612E+02  0.10236808586E+03  0.00000000000E+00 0. -1.
        -13    1    4    4    0    0  0.37887525938E+02 -0.82403168515E+01  0.12275178614E+02  0.40669982217E+02  0.00000000000E+00 0. -1.
         13    1    4    4    0    0  0.16381735224E+02  0.29865801409E+02 -0.84841502911E+02  0.91424329142E+02  0.00000000000E+00 0.  1.
         21    1    1    2  503  502 -0.15633393697E+02  0.19933275179E+02  0.64815496823E+02  0.69590136415E+02  0.00000000000E+00 0. -1.
          2    1    1    2  501    0 -0.72789918313E+01 -0.32681310522E+02 -0.25147319904E+02  0.41874090771E+02  0.00000000000E+00 0. -1.
<scales pt_clust_5="13000.00000" pt_clust_6="13000.00000" pt_clust_7="13000.00000" pt_clust_8="13000.00000" pt_clust_9="25.33256" pt_clust_10="32.89713"></scales>
<clustering>
<clus scale="   25.333">  1  9  2 -1</clus>
<clus scale="   32.897">  2 10  1 -1</clus>
<clus scale="   91.151">  5  6 -1 -1</clus>
<clus scale="   93.649">  7  8 -1 -1</clus>
<clus scale="  101.903">  1  5  2 -1</clus>
<clus scale="   32.897">  2  5  1 -1</clus>
</clustering>
</event>
<event>
10    2  0.3984345E-006  0.1496876E+03  0.7546771E-02  0.1202632E+00
         -4   -1    0    0    0  501 -0.00000000000E+00  0.00000000000E+00  0.10658327888E+03  0.10658327888E+03  0.00000000000E+00 0.  1.
         21   -1    0    0  503  502  0.00000000000E+00 -0.00000000000E+00 -0.10059152244E+04  0.10059152244E+04  0.00000000000E+00 0.  1.
         23    2    1    2    0    0  0.22436938187E+02 -0.50520502032E+02 -0.64721023547E+02  0.12571372444E+03  0.92516983861E+02 0.  0.
         23    2    1    2    0    0 -0.41043934327E+02  0.21335777251E+03 -0.19047324935E+03  0.30064603246E+03  0.83077280169E+02 0.  0.
        -11    1    4    4    0    0 -0.53901344665E+02  0.10302032902E+03 -0.12908438918E+03  0.17372772570E+03  0.00000000000E+00 0.  1.
         11    1    4    4    0    0  0.12857410337E+02  0.11033744350E+03 -0.61388860170E+02  0.12691830676E+03  0.00000000000E+00 0. -1.
        -13    1    3    3    0    0 -0.77839587006E+01 -0.46369643275E+02  0.72227961118E+01  0.47569975974E+02  0.00000000000E+00 0. -1.
         13    1    3    3    0    0  0.30220896888E+02 -0.41508587568E+01 -0.71943819659E+02  0.78143748465E+02  0.00000000000E+00 0.  1.
         21    1    1    2  503  501 -0.12566947284E+02 -0.53866448739E+02 -0.32639241274E+02  0.64224937016E+02  0.00000000000E+00 0. -1.
         -4    1    1    2    0  502  0.31173943425E+02 -0.10897082174E+03 -0.61149843134E+03  0.62191380936E+03  0.00000000000E+00 0.  1.
<scales pt_clust_5="13000.00000" pt_clust_6="13000.00000" pt_clust_7="13000.00000" pt_clust_8="13000.00000" pt_clust_9="55.31295" pt_clust_10="116.12478"></scales>
<clustering>
<clus scale="   55.313">  1  9  2 -1</clus>
<clus scale="   83.077">  5  6 -1 -1</clus>
<clus scale="   92.517">  7  8 -1 -1</clus>
<clus scale="  116.125">  2 10  1 -1</clus>
<clus scale="  144.044">  2  5  1 -1</clus>
<clus scale="  116.125">  2  5  1 -1</clus>
</clustering>
</event>
<event>
10    2  0.3984345E-006  0.2990913E+03  0.7546771E-02  0.1085749E+00
         21   -1    0    0  501  502  0.00000000000E+00  0.00000000000E+00  0.63963376712E+03  0.63963376712E+03  0.00000000000E+00 0. -1.
          3   -1    0    0  503    0 -0.00000000000E+00 -0.00000000000E+00 -0.44458924902E+03  0.44458924902E+03  0.00000000000E+00 0. -1.
         23    2    1    2    0    0 -0.14855897623E+03  0.22030029379E+03 -0.47551162999E+02  0.28384757807E+03  0.87785793899E+02 0.  0.
         23    2    1    2    0    0  0.49287377833E+02 -0.32014315766E+03 -0.35521670848E+02  0.33710185345E+03  0.86342246276E+02 0.  0.
        -11    1    3    3    0    0 -0.86652235527E+02  0.18954654756E+03 -0.19772840572E+02  0.20935011067E+03  0.00000000000E+00 0.  1.
         11    1    3    3    0    0 -0.61906740706E+02  0.30753746231E+02 -0.27778322428E+02  0.74497467400E+02  0.00000000000E+00 0. -1.
        -13    1    4    4    0    0 -0.24577690969E+02 -0.77788692471E+02 -0.26984932025E+01  0.81623681829E+02  0.00000000000E+00 0.  1.
         13    1    4    4    0    0  0.73865068802E+02 -0.24235446518E+03 -0.32823177646E+02  0.25547817162E+03  0.00000000000E+00 0. -1.
         21    1    1    2  503  502 -0.15485257094E+02  0.14690522921E+02 -0.77306410511E+02  0.80199038380E+02  0.00000000000E+00 0. -1.
          3    1    1    2  501    0  0.11475685549E+03  0.85152340942E+02  0.35542376246E+03  0.38307454624E+03  0.00000000000E+00 0. -1.
<scales pt_clust_5="13000.00000" pt_clust_6="13000.00000" pt_clust_7="13000.00000" pt_clust_8="13000.00000" pt_clust_9="21.34490" pt_clust_10="142.76184"></scales>
<clustering>
<clus scale="   21.345">  2  9  1 -1</clus>
<clus scale="   86.342">  7  8 -1 -1</clus>
<clus scale="   87.786">  5  6 -1 -1</clus>
<clus scale="  142.762">  1 10  2 -1</clus>
<clus scale="  298.671">  1  7  2 -1</clus>
<clus scale="  142.762">  1  5  2 -1</clus>
</clustering>
</event>
<event>
10    2  0.3984345E-006  0.1226852E+03  0.7546771E-02  0.1240110E+00
          1   -1    0    0  503    0 -0.00000000000E+00  0.00000000000E+00  0.12678172105E+03  0.12678172105E+03  0.00000000000E+00 0. -1.
         21   -1    0    0  501  502  0.00000000000E+00 -0.00000000000E+00 -0.28292101870E+03  0.28292101870E+03  0.00000000000E+00 0. -1.
         23    2    1    2    0    0 -0.10024398962E+02  0.75681873421E+02 -0.23990891437E+02  0.12070190596E+03  0.90361234456E+02 0.  0.
         23    2    1    2    0    0  0.89839317371E+02 -0.66531177327E+02 -0.12667672792E+03  0.19372654680E+03  0.94791777266E+02 0.  0.
        -11    1    3    3    0    0  0.37053094761E+02  0.55665049793E+02 -0.17608504972E+02  0.69149035042E+02  0.00000000000E+00 0. -1.
         11    1    3    3    0    0 -0.47077493723E+02  0.20016823628E+02 -0.63823864654E+01  0.51552870923E+02  0.00000000000E+00 0.  1.
        -13    1    4    4    0    0  0.56323679556E+02 -0.88219392903E+02 -0.76689912149E+02  0.12975500294E+03  0.00000000000E+00 0. -1.
         13    1    4    4    0    0  0.33515637815E+02  0.21688215576E+02 -0.49986815770E+02  0.63971543861E+02  0.00000000000E+00 0.  1.
         21    1    1    2  503  502 -0.11805353708E+02 -0.19591798637E+02  0.96498410823E+01  0.24825881312E+02  0.00000000000E+00 0.  1.
          1    1    1    2  501    0 -0.68009564702E+02  0.10441102543E+02 -0.15121519383E+02  0.70448405672E+02  0.00000000000E+00 0. -1.
<scales pt_clust_5="13000.00000" pt_clust_6="13000.00000" pt_clust_7="13000.00000" pt_clust_8="13000.00000" pt_clust_9="22.87367" pt_clust_10="71.20308"></scales>
<clustering>
<clus scale="   22.874">  1  9  2 -1</clus>
<clus scale="   71.203">  2 10  1 -1</clus>
<clus scale="   90.361">  5  6 -1 -1</clus>
<clus scale="   94.792">  7  8 -1 -1</clus>
<clus scale="  119.295">  1  5  2 -1</clus>
<clus scale="   71.203">  2  5  1 -1</clus>
</clustering>
</event>
<event>
10    2  0.3984345E-006  0.9485507E+02  0.7546771E-02  0.1291911E+00
         21   -1    0    0  503  502  0.00000000000E+00  0.00000000000E+00  0.17038853018E+03  0.17038853018E+03  0.00000000000E+00 0.  1.
         -1   -1    0    0    0  501 -0.00000000000E+00 -0.00000000000E+00 -0.19187591527E+03  0.19187591527E+03  0.00000000000E+00 0.  1.
         23    2    1    2    0    0  0.54706045472E+02  0.28959573767E+02 -0.66652042801E+02  0.12893956818E+03  0.91386591519E+02 0.  0.
         23    2    1    2    0    0  0.51159616189E+01  0.71671450970E+01 -0.20108275635E+02  0.94707700886E+02  0.92128523412E+02 0.  0.
        -11    1    3    3    0    0 -0.28730937667E+01  0.32651718551E+02  0.88158904327E+01  0.33942735839E+02  0.00000000000E+00 0.  1.
         11    1    3    3    0    0  0.57579139239E+02 -0.36921447843E+01 -0.75467933234E+02  0.94996832343E+02  0.00000000000E+00 0. -1.
        -11    1    4    4    0    0 -0.27554378972E+02  0.36129141739E+02  0.25691635890E+01  0.45509991045E+02  0.00000000000E+00 0.  1.
         11    1    4    4    0    0  0.32670340591E+02 -0.28961996642E+02 -0.22677439224E+02  0.49197709841E+02  0.00000000000E+00 0. -1.
         21    1    1    2  503  501 -0.44717324182E+02 -0.12862574754E+02 -0.18725867530E+02  0.50157183195E+02  0.00000000000E+00 0.  1.
         -1    1    1    2    0  502 -0.15104682910E+02 -0.23264144109E+02  0.83998800873E+02  0.88459993190E+02  0.00000000000E+00 0.  1.
<scales pt_clust_5="13000.00000" pt_clust_6="13000.00000" pt_clust_7="13000.00000" pt_clust_8="13000.00000" pt_clust_9="50.55622" pt_clust_10="27.73755"></scales>
<clustering>
<clus scale="   27.738">  1 10  2 -1</clus>
<clus scale="   50.556">  2  9  1 -1</clus>
<clus scale="   91.387">  5  6 -1 -1</clus>
<clus scale="   92.129">  7  8 -1 -1</clus>
<clus scale="   94.135">  2  5  1 -1</clus>
<clus scale="   27.738">  1  5  2 -1</clus>
</clustering>
</event>
<event>
10    2  0.3984345E-006  0.2072169E+03  0.7546771E-02  0.1144096E+00
          1   -1    0    0  503    0 -0.00000000000E+00  0.00000000000E+00  0.44186008182E+03  0.44186008182E+03  0.00000000000E+00 0. -1.
         21   -1    0    0  501  502  0.00000000000E+00 -0.00000000000E+00 -0.22251208145E+03  0.22251208145E+03  0.00000000000E+00 0.  1.
         23    2    1    2    0    0 -0.21432184056E+03 -0.78627664660E+02  0.19709514109E+03  0.31715526948E+03  0.98106112582E+02 0.  0.
         23    2    1    2    0    0  0.88713125539E+02  0.50939040115E+02 -0.56056785587E+02  0.15446246541E+03  0.10124962004E+03 0.  0.
        -11    1    3    3    0    0 -0.14245774382E+03 -0.99334432635E+02  0.13597721492E+03  0.22057049046E+03  0.00000000000E+00 0. -1.
         11    1    3    3    0    0 -0.71864096733E+02  0.20706767975E+02  0.61117926164E+02  0.96584779017E+02  0.00000000000E+00 0.  1.
        -13    1    4    4    0    0  0.59918896079E+02  0.81046646052E+02 -0.29352203682E+02  0.10497802058E+03  0.00000000000E+00 0.  1.
         13    1    4    4    0    0  0.28794229460E+02 -0.30107605936E+02 -0.26704581905E+02  0.49484444830E+02  0.00000000000E+00 0. -1.
         21    1    1    2  503  502 -0.45288859469E+01  0.23939710491E+02  0.55456047222E+02  0.60572219043E+02  0.00000000000E+00 0. -1.
          1    1    1    2  501    0  0.13013760096E+03  0.37489140538E+01  0.22853597652E+02  0.13218220934E+03  0.00000000000E+00 0. -1.
<scales pt_clust_5="13000.00000" pt_clust_6="13000.00000" pt_clust_7="13000.00000" pt_clust_8="13000.00000" pt_clust_9="24.36433" pt_clust_10="129.50775"></scales>
<clustering>
<clus scale="   24.364">  1  9  2 -1</clus>
<clus scale="   98.106">  5  6 -1 -1</clus>
<clus scale="  101.250">  7  8 -1 -1</clus>
<clus scale="  129.508">  2 10  1 -1</clus>
<clus scale="  205.699">  1  5  2 -1</clus>
<clus scale="  129.508">  2  5  1 -1</clus>
</clustering>
</event>
<event>
10    2  0.3984345E-006  0.1293005E+03  0.7546771E-02  0.1229027E+00
         21   -1    0    0  501  502  0.00000000000E+00  0.00000000000E+00  0.43126998537E+02  0.43126998537E+02  0.00000000000E+00 0. -1.
          3   -1    0    0  503    0 -0.00000000000E+00 -0.00000000000E+00 -0.90780010296E+03  0.90780010296E+03  0.00000000000E+00 0. -1.
         23    2    1    2    0    0  0.53014000484E+02  0.79598647682E+02 -0.71599270328E+03  0.72818423291E+03  0.91979872471E+02 0.  0.
         23    2    1    2    0    0 -0.28268851337E+02 -0.63016006312E+02 -0.82058230087E+02  0.14000652993E+03  0.89989612123E+02 0.  0.
        -11    1    4    4    0    0 -0.22962300702E+01  0.21295375015E+02 -0.32194823166E+02  0.38668751057E+02  0.00000000000E+00 0.  1.
         11    1    4    4    0    0 -0.25972621267E+02 -0.84311381327E+02 -0.49863406921E+02  0.10133777887E+03  0.00000000000E+00 0. -1.
        -13    1    3    3    0    0 -0.26233648296E+02  0.26513390368E+02 -0.20473678614E+03  0.20810650103E+03  0.00000000000E+00 0.  1.
         13    1    3    3    0    0  0.79247648781E+02  0.53085257315E+02 -0.51125591714E+03  0.52007773188E+03  0.00000000000E+00 0. -1.
         21    1    1    2  503  502  0.34768543560E+01 -0.20289624139E+02 -0.27169841143E+02  0.34087499639E+02  0.00000000000E+00 0. -1.
          3    1    1    2  501    0 -0.28222003503E+02  0.37069827681E+01 -0.39452329907E+02  0.48648839021E+02  0.00000000000E+00 0. -1.
<scales pt_clust_5="13000.00000" pt_clust_6="13000.00000" pt_clust_7="13000.00000" pt_clust_8="13000.00000" pt_clust_9="20.58537" pt_clust_10="27.85196"></scales>
<clustering>
<clus scale="   20.585">  1  9  2 -1</clus>
<clus scale="   27.852">  1 10  2 -1</clus>
<clus scale="   89.990">  5  6 -1 -1</clus>
<clus scale="   91.980">  7  8 -1 -1</clus>
<clus scale="  127.892">  1  5  2 -1</clus>
<clus scale="   20.585">  1  5  2 -1</clus>
</clustering>
</event>
<event>
10    2  0.3984345E-006  0.1110850E+03  0.7546771E-02  0.1259374E+00
         -3   -1    0    0    0  501 -0.00000000000E+00  0.00000000000E+00  0.12694207559E+03  0.12694207559E+03  0.00000000000E+00 0.  1.
         21   -1    0    0  503  502  0.00000000000E+00 -0.00000000000E+00 -0.28963333765E+03  0.28963333765E+03  0.00000000000E+00 0. -1.
         23    2    1    2    0    0  0.84563838850E+02  0.70791175879E+01 -0.53781281926E+02  0.13435006362E+03  0.89198411211E+02 0.  0.
         23    2    1    2    0    0 -0.36675838776E+02 -0.20571841151E+02 -0.15361902869E+03  0.18359230540E+03  0.91318184546E+02 0.  0.
        -13    1    3    3    0    0  0.76158102842E+02  0.32138085999E+02 -0.65471815967E+02  0.10544890652E+03  0.00000000000E+00 0. -1.
         13    1    3    3    0    0  0.84057360080E+01 -0.25058968411E+02  0.11690534040E+02  0.28901157102E+02  0.00000000000E+00 0.  1.
        -13    1    4    4    0    0 -0.67022580140E+02 -0.99057972365E+01 -0.94324302769E+02  0.11613451322E+03  0.00000000000E+00 0.  1.
         13    1    4    4    0    0  0.30346741365E+02 -0.10666043914E+02 -0.59294725920E+02  0.67457792183E+02  0.00000000000E+00 0. -1.
         21    1    1    2  503  501 -0.23189582912E+02  0.18984250180E+02  0.61398907473E+02  0.68322648876E+02  0.00000000000E+00 0.  1.
         -3    1    1    2    0  502 -0.24698417162E+02 -0.54915266176E+01 -0.16689858914E+02  0.30310395337E+02  0.00000000000E+00 0.  1.
<scales pt_clust_5="13000.00000" pt_clust_6="13000.00000" pt_clust_7="13000.00000" pt_clust_8="13000.00000" pt_clust_9="30.17375" pt_clust_10="25.30155"></scales>
<clustering>
<clus scale="   25.302">  2 10  1 -1</clus>
<clus scale="   30.174">  1  9  2 -1</clus>
<clus scale="   89.198">  5  6 -1 -1</clus>
<clus scale="   91.318">  7  8 -1 -1</clus>
<clus scale="  109.349">  1  5  2 -1</clus>
<clus scale="   25.302">  2  5  1 -1</clus>
</clustering>
</event>
<event>
10    2  0.3984345E-006  0.9804154E+02  0.7546771E-02  0.1304546E+00
         -1   -1    0    0    0  501 -0.00000000000E+00  0.00000000000E+00  0.18062840245E+03  0.18062840245E+03  0.00000000000E+00 0.  1.
         21   -1    0    0  503  502  0.00000000000E+00 -0.00000000000E+00 -0.51227559798E+03  0.51227559798E+03  0.00000000000E+00 0.  1.
         23    2    1    2    0    0  0.51679538103E+02  0.75281613907E+01  0.49160602413E+02  0.91950065056E+02  0.57537828962E+02 0.  0.
         23    2    1    2    0    0 -0.27603319234E+02 -0.56345360433E+02 -0.97979160204E+02  0.14800102008E+03  0.91474822953E+02 0.  0.
        -11    1    3    3    0    0  0.31521447746E+02 -0.23508995191E+02  0.16697599356E+02  0.42721005924E+02  0.00000000000E+00 0.  1.
         11    1    3    3    0    0  0.20158090357E+02  0.31037156582E+02  0.32463003058E+02  0.49229059132E+02  0.00000000000E+00 0. -1.
        -11    1    4    4    0    0  0.75652192358E+01 -0.59954527212E+02 -0.22196187293E+02  0.64377392039E+02  0.00000000000E+00 0.  1.
         11    1    4    4    0    0 -0.35168538470E+02  0.36091667795E+01 -0.75782972911E+02  0.83623628038E+02  0.00000000000E+00 0. -1.
         21    1    1    2  503  501 -0.23383168771E+02 -0.12271467395E+02  0.80398271662E+02  0.84624131193E+02  0.00000000000E+00 0.  1.
         -1    1    1    2    0  502 -0.69305009831E+00  0.61088666437E+02 -0.36322690941E+03  0.36832878411E+03  0.00000000000E+00 0.  1.
<scales pt_clust_5="13000.00000" pt_clust_6="13000.00000" pt_clust_7="13000.00000" pt_clust_8="13000.00000" pt_clust_9="26.40760" pt_clust_10="60.78355"></scales>
<clustering>
<clus scale="   26.408">  1  9  2 -1</clus>
<clus scale="   57.538">  5  6 -1 -1</clus>
<clus scale="   60.784">  2 10  1 -1</clus>
<clus scale="   67.492">  1  5  2 -1</clus>
<clus scale="   91.475">  7  8 -1 -1</clus>
<clus scale="   60.784">  2  5  1 -1</clus>
</clustering>
</event>
<event>
10    2  0.4828971E-006  0.9639075E+02  0.7546771E-02  0.1288893E+00
         21   -1    0    0  501  502  0.00000000000E+00  0.00000000000E+00  0.14468206303E+03  0.14468206303E+03  0.00000000000E+00 0.  1.
          2   -1    0    0  503    0 -0.00000000000E+00 -0.00000000000E+00 -0.47695102497E+03  0.47695102497E+03  0.00000000000E+00 0. -1.
         23    2    1    2    0    0  0.17127024324E+02  0.20752791593E+02 -0.36845537014E+03  0.38075773407E+03  0.92157902256E+02 0.  0.
         23    2    1    2    0    0 -0.15260484556E+02 -0.53240464352E+01  0.17386859835E+02  0.93676192228E+02  0.90618421064E+02 0.  0.
        -11    1    4    4    0    0 -0.42403892860E+02  0.56068723039E+00  0.39668658307E+02  0.58068984421E+02  0.00000000000E+00 0.  1.
         11    1    4    4    0    0  0.27143408304E+02 -0.58847336656E+01 -0.22281798472E+02  0.35607207807E+02  0.00000000000E+00 0. -1.
        -11    1    3    3    0    0  0.19099768082E+02  0.56654756671E+02 -0.24344709049E+03  0.25068116894E+03  0.00000000000E+00 0. -1.
         11    1    3    3    0    0 -0.19727437576E+01 -0.35901965079E+02 -0.12500827965E+03  0.13007656513E+03  0.00000000000E+00 0.  1.
         21    1    1    2  503  502 -0.22345615920E+02  0.12685985149E+02 -0.57700271787E+02  0.63163139048E+02  0.00000000000E+00 0. -1.
          2    1    1    2  501    0  0.20479076152E+02 -0.28114730306E+02  0.76499820151E+02  0.84036022654E+02  0.00000000000E+00 0. -1.
<scales pt_clust_5="13000.00000" pt_clust_6="13000.00000" pt_clust_7="13000.00000" pt_clust_8="13000.00000" pt_clust_9="25.69554" pt_clust_10="34.57097"></scales>
<clustering>
<clus scale="   25.696">  2  9  1 -1</clus>
<clus scale="   34.571">  1 10  2 -1</clus>
<clus scale="   90.618">  5  6 -1 -1</clus>
<clus scale="   92.158">  7  8 -1 -1</clus>
<clus scale="   94.920">  1  5  2 -1</clus>
<clus scale="   34.571">  1  5  2 -1</clus>
</clustering>
</event>
<event>
10    2  0.3984345E-006  0.1371152E+03  0.7546771E-02  0.1217553E+00
         -1   -1    0    0    0  501 -0.00000000000E+00  0.00000000000E+00  0.28835404915E+03  0.28835404915E+03  0.00000000000E+00 0.  1.
         21   -1    0    0  503  502  0.00000000000E+00 -0.00000000000E+00 -0.16119727470E+03  0.16119727470E+03  0.00000000000E+00 0. -1.
         23    2    1    2    0    0 -0.39628397384E+02  0.65168985768E+02  0.66094723069E+02  0.13560957706E+03  0.90576146903E+02 0.  0.
         23    2    1    2    0    0  0.96920900644E+02 -0.84723907339E+02  0.22446440537E+02  0.15827912216E+03  0.89312016900E+02 0.  0.
        -13    1    4    4    0    0 -0.16332537338E+02 -0.14749822430E+02  0.11159687532E+02  0.24674838670E+02  0.00000000000E+00 0. -1.
         13    1    4    4    0    0  0.11325343798E+03 -0.69974084909E+02  0.11286753005E+02  0.13360428349E+03  0.00000000000E+00 0.  1.
        -13    1    3    3    0    0 -0.41442069228E+01  0.75109103061E+02  0.22477722406E+02  0.78509870833E+02  0.00000000000E+00 0. -1.
         13    1    3    3    0    0 -0.35484190461E+02 -0.99401172931E+01  0.43617000664E+02  0.57099706228E+02  0.00000000000E+00 0.  1.
         21    1    1    2  503  501 -0.76671770774E+02  0.64078775770E+01  0.78178676946E+02  0.10968831687E+03  0.00000000000E+00 0. -1.
         -1    1    1    2    0  502  0.19379267514E+02  0.13147043994E+02 -0.39563066093E+02  0.45974307758E+02  0.00000000000E+00 0.  1.
<scales pt_clust_5="13000.00000" pt_clust_6="13000.00000" pt_clust_7="13000.00000" pt_clust_8="13000.00000" pt_clust_9="74.54134" pt_clust_10="23.41796"></scales>
<clustering>
<clus scale="   23.418">  2 10  1 -1</clus>
<clus scale="   74.541">  1  9  2 -1</clus>
<clus scale="   89.312">  5  6 -1 -1</clus>
<clus scale="   90.576">  7  8 -1 -1</clus>
<clus scale="  136.283">  2  5  1 -1</clus>
<clus scale="   23.418">  2  5  1 -1</clus>
</clustering>
</event>
<event>
10    2  0.3984345E-006  0.1048475E+03  0.7546771E-02  0.1271969E+00
         21   -1    0    0  501  502  0.00000000000E+00  0.00000000000E+00  0.91228791238E+02  0.91228791238E+02  0.00000000000E+00 0.  1.
          1   -1    0    0  503    0 -0.00000000000E+00 -0.00000000000E+00 -0.63850936421E+03  0.63850936421E+03  0.00000000000E+00 0. -1.
         23    2    1    2    0    0  0.34150090253E+02 -0.28960010981E+02 -0.34247134532E+03  0.35726280760E+03  0.91351959059E+02 0.  0.
         23    2    1    2    0    0 -0.30522245600E+02  0.66346509833E+02  0.28381178891E+02  0.11766954520E+03  0.87790453398E+02 0.  0.
        -11    1    4    4    0    0 -0.38388324702E+02 -0.27566391755E+01 -0.78033927203E+01  0.39270287380E+02  0.00000000000E+00 0. -1.
         11    1    4    4    0    0  0.78660791020E+01  0.69103149008E+02  0.36184571611E+02  0.78399257815E+02  0.00000000000E+00 0.  1.
        -11    1    3    3    0    0  0.19195382417E+02  0.30660087818E+02 -0.81780379538E+02  0.89423342414E+02  0.00000000000E+00 0.  1.
         11    1    3    3    0    0  0.14954707835E+02 -0.59620098799E+02 -0.26069096579E+03  0.26783946518E+03  0.00000000000E+00 0. -1.
         21    1    1    2  503  502 -0.20197326217E+02 -0.19910974691E+02 -0.22852233331E+03  0.23027556475E+03  0.00000000000E+00 0. -1.
          1    1    1    2  501    0  0.16569481564E+02 -0.17475524161E+02 -0.46680732276E+01  0.24530237904E+02  0.00000000000E+00 0. -1.
<scales pt_clust_5="13000.00000" pt_clust_6="13000.00000" pt_clust_7="13000.00000" pt_clust_8="13000.00000" pt_clust_9="28.36782" pt_clust_10="24.08198"></scales>
<clustering>
<clus scale="   24.082">  1 10  2 -1</clus>
<clus scale="   28.368">  2  9  1 -1</clus>
<clus scale="   87.790">  5  6 -1 -1</clus>
<clus scale="   91.352">  7  8 -1 -1</clus>
<clus scale="  101.759">  1  5  2 -1</clus>
<clus scale="   24.082">  1  5  2 -1</clus>
</clustering>
</event>
<event>
10    2  0.3984345E-006  0.1482702E+03  0.7546771E-02  0.1203069E+00
         21   -1    0    0  503  502  0.00000000000E+00  0.00000000000E+00  0.88309279546E+03  0.88309279546E+03  0.00000000000E+00 0. -1.
         -3   -1    0    0    0  501 -0.00000000000E+00 -0.00000000000E+00 -0.79559951168E+02  0.79559951168E+02  0.00000000000E+00 0.  1.
         23    2    1    2    0    0 -0.65497181655E+02 -0.29616318634E+01  0.92410842360E+02  0.14628707380E+03  0.92528331379E+02 0.  0.
         23    2    1    2    0    0  0.17180198612E+03 -0.13254456038E+02  0.40684236547E+03  0.45093962845E+03  0.90189994608E+02 0.  0.
        -11    1    4    4    0    0  0.91451114887E+01 -0.29122023192E+02  0.77001839877E+02  0.82831205734E+02  0.00000000000E+00 0. -1.
         11    1    4    4    0    0  0.16265687463E+03  0.15867567154E+02  0.32984052559E+03  0.36810842272E+03  0.00000000000E+00 0.  1.
        -13    1    3    3    0    0 -0.32548090311E+02  0.23977716473E+02 -0.42715054525E+01  0.40651627631E+02  0.00000000000E+00 0.  1.
         13    1    3    3    0    0 -0.32949091344E+02 -0.26939348337E+02  0.96682347813E+02  0.10563544617E+03  0.00000000000E+00 0. -1.
         21    1    1    2  503  501 -0.61706642977E+02  0.24616780416E+02  0.94268038500E+01  0.67101119934E+02  0.00000000000E+00 0.  1.
         -3    1    1    2    0  502 -0.44598161488E+02 -0.84006925146E+01  0.29485283262E+03  0.29832492444E+03  0.00000000000E+00 0.  1.
<scales pt_clust_5="13000.00000" pt_clust_6="13000.00000" pt_clust_7="13000.00000" pt_clust_8="13000.00000" pt_clust_9="68.95335" pt_clust_10="45.38246"></scales>
<clustering>
<clus scale="   45.382">  1 10  2 -1</clus>
<clus scale="   68.953">  2  9  1 -1</clus>
<clus scale="   90.190">  5  6 -1 -1</clus>
<clus scale="   92.528">  7  8 -1 -1</clus>
<clus scale="  146.822">  1  5  2 -1</clus>
<clus scale="   45.382">  1  5  2 -1</clus>
</clustering>
</event>
<event>
10    2  0.3984345E-006  0.1578382E+03  0.7546771E-02  0.1191297E+00
          2   -1    0    0  503    0 -0.00000000000E+00  0.00000000000E+00  0.48476730807E+03  0.48476730807E+03  0.00000000000E+00 0. -1.
         21   -1    0    0  501  502  0.00000000000E+00 -0.00000000000E+00 -0.15219721758E+03  0.15219721758E+03  0.00000000000E+00 0.  1.
         23    2    1    2    0    0  0.12435012532E+03  0.42421608382E+02  0.29670474920E+03  0.33754756848E+03  0.92962929516E+02 0.  0.
         23    2    1    2    0    0 -0.13120066924E+03  0.32677198600E+02 -0.40230437181E+02  0.16849594918E+03  0.92146524066E+02 0.  0.
        -13    1    3    3    0    0  0.82953107011E+02 -0.89167481752E+01  0.22576623230E+03  0.24068884064E+03  0.00000000000E+00 0. -1.
         13    1    3    3    0    0  0.41397018313E+02  0.51338356558E+02  0.70938516892E+02  0.96858727837E+02  0.00000000000E+00 0.  1.
        -13    1    4    4    0    0 -0.82301147325E+02  0.60970224958E+02 -0.44847164569E+02  0.11181285862E+03  0.00000000000E+00 0.  1.
         13    1    4    4    0    0 -0.48899521916E+02 -0.28293026358E+02  0.46167273879E+01  0.56683090564E+02  0.00000000000E+00 0. -1.
         21    1    1    2  503  502  0.29745965602E+01 -0.47124897579E+02  0.88318215287E+02  0.10014844656E+03  0.00000000000E+00 0. -1.
          2    1    1    2  501    0  0.38759473567E+01 -0.27973909403E+02 -0.12222436813E+02  0.30772561428E+02  0.00000000000E+00 0. -1.
<scales pt_clust_5="13000.00000" pt_clust_6="13000.00000" pt_clust_7="13000.00000" pt_clust_8="13000.00000" pt_clust_9="48.49334" pt_clust_10="28.24115"></scales>
<clustering>
<clus scale="   28.241">  2 10  1 -1</clus>
<clus scale="   48.493">  1  9  2 -1</clus>
<clus scale="   92.147">  7  8 -1 -1</clus>
<clus scale="   92.963">  5  6 -1 -1</clus>
<clus scale="  157.359">  2  7  1 -1</clus>
<clus scale="   28.241">  2  5  1 -1</clus>
</clustering>
</event>
<event>
10    2  0.3984345E-006  0.3544328E+03  0.7546771E-02  0.1060899E+00
         21   -1    0    0  503  502  0.00000000000E+00  0.00000000000E+00  0.18517897448E+04  0.18517897448E+04  0.00000000000E+00 0.  1.
         -2   -1    0    0    0  501 -0.00000000000E+00 -0.00000000000E+00 -0.15028928510E+03  0.15028928510E+03  0.00000000000E+00 0.  1.
         23    2    1    2    0    0 -0.12465888002E+03  0.44724381345E+03  0.71801033307E+03  0.85982013243E+03  0.90470750528E+02 0.  0.
         23    2    1    2    0    0  0.12901497982E+03 -0.23233923019E+03  0.52827739290E+03  0.59875885149E+03  0.93855077075E+02 0.  0.
        -11    1    4    4    0    0  0.86197955225E+01 -0.81375566461E+02  0.22299549353E+03  0.23753583693E+03  0.00000000000E+00 0.  1.
         11    1    4    4    0    0  0.12039518430E+03 -0.15096366373E+03  0.30528189937E+03  0.36122301456E+03  0.00000000000E+00 0. -1.
        -11    1    3    3    0    0 -0.13255766934E+03  0.37801320488E+03  0.57552321327E+03  0.70120787772E+03  0.00000000000E+00 0.  1.
         11    1    3    3    0    0  0.78987893132E+01  0.69230608567E+02  0.14248711981E+03  0.15861225472E+03  0.00000000000E+00 0. -1.
         21    1    1    2  503  501 -0.64937133141E+02 -0.18719401610E+03  0.20716844435E+03  0.28666565064E+03  0.00000000000E+00 0.  1.
         -2    1    1    2    0  502  0.60581033340E+02 -0.27710567165E+02  0.24804428934E+03  0.25683439530E+03  0.00000000000E+00 0.  1.
<scales pt_clust_5="13000.00000" pt_clust_6="13000.00000" pt_clust_7="13000.00000" pt_clust_8="13000.00000" pt_clust_9="199.37701" pt_clust_10="66.61784"></scales>
<clustering>
<clus scale="   66.618">  1 10  2 -1</clus>
<clus scale="   90.471">  7  8 -1 -1</clus>
<clus scale="   93.855">  5  6 -1 -1</clus>
<clus scale="  199.377">  2  9  1 -1</clus>
<clus scale="  353.552">  2  7  1 -1</clus>
<clus scale="   66.618">  1  5  2 -1</clus>
</clustering>
</event>
<event>
10    2  0.3984345E-006  0.1511960E+03  0.7546771E-02  0.1202777E+00
         21   -1    0    0  501  502  0.00000000000E+00  0.00000000000E+00  0.24107310673E+03  0.24107310673E+03  0.00000000000E+00 0. -1.
          2   -1    0    0  503    0 -0.00000000000E+00 -0.00000000000E+00 -0.48104183954E+03  0.48104183954E+03  0.00000000000E+00 0. -1.
         23    2    1    2    0    0 -0.26168686480E+02  0.61295065617E+02 -0.18911735031E+03  0.22004148284E+03  0.90614550494E+02 0.  0.
         23    2    1    2    0    0  0.41225291612E+02 -0.16558885712E+03  0.31055035160E+02  0.20430293281E+03  0.10796332191E+03 0.  0.
        -11    1    3    3    0    0 -0.28171493855E+02 -0.11283109777E+02 -0.20967870762E+02  0.36886220145E+02  0.00000000000E+00 0.  1.
         11    1    3    3    0    0  0.20028073751E+01  0.72578175394E+02 -0.16814947955E+03  0.18315526270E+03  0.00000000000E+00 0. -1.
        -13    1    4    4    0    0  0.16289561768E+02 -0.15345563402E+03  0.58738768076E+02  0.16511881876E+03  0.00000000000E+00 0. -1.
         13    1    4    4    0    0  0.24935729845E+02 -0.12133223100E+02 -0.27683732916E+02  0.39184114050E+02  0.00000000000E+00 0.  1.
         21    1    1    2  503  502  0.39163064364E+02  0.48573586821E+02 -0.16951828583E+03  0.18063661915E+03  0.00000000000E+00 0. -1.
          2    1    1    2  501    0 -0.54219669496E+02  0.55720204681E+02  0.87611868173E+02  0.11713391146E+03  0.00000000000E+00 0. -1.
<scales pt_clust_5="13000.00000" pt_clust_6="13000.00000" pt_clust_7="13000.00000" pt_clust_8="13000.00000" pt_clust_9="62.39502" pt_clust_10="78.16546"></scales>
<clustering>
<clus scale="   62.395">  2  9  1 -1</clus>
<clus scale="   78.165">  1 10  2 -1</clus>
<clus scale="   90.615">  5  6 -1 -1</clus>
<clus scale="  107.963">  7  8 -1 -1</clus>
<clus scale="  139.338">  2  5  1 -1</clus>
<clus scale="   78.165">  1  5  2 -1</clus>
</clustering>
</event>
<event>
10    2  0.3984345E-006  0.2016291E+03  0.7546771E-02  0.1148627E+00
         21   -1    0    0  503  502  0.00000000000E+00  0.00000000000E+00  0.21596225710E+03  0.21596225710E+03  0.00000000000E+00 0.  1.
         -1   -1    0    0    0  501 -0.00000000000E+00 -0.00000000000E+00 -0.55800622093E+03  0.55800622093E+03  0.00000000000E+00 0.  1.
         23    2    1    2    0    0 -0.22888408121E+02 -0.13765467438E+03 -0.21861735545E+03  0.27482970542E+03  0.90912761893E+02 0.  0.
         23    2    1    2    0    0  0.15687425451E+03  0.12589352712E+03 -0.18706073304E+02  0.22262787660E+03  0.93565711466E+02 0.  0.
        -13    1    4    4    0    0  0.13154222804E+03  0.13956135186E+03 -0.24264974977E+02  0.19331196989E+03  0.00000000000E+00 0. -1.
         13    1    4    4    0    0  0.25332026478E+02 -0.13667824745E+02  0.55589016733E+01  0.29315906715E+02  0.00000000000E+00 0.  1.
        -13    1    3    3    0    0 -0.50168344505E+02 -0.39255167319E+02 -0.96755450338E+02  0.11584234166E+03  0.00000000000E+00 0.  1.
         13    1    3    3    0    0  0.27279936383E+02 -0.98399507058E+02 -0.12186190511E+03  0.15898736376E+03  0.00000000000E+00 0. -1.
         21    1    1    2  503  501 -0.13210367441E+03 -0.29992870764E+02 -0.15843362241E+03  0.20845183089E+03  0.00000000000E+00 0. -1.
         -1    1    1    2    0  502 -0.18821719812E+01  0.41754018023E+02  0.53713087337E+02  0.68059065110E+02  0.00000000000E+00 0.  1.
<scales pt_clust_5="13000.00000" pt_clust_6="13000.00000" pt_clust_7="13000.00000" pt_clust_8="13000.00000" pt_clust_9="134.43460" pt_clust_10="41.79642"></scales>
<clustering>
<clus scale="   41.796">  1 10  2 -1</clus>
<clus scale="   90.913">  7  8 -1 -1</clus>
<clus scale="   93.566">  5  6 -1 -1</clus>
<clus scale="  134.435">  2  9  1 -1</clus>
<clus scale="  200.412">  2  7  1 -1</clus>
<clus scale="   41.796">  1  5  2 -1</clus>
</clustering>
</event>
<event>
10    2  0.3984345E-006  0.2380299E+03  0.7546771E-02  0.1124047E+00
          1   -1    0    0  503    0 -0.00000000000E+00  0.00000000000E+00  0.55142202167E+03  0.55142202167E+03  0.00000000000E+00 0. -1.
         21   -1    0    0  501  502  0.00000000000E+00 -0.00000000000E+00 -0.43193509488E+03  0.43193509488E+03  0.00000000000E+00 0. -1.
         23    2    1    2    0    0 -0.77036471245E+01 -0.18092739407E+03  0.15178976371E+03  0.26834228183E+03  0.12717460339E+03 0.  0.
         23    2    1    2    0    0  0.12128455891E+03  0.23171530839E+03  0.90791808987E+02  0.29174755240E+03  0.92041041828E+02 0.  0.
        -11    1    4    4    0    0  0.11823663368E+03  0.17552301193E+03  0.10109251949E+03  0.23453768728E+03  0.00000000000E+00 0. -1.
         11    1    4    4    0    0  0.30479252330E+01  0.56192296467E+02 -0.10300710502E+02  0.57209865123E+02  0.00000000000E+00 0.  1.
        -13    1    3    3    0    0 -0.47241402344E+02 -0.17499321244E+03  0.12647898416E+03  0.22102331988E+03  0.00000000000E+00 0.  1.
         13    1    3    3    0    0  0.39537755220E+02 -0.59341816337E+01  0.25310779547E+02  0.47318961958E+02  0.00000000000E+00 0. -1.
         21    1    1    2  503  502 -0.92226490341E+02  0.60344727821E+02  0.11522186392E+03  0.15944682381E+03  0.00000000000E+00 0. -1.
          1    1    1    2  501    0 -0.21354421444E+02 -0.11113264215E+03 -0.23831650983E+03  0.26382045850E+03  0.00000000000E+00 0. -1.
<scales pt_clust_5="13000.00000" pt_clust_6="13000.00000" pt_clust_7="13000.00000" pt_clust_8="13000.00000" pt_clust_9="110.21439" pt_clust_10="111.92073"></scales>
<clustering>
<clus scale="   92.041">  5  6 -1 -1</clus>
<clus scale="  110.214">  1  9  2 -1</clus>
<clus scale="  111.921">  2 10  1 -1</clus>
<clus scale="  127.175">  7  8 -1 -1</clus>
<clus scale="  221.261">  2  5  1 -1</clus>
<clus scale="  111.921">  2  5  1 -1</clus>
</clustering>
</event>
<event>
10    2  0.3984345E-006  0.1130369E+03  0.7546771E-02  0.1255087E+00
          1   -1    0    0  503    0 -0.00000000000E+00  0.00000000000E+00  0.65395510114E+03  0.65395510114E+03  0.00000000000E+00 0. -1.
         21   -1    0    0  501  502  0.00000000000E+00 -0.00000000000E+00 -0.38451646147E+03  0.38451646147E+03  0.00000000000E+00 0. -1.
         23    2    1    2    0    0  0.41354160724E+02  0.53154285356E+02  0.47894154080E+03  0.49203635985E+03  0.90439124553E+02 0.  0.
         23    2    1    2    0    0 -0.24080360493E+02 -0.10425706510E+03  0.68588312913E+02  0.15605531505E+03  0.90551119837E+02 0.  0.
        -11    1    3    3    0    0  0.63155543651E+02  0.13580329112E+02  0.22428253234E+03  0.23340030494E+03  0.00000000000E+00 0. -1.
         11    1    3    3    0    0 -0.21801382927E+02  0.39573956243E+02  0.25465900846E+03  0.25863605491E+03  0.00000000000E+00 0.  1.
        -13    1    4    4    0    0  0.22908929778E+02 -0.14020028358E+02 -0.87620105699E+01  0.28251603282E+02  0.00000000000E+00 0.  1.
         13    1    4    4    0    0 -0.46989290271E+02 -0.90237036737E+02  0.77350323483E+02  0.12780371177E+03  0.00000000000E+00 0. -1.
         21    1    1    2  503  502 -0.20335556418E+02  0.27548265216E+01  0.52442615673E+02  0.56314757059E+02  0.00000000000E+00 0.  1.
          1    1    1    2  501    0  0.30617561872E+01  0.48347953218E+02 -0.33053382971E+03  0.33406513065E+03  0.00000000000E+00 0. -1.
<scales pt_clust_5="13000.00000" pt_clust_6="13000.00000" pt_clust_7="13000.00000" pt_clust_8="13000.00000" pt_clust_9="20.52130" pt_clust_10="48.44915"></scales>
<clustering>
<clus scale="   20.521">  1  9  2 -1</clus>
<clus scale="   48.449">  2 10  1 -1</clus>
<clus scale="   90.439">  5  6 -1 -1</clus>
<clus scale="   90.551">  7  8 -1 -1</clus>
<clus scale="  112.947">  1  5  2 -1</clus>
<clus scale="   48.449">  2  5  1 -1</clus>
</clustering>
</event>
<event>
10    2  0.3984345E-006  0.1348685E+03  0.7546771E-02  0.1220851E+00
         21   -1    0    0  503  502  0.00000000000E+00  0.00000000000E+00  0.28684588009E+03  0.28684588009E+03  0.00000000000E+00 0.  1.
         -3   -1    0    0    0  501 -0.00000000000E+00 -0.00000000000E+00 -0.22359212110E+03  0.22359212110E+03  0.00000000000E+00 0.  1.
         23    2    1    2    0    0  0.15094433121E+02 -0.10492707143E+03 -0.59217384623E+02  0.15047450748E+03  0.88872642188E+02 0.  0.
         23    2    1    2    0    0 -0.92493274860E+02  0.63826188598E+02 -0.26984461361E+02  0.14694329776E+03  0.90749012975E+02 0.  0.
        -11    1    3    3    0    0  0.27941396944E+02 -0.28357871754E+02  0.15500443486E+02  0.42721824655E+02  0.00000000000E+00 0. -1.
         11    1    3    3    0    0 -0.12846963824E+02 -0.76569199674E+02 -0.74717828109E+02  0.10775268282E+03  0.00000000000E+00 0.  1.
        -11    1    4    4    0    0 -0.26106531110E+02  0.69559955066E+02 -0.30272824953E+02  0.80228313244E+02  0.00000000000E+00 0. -1.
         11    1    4    4    0    0 -0.66386743751E+02 -0.57337664676E+01  0.32883635918E+01  0.66714984515E+02  0.00000000000E+00 0.  1.
         21    1    1    2  503  501  0.42186168168E+02  0.42093051867E+02  0.12877626181E+00  0.59594583508E+02  0.00000000000E+00 0.  1.
         -3    1    1    2    0  502  0.35212673572E+02 -0.99216903777E+00  0.14932682871E+03  0.15342561244E+03  0.00000000000E+00 0.  1.
<scales pt_clust_5="13000.00000" pt_clust_6="13000.00000" pt_clust_7="13000.00000" pt_clust_8="13000.00000" pt_clust_9="65.17880" pt_clust_10="35.22665"></scales>
<clustering>
<clus scale="   35.227">  1 10  2 -1</clus>
<clus scale="   65.179">  1  9  2 -1</clus>
<clus scale="   88.873">  5  6 -1 -1</clus>
<clus scale="   90.749">  7  8 -1 -1</clus>
<clus scale="  133.613">  2  5  1 -1</clus>
<clus scale="   35.227">  1  5  2 -1</clus>
</clustering>
</event>
<event>
10    2  0.3984345E-006  0.2382163E+03  0.7546771E-02  0.1121488E+00
          4   -1    0    0  503    0 -0.00000000000E+00  0.00000000000E+00  0.14686577271E+03  0.14686577271E+03  0.00000000000E+00 0. -1.
         21   -1    0    0  501  502  0.00000000000E+00 -0.00000000000E+00 -0.59967899110E+03  0.59967899110E+03  0.00000000000E+00 0. -1.
         23    2    1    2    0    0  0.19202584998E+02 -0.20080944705E+03 -0.12475510115E+03  0.25386716215E+03  0.90507057499E+02 0.  0.
         23    2    1    2    0    0  0.94865687977E+01  0.23875526262E+03 -0.18743995651E+03  0.31909267271E+03  0.97940421001E+02 0.  0.
        -11    1    3    3    0    0  0.44475516222E+02 -0.17679793543E+03 -0.85477312594E+02  0.20135032278E+03  0.00000000000E+00 0. -1.
         11    1    3    3    0    0 -0.25272931223E+02 -0.24011511622E+02 -0.39277788560E+02  0.52516839367E+02  0.00000000000E+00 0.  1.
        -11    1    4    4    0    0 -0.23211721530E+02  0.82868961416E+01 -0.25916552906E+02  0.35764848365E+02  0.00000000000E+00 0.  1.
         11    1    4    4    0    0  0.32698290328E+02  0.23046836648E+03 -0.16152340361E+03  0.28332782435E+03  0.00000000000E+00 0. -1.
         21    1    1    2  503  502  0.39954905872E+01  0.27450247739E+02 -0.28790114370E+02  0.39979378827E+02  0.00000000000E+00 0. -1.
          4    1    1    2  501    0 -0.32684644383E+02 -0.65396063307E+02 -0.11182804635E+03  0.13360555013E+03  0.00000000000E+00 0. -1.
<scales pt_clust_5="13000.00000" pt_clust_6="13000.00000" pt_clust_7="13000.00000" pt_clust_8="13000.00000" pt_clust_9="27.73950" pt_clust_10="67.41736"></scales>
<clustering>
<clus scale="   27.740">  2  9  1 -1</clus>
<clus scale="   67.417">  2 10  1 -1</clus>
<clus scale="   90.507">  5  6 -1 -1</clus>
<clus scale="   97.940">  7  8 -1 -1</clus>
<clus scale="  235.258">  1  5  2 -1</clus>
<clus scale="   27.740">  2  5  1 -1</clus>
</clustering>
</event>
<event>
10    2  0.3984345E-006  0.1130189E+03  0.7546771E-02  0.1256099E+00
          1   -1    0    0  503    0 -0.00000000000E+00  0.00000000000E+00  0.26208593771E+03  0.26208593771E+03  0.00000000000E+00 0. -1.
         21   -1    0    0  501  502  0.00000000000E+00 -0.00000000000E+00 -0.92849734923E+02  0.92849734923E+02  0.00000000000E+00 0.  1.
         23    2    1    2    0    0  0.37424994555E+02  0.41584928748E+02  0.51423448154E+02  0.11916618079E+03  0.91794722652E+02 0.  0.
         23    2    1    2    0    0 -0.55951656532E+02 -0.35530670404E+02  0.89374605240E+02  0.14598798082E+03  0.94507428673E+02 0.  0.
        -11    1    3    3    0    0 -0.22012335857E+02  0.35788084291E+02  0.27178495525E+01  0.42103641331E+02  0.00000000000E+00 0.  1.
         11    1    3    3    0    0  0.59437330412E+02  0.57968444563E+01  0.48705598602E+02  0.77062539455E+02  0.00000000000E+00 0. -1.
        -11    1    4    4    0    0 -0.31049581452E+02  0.28774788005E+02  0.53602802078E+02  0.68303186776E+02  0.00000000000E+00 0. -1.
         11    1    4    4    0    0 -0.24902075080E+02 -0.64305458409E+02  0.35771803162E+02  0.77684794046E+02  0.00000000000E+00 0.  1.
         21    1    1    2  503  502 -0.23781254027E+02 -0.22268530925E+02  0.30220760285E+02  0.44437932725E+02  0.00000000000E+00 0. -1.
          1    1    1    2  501    0  0.42307916004E+02  0.16214272581E+02 -0.17826108872E+01  0.45343578305E+02  0.00000000000E+00 0. -1.
<scales pt_clust_5="13000.00000" pt_clust_6="13000.00000" pt_clust_7="13000.00000" pt_clust_8="13000.00000" pt_clust_9="32.57968" pt_clust_10="42.40103"></scales>
<clustering>
<clus scale="   32.580">  1  9  2 -1</clus>
<clus scale="   42.401">  2 10  1 -1</clus>
<clus scale="   91.795">  5  6 -1 -1</clus>
<clus scale="   94.507">  7  8 -1 -1</clus>
<clus scale="  110.760">  1  5  2 -1</clus>
<clus scale="   42.401">  2  5  1 -1</clus>
</clustering>
</event>
<event>
10    2  0.3984345E-006  0.1631389E+03  0.7546771E-02  0.1185639E+00
         -4   -1    0    0    0  501 -0.00000000000E+00  0.00000000000E+00  0.79913118826E+03  0.79913118826E+03  0.00000000000E+00 0.  1.
         21   -1    0    0  501  502  0.00000000000E+00 -0.00000000000E+00 -0.13771470234E+03  0.13771470234E+03  0.00000000000E+00 0. -1.
         23    2    1    2    0    0 -0.46182312562E+02 -0.12511779894E+03  0.61886218301E+03  0.63961448478E+03  0.91263453677E+02 0.  0.
         23    2    1    2    0    0  0.94352795248E+02  0.10548438660E+03 -0.43806663943E+02  0.17548597801E+03  0.94057954920E+02 0.  0.
        -11    1    4    4    0    0  0.45231040773E+02 -0.78571572004E+01 -0.17872099690E+02  0.49264529999E+02  0.00000000000E+00 0.  1.
         11    1    4    4    0    0  0.49121754474E+02  0.11334154381E+03 -0.25934564253E+02  0.12622144801E+03  0.00000000000E+00 0. -1.
        -13    1    3    3    0    0 -0.24697250861E+02 -0.13546831448E+03  0.53332069200E+03  0.55081083772E+03  0.00000000000E+00 0.  1.
         13    1    3    3    0    0 -0.21485061700E+02  0.10350515540E+02  0.85541491006E+02  0.88803647063E+02  0.00000000000E+00 0. -1.
         21    1    1    2  503  502 -0.14578386207E+01  0.34098202340E+02  0.20843953463E+02  0.39991037649E+02  0.00000000000E+00 0.  1.
         -4    1    1    2    0  503 -0.46712644066E+02 -0.14464790004E+02  0.65517013397E+02  0.81754390157E+02  0.00000000000E+00 0.  1.
<scales pt_clust_5="13000.00000" pt_clust_6="13000.00000" pt_clust_7="13000.00000" pt_clust_8="13000.00000" pt_clust_9="34.12935" pt_clust_10="48.39535"></scales>
<clustering>
<clus scale="   34.129">  2  9  1 -1</clus>
<clus scale="   48.395">  2 10  1 -1</clus>
<clus scale="   91.263">  7  8 -1 -1</clus>
<clus scale="   94.058">  5  6 -1 -1</clus>
<clus scale="  161.544">  1  7  2 -1</clus>
<clus scale="   34.129">  2  5  1 -1</clus>
</clustering>
</event>
<event>
10    2  0.3984345E-006  0.9976595E+02  0.7546771E-02  0.1283382E+00
         21   -1    0    0  503  502  0.00000000000E+00  0.00000000000E+00  0.16399129304E+03  0.16399129304E+03  0.00000000000E+00 0.  1.
         -1   -1    0    0    0  501 -0.00000000000E+00 -0.00000000000E+00 -0.18118375024E+03  0.18118375024E+03  0.00000000000E+00 0.  1.
         23    2    1    2    0    0 -0.19362608000E+02 -0.37894285398E+02 -0.82890215407E+02  0.12660686373E+03  0.85718275057E+02 0.  0.
         23    2    1    2    0    0  0.21703673383E+02  0.22842438827E+02 -0.15793593266E+02  0.97582274600E+02  0.90994704670E+02 0.  0.
        -11    1    4    4    0    0  0.48781506538E+02  0.15850467465E+02 -0.36356439793E+02  0.62870210858E+02  0.00000000000E+00 0. -1.
         11    1    4    4    0    0 -0.27077833155E+02  0.69919713626E+01  0.20562846527E+02  0.34712063741E+02  0.00000000000E+00 0.  1.
        -13    1    3    3    0    0 -0.23080772947E+02 -0.60857834888E+02 -0.36284825847E+02  0.74518365077E+02  0.00000000000E+00 0.  1.
         13    1    3    3    0    0  0.37181649472E+01  0.22963549490E+02 -0.46605389561E+02  0.52088498652E+02  0.00000000000E+00 0. -1.
         21    1    1    2  503  501 -0.20280556950E+02 -0.19202486263E+00 -0.12678395591E+02  0.23918185101E+02  0.00000000000E+00 0.  1.
         -1    1    1    2    0  502  0.17939491566E+02  0.15243871434E+02  0.94169747066E+02  0.97067719848E+02  0.00000000000E+00 0.  1.
<scales pt_clust_5="13000.00000" pt_clust_6="13000.00000" pt_clust_7="13000.00000" pt_clust_8="13000.00000" pt_clust_9="20.28147" pt_clust_10="23.40317"></scales>
<clustering>
<clus scale="   20.281">  2  9  1 -1</clus>
<clus scale="   23.403">  1 10  2 -1</clus>
<clus scale="   85.718">  7  8 -1 -1</clus>
<clus scale="   90.995">  5  6 -1 -1</clus>
<clus scale="   94.978">  2  7  1 -1</clus>
<clus scale="   23.403">  1  5  2 -1</clus>
</clustering>
</event>
<event>
10    2  0.3984345E-006  0.1890863E+03  0.7546771E-02  0.1184880E+00
          1   -1    0    0  503    0 -0.00000000000E+00  0.00000000000E+00  0.69231097283E+03  0.69231097283E+03  0.00000000000E+00 0. -1.
         21   -1    0    0  501  502  0.00000000000E+00 -0.00000000000E+00 -0.15229572847E+03  0.15229572847E+03  0.00000000000E+00 0. -1.
         23    2    1    2    0    0  0.48990614255E+02  0.15316461352E+02  0.30882734123E+03  0.32641089605E+03  0.92385453905E+02 0.  0.
         23    2    1    2    0    0 -0.16401845420E+03 -0.81401364595E+02  0.54435230395E+02  0.21135425851E+03  0.90438889888E+02 0.  0.
        -13    1    4    4    0    0 -0.10636050020E+03 -0.10462574296E+02  0.54436563506E+02  0.11993898828E+03  0.00000000000E+00 0. -1.
         13    1    4    4    0    0 -0.57657954007E+02 -0.70938790299E+02 -0.13331116173E-02  0.91415270230E+02  0.00000000000E+00 0.  1.
        -13    1    3    3    0    0  0.47124144314E+02 -0.28353798117E+02  0.11181913449E+03  0.12461196445E+03  0.00000000000E+00 0.  1.
         13    1    3    3    0    0  0.18664699404E+01  0.43670259469E+02  0.19700820674E+03  0.20179893160E+03  0.00000000000E+00 0. -1.
         21    1    1    2  503  502  0.14589032608E+03 -0.30178077932E+01  0.17922940347E+03  0.23111960859E+03  0.00000000000E+00 0. -1.
          1    1    1    2  501    0 -0.30862486132E+02  0.69102711037E+02 -0.24767307328E+01  0.75721938155E+02  0.00000000000E+00 0. -1.
<scales pt_clust_5="13000.00000" pt_clust_6="13000.00000" pt_clust_7="13000.00000" pt_clust_8="13000.00000" pt_clust_9="166.05555" pt_clust_10="75.68142"></scales>
<clustering>
<clus scale="   75.681">  2 10  1 -1</clus>
<clus scale="   90.439">  5  6 -1 -1</clus>
<clus scale="   92.385">  7  8 -1 -1</clus>
<clus scale="  105.517">  1  7  2 -1</clus>
<clus scale="  166.056">  1  9  2 -1</clus>
<clus scale="   75.681">  2  5  1 -1</clus>
</clustering>
</event>
<event>
10    2  0.3984345E-006  0.9972041E+02  0.7546771E-02  0.1282374E+00
         21   -1    0    0  503  502  0.00000000000E+00  0.00000000000E+00  0.88032063956E+03  0.88032063956E+03  0.00000000000E+00 0. -1.
         -3   -1    0    0    0  501 -0.00000000000E+00 -0.00000000000E+00 -0.13082947934E+03  0.13082947934E+03  0.00000000000E+00 0.  1.
         23    2    1    2    0    0  0.33861527236E+02  0.62262310581E+02  0.17763674846E+02  0.11686312186E+03  0.91204400992E+02 0.  0.
         23    2    1    2    0    0  0.31304302555E+02 -0.28585214063E+02  0.30263893596E+03  0.31805502743E+03  0.88156684911E+02 0.  0.
        -13    1    3    3    0    0 -0.11915109861E+02  0.64205428805E+02  0.26042993615E+02  0.70303232127E+02  0.00000000000E+00 0. -1.
         13    1    3    3    0    0  0.45776637097E+02 -0.19431182237E+01 -0.82793187693E+01  0.46559889729E+02  0.00000000000E+00 0.  1.
        -13    1    4    4    0    0  0.38560394769E+02  0.23522716921E+02  0.13527402549E+03  0.14261586247E+03  0.00000000000E+00 0. -1.
         13    1    4    4    0    0 -0.72560922145E+01 -0.52107930984E+02  0.16736491047E+03  0.17543916496E+03  0.00000000000E+00 0.  1.
         21    1    1    2  503  501 -0.30968495065E+01 -0.33329871575E+02 -0.67730499206E+02  0.75550587945E+02  0.00000000000E+00 0.  1.
         -3    1    1    2    0  502 -0.62068980284E+02 -0.34722494288E+00  0.49681904862E+03  0.50068138167E+03  0.00000000000E+00 0.  1.
<scales pt_clust_5="13000.00000" pt_clust_6="13000.00000" pt_clust_7="13000.00000" pt_clust_8="13000.00000" pt_clust_9="33.47343" pt_clust_10="62.18657"></scales>
<clustering>
<clus scale="   33.473">  2  9  1 -1</clus>
<clus scale="   62.187">  1 10  2 -1</clus>
<clus scale="   88.157">  7  8 -1 -1</clus>
<clus scale="   91.204">  5  6 -1 -1</clus>
<clus scale="   96.941">  1  7  2 -1</clus>
<clus scale="   62.187">  1  5  2 -1</clus>
</clustering>
</event>
<event>
10    2  0.3984345E-006  0.1261562E+03  0.7546771E-02  0.1233543E+00
         21   -1    0    0  501  502  0.00000000000E+00  0.00000000000E+00  0.38385277165E+03  0.38385277165E+03  0.00000000000E+00 0. -1.
          3   -1    0    0  503    0 -0.00000000000E+00 -0.00000000000E+00 -0.30167051860E+03  0.30167051860E+03  0.00000000000E+00 0. -1.
         23    2    1    2    0    0 -0.55875147893E+02  0.11186830646E+02 -0.23129072814E+03  0.25481978051E+03  0.90501614798E+02 0.  0.
         23    2    1    2    0    0  0.37488289993E+02  0.47708691206E+00  0.97002062614E+02  0.13849538243E+03  0.91465683747E+02 0.  0.
        -11    1    4    4    0    0 -0.12789056986E+02  0.34558259887E+02  0.26223520025E+02  0.45227273934E+02  0.00000000000E+00 0.  1.
         11    1    4    4    0    0  0.50277346979E+02 -0.34081172975E+02  0.70778542589E+02  0.93268108492E+02  0.00000000000E+00 0. -1.
        -13    1    3    3    0    0  0.86870560573E+01  0.27842270180E+02 -0.26352414704E+02  0.39307845431E+02  0.00000000000E+00 0.  1.
         13    1    3    3    0    0 -0.64562203951E+02 -0.16655439534E+02 -0.20493831344E+03  0.21551193507E+03  0.00000000000E+00 0. -1.
         21    1    1    2  503  502 -0.52457763717E+02  0.17813271561E+02 -0.70842288201E+01  0.55850836304E+02  0.00000000000E+00 0. -1.
          3    1    1    2  501    0  0.70844621618E+02 -0.29477189119E+02  0.22355514739E+03  0.23635729102E+03  0.00000000000E+00 0. -1.
<scales pt_clust_5="13000.00000" pt_clust_6="13000.00000" pt_clust_7="13000.00000" pt_clust_8="13000.00000" pt_clust_9="55.39973" pt_clust_10="75.42300"></scales>
<clustering>
<clus scale="   55.400">  2  9  1 -1</clus>
<clus scale="   75.423">  1 10  2 -1</clus>
<clus scale="   90.502">  7  8 -1 -1</clus>
<clus scale="   91.466">  5  6 -1 -1</clus>
<clus scale="  125.459">  2  7  1 -1</clus>
<clus scale="   75.423">  1  5  2 -1</clus>
</clustering>
</event>
<event>
10    2  0.3984345E-006  0.1626779E+03  0.7546771E-02  0.1185916E+00
         21   -1    0    0  503  502  0.00000000000E+00  0.00000000000E+00  0.80290270393E+03  0.80290270393E+03  0.00000000000E+00 0. -1.
         -1   -1    0    0    0  501 -0.00000000000E+00 -0.00000000000E+00 -0.14792108144E+03  0.14792108144E+03  0.00000000000E+00 0.  1.
         23    2    1    2    0    0  0.10571939919E+02 -0.96617119857E+02  0.30988387651E+03  0.33677433521E+03  0.89119594762E+02 0.  0.
         23    2    1    2    0    0 -0.97268824870E+01  0.14974232763E+03  0.16331086119E+03  0.23953194863E+03  0.90486132116E+02 0.  0.
        -11    1    3    3    0    0  0.23485461537E+02 -0.71059029594E+02  0.29530643888E+03  0.30464215964E+03  0.00000000000E+00 0.  1.
         11    1    3    3    0    0 -0.12913521618E+02 -0.25558090263E+02  0.14577437632E+02  0.32132175563E+02  0.00000000000E+00 0. -1.
        -13    1    4    4    0    0 -0.36395519002E+02  0.56750318683E+02  0.11015758476E+03  0.12915078766E+03  0.00000000000E+00 0.  1.
         13    1    4    4    0    0  0.26668636515E+02  0.92992008943E+02  0.53153276434E+02  0.11038116097E+03  0.00000000000E+00 0. -1.
         21    1    1    2  503  501  0.17808880617E+02  0.80626627506E+02 -0.56898805409E+02  0.10027603577E+03  0.00000000000E+00 0.  1.
         -1    1    1    2    0  502 -0.18653938050E+02 -0.13375183528E+03  0.23868569019E+03  0.27424146577E+03  0.00000000000E+00 0.  1.
<scales pt_clust_5="13000.00000" pt_clust_6="13000.00000" pt_clust_7="13000.00000" pt_clust_8="13000.00000" pt_clust_9="82.57003" pt_clust_10="113.95252"></scales>
<clustering>
<clus scale="   82.570">  2  9  1 -1</clus>
<clus scale="   89.120">  5  6 -1 -1</clus>
<clus scale="   90.486">  7  8 -1 -1</clus>
<clus scale="  113.953">  1 10  2 -1</clus>
<clus scale="  161.922">  2  5  1 -1</clus>
<clus scale="  113.953">  1  5  2 -1</clus>
</clustering>
</event>
<event>
10    2  0.3984345E-006  0.1746328E+03  0.7546771E-02  0.1173656E+00
         21   -1    0    0  501  502  0.00000000000E+00  0.00000000000E+00  0.19351961215E+03  0.19351961215E+03  0.00000000000E+00 0. -1.
          1   -1    0    0  503    0 -0.00000000000E+00 -0.00000000000E+00 -0.35936913671E+03  0.35936913671E+03  0.00000000000E+00 0. -1.
         23    2    1    2    0    0  0.12172160542E+03 -0.55679066593E+02 -0.94288055546E+02  0.18653347374E+03  0.89376684461E+02 0.  0.
         23    2    1    2    0    0 -0.12861886688E+03  0.13517768356E+03 -0.17889596421E+02  0.20948639900E+03  0.93534457039E+02 0.  0.
        -11    1    3    3    0    0  0.23340872028E+02 -0.54508628226E+02 -0.17793954330E+02  0.61908090495E+02  0.00000000000E+00 0.  1.
         11    1    3    3    0    0  0.98380733390E+02 -0.11704383674E+01 -0.76494101216E+02  0.12462538325E+03  0.00000000000E+00 0. -1.
        -11    1    4    4    0    0 -0.10578787049E+03  0.86611383116E+02 -0.51574911524E+02  0.14612520907E+03  0.00000000000E+00 0. -1.
         11    1    4    4    0    0 -0.22830996397E+02  0.48566300442E+02  0.33685315103E+02  0.63361189925E+02  0.00000000000E+00 0.  1.
         21    1    1    2  503  502  0.11483428807E+02  0.28807490749E+02 -0.35184015661E+02  0.46900486335E+02  0.00000000000E+00 0. -1.
          1    1    1    2  501    0 -0.45861673404E+01 -0.10830610771E+03 -0.18487856932E+02  0.10996838979E+03  0.00000000000E+00 0. -1.
<scales pt_clust_5="13000.00000" pt_clust_6="13000.00000" pt_clust_7="13000.00000" pt_clust_8="13000.00000" pt_clust_9="31.01194" pt_clust_10="102.51880"></scales>
<clustering>
<clus scale="   31.012">  2  9  1 -1</clus>
<clus scale="   89.377">  5  6 -1 -1</clus>
<clus scale="   93.534">  7  8 -1 -1</clus>
<clus scale="  102.519">  1 10  2 -1</clus>
<clus scale="  172.442">  2  5  1 -1</clus>
<clus scale="  102.519">  1  5  2 -1</clus>
</clustering>
</event>
<event>
10    2  0.3984345E-006  0.1413324E+03  0.7546771E-02  0.1223026E+00
          2   -1    0    0  503    0 -0.00000000000E+00  0.00000000000E+00  0.11447262822E+04  0.11447262822E+04  0.00000000000E+00 0. -1.
         21   -1    0    0  501  502  0.00000000000E+00 -0.00000000000E+00 -0.31470403463E+02  0.31470403463E+02  0.00000000000E+00 0.  1.
         23    2    1    2    0    0  0.10193642925E+03 -0.18081375831E+02  0.42405173485E+03  0.44466161115E+03  0.84770884420E+02 0.  0.
         23    2    1    2    0    0 -0.30361022993E+02  0.26253854657E+02  0.29533206371E+03  0.32200212797E+03  0.12187405780E+03 0.  0.
        -13    1    4    4    0    0  0.22823258863E+01  0.57672262555E+02  0.63610781446E+02  0.85893133578E+02  0.00000000000E+00 0.  1.
         13    1    4    4    0    0 -0.32643348880E+02 -0.31418407898E+02  0.23172128226E+03  0.23610899440E+03  0.00000000000E+00 0. -1.
        -13    1    3    3    0    0  0.86683881205E+02 -0.33631117757E+02  0.40558278900E+03  0.41610400872E+03  0.00000000000E+00 0.  1.
         13    1    3    3    0    0  0.15252548045E+02  0.15549741926E+02  0.18468945848E+02  0.28557602430E+02  0.00000000000E+00 0. -1.
         21    1    1    2  503  502 -0.28017746235E+02  0.30432504669E+02  0.26391988506E+03  0.26714197943E+03  0.00000000000E+00 0.  1.
          2    1    1    2  501    0 -0.43557660021E+02 -0.38604983495E+02  0.12995219515E+03  0.14239096714E+03  0.00000000000E+00 0. -1.
<scales pt_clust_5="13000.00000" pt_clust_6="13000.00000" pt_clust_7="13000.00000" pt_clust_8="13000.00000" pt_clust_9="41.36582" pt_clust_10="58.67511"></scales>
<clustering>
<clus scale="   41.366">  1  9  2 -1</clus>
<clus scale="   58.675">  2 10  1 -1</clus>
<clus scale="   84.771">  7  8 -1 -1</clus>
<clus scale="  110.940">  1  7  2 -1</clus>
<clus scale="  121.874">  5  6 -1 -1</clus>
<clus scale="   58.675">  2  5  1 -1</clus>
</clustering>
</event>
<event>
10    2  0.3984345E-006  0.1024997E+03  0.7546771E-02  0.1275183E+00
         21   -1    0    0  501  502  0.00000000000E+00  0.00000000000E+00  0.16590594374E+03  0.16590594374E+03  0.00000000000E+00 0. -1.
          4   -1    0    0  503    0 -0.00000000000E+00 -0.00000000000E+00 -0.17509838207E+03  0.17509838207E+03  0.00000000000E+00 0. -1.
         23    2    1    2    0    0  0.67541399926E+02 -0.69504929926E+00 -0.79448380696E+02  0.13914381173E+03  0.92122914362E+02 0.  0.
         23    2    1    2    0    0 -0.31461367770E+02 -0.17576941924E+02  0.10124960079E+03  0.14146972073E+03  0.91996922089E+02 0.  0.
        -11    1    3    3    0    0 -0.16708246848E+02  0.12970240130E+02 -0.39717939817E+02  0.44998970933E+02  0.00000000000E+00 0.  1.
         11    1    3    3    0    0  0.84249646773E+02 -0.13665289429E+02 -0.39730440879E+02  0.94144840799E+02  0.00000000000E+00 0. -1.
        -13    1    4    4    0    0  0.28207330960E+02 -0.23670768582E+02  0.52771348066E+02  0.64348846003E+02  0.00000000000E+00 0. -1.
         13    1    4    4    0    0 -0.59668698730E+02  0.60938266573E+01  0.48478252720E+02  0.77120874724E+02  0.00000000000E+00 0.  1.
         21    1    1    2  503  502 -0.26496333460E+02 -0.13692945123E+01 -0.27582092265E+02  0.38271431486E+02  0.00000000000E+00 0.  1.
          4    1    1    2  501    0 -0.95836986958E+01  0.19641285736E+02 -0.34115661565E+01  0.22119361874E+02  0.00000000000E+00 0. -1.
<scales pt_clust_5="13000.00000" pt_clust_6="13000.00000" pt_clust_7="13000.00000" pt_clust_8="13000.00000" pt_clust_9="26.83262" pt_clust_10="21.85470"></scales>
<clustering>
<clus scale="   21.855">  1 10  2 -1</clus>
<clus scale="   26.833">  2  9  1 -1</clus>
<clus scale="   91.997">  7  8 -1 -1</clus>
<clus scale="   92.123">  5  6 -1 -1</clus>
<clus scale="  102.386">  1  7  2 -1</clus>
<clus scale="   21.855">  1  5  2 -1</clus>
</clustering>
</event>
<event>
10    2  0.3984345E-006  0.1153603E+03  0.7546771E-02  0.1251031E+00
          2   -1    0    0  503    0 -0.00000000000E+00  0.00000000000E+00  0.69613777492E+03  0.69613777492E+03  0.00000000000E+00 0. -1.
         21   -1    0    0  501  502  0.00000000000E+00 -0.00000000000E+00 -0.45346667152E+02  0.45346667152E+02  0.00000000000E+00 0.  1.
         23    2    1    2    0    0 -0.61900361473E+02  0.47366476137E+02  0.31888430765E+03  0.34059793605E+03  0.90799309258E+02 0.  0.
         23    2    1    2    0    0  0.62071001553E+02 -0.54190124612E+02  0.12358028919E+03  0.17420367965E+03  0.91024476322E+02 0.  0.
        -13    1    4    4    0    0 -0.53951622848E+01 -0.43673513877E+02  0.85154915640E+02  0.95853238067E+02  0.00000000000E+00 0. -1.
         13    1    4    4    0    0  0.67466163838E+02 -0.10516610736E+02  0.38425373549E+02  0.78350441586E+02  0.00000000000E+00 0.  1.
        -13    1    3    3    0    0 -0.58896976286E+02 -0.99540631403E+00  0.24686437160E+03  0.25379492236E+03  0.00000000000E+00 0. -1.
         13    1    3    3    0    0 -0.30033851876E+01  0.48361882451E+02  0.72019936049E+02  0.86803013688E+02  0.00000000000E+00 0.  1.
         21    1    1    2  503  502  0.25395839933E+02 -0.21722520587E+01  0.19467391639E+03  0.19633543004E+03  0.00000000000E+00 0. -1.
          2    1    1    2  501    0 -0.25566480014E+02  0.89959005344E+01  0.13652594539E+02  0.30347396336E+02  0.00000000000E+00 0. -1.
<scales pt_clust_5="13000.00000" pt_clust_6="13000.00000" pt_clust_7="13000.00000" pt_clust_8="13000.00000" pt_clust_9="25.48857" pt_clust_10="26.02006"></scales>
<clustering>
<clus scale="   25.489">  1  9  2 -1</clus>
<clus scale="   26.020">  2 10  1 -1</clus>
<clus scale="   90.799">  7  8 -1 -1</clus>
<clus scale="   91.024">  5  6 -1 -1</clus>
<clus scale="  115.183">  1  7  2 -1</clus>
<clus scale="   26.020">  2  5  1 -1</clus>
</clustering>
</event>
<event>
10    2  0.3984345E-006  0.9291219E+02  0.7546771E-02  0.1296355E+00
         -3   -1    0    0    0  501 -0.00000000000E+00  0.00000000000E+00  0.18691388754E+03  0.18691388754E+03  0.00000000000E+00 0.  1.
         21   -1    0    0  503  502  0.00000000000E+00 -0.00000000000E+00 -0.21984603184E+03  0.21984603184E+03  0.00000000000E+00 0. -1.
         23    2    1    2    0    0 -0.52993504470E+02  0.17543644943E+02  0.31421631080E+02  0.11229640454E+03  0.92233793043E+02 0.  0.
         23    2    1    2    0    0 -0.21801287325E+02 -0.75447133295E+01 -0.78634521165E+00  0.94397147374E+02  0.91531329420E+02 0.  0.
        -11    1    4    4    0    0 -0.24786614105E+02  0.36241811983E+02  0.16943510289E+02  0.47063018555E+02  0.00000000000E+00 0.  1.
         11    1    4    4    0    0  0.29853267796E+01 -0.43786525313E+02 -0.17729855501E+02  0.47334128819E+02  0.00000000000E+00 0. -1.
        -13    1    3    3    0    0 -0.57483944799E+02 -0.26401400165E+02  0.13846290912E+02  0.64754595299E+02  0.00000000000E+00 0. -1.
         13    1    3    3    0    0  0.44904403292E+01  0.43945045109E+02  0.17575340167E+02  0.47541809241E+02  0.00000000000E+00 0.  1.
         21    1    1    2  503  501  0.86754671574E+02 -0.26366228752E+02  0.36664503133E+02  0.97805096230E+02  0.00000000000E+00 0. -1.
         -3    1    1    2    0  502 -0.11959879779E+02  0.16367297138E+02 -0.10023193330E+03  0.10226127123E+03  0.00000000000E+00 0.  1.
<scales pt_clust_5="13000.00000" pt_clust_6="13000.00000" pt_clust_7="13000.00000" pt_clust_8="13000.00000" pt_clust_9="86.55340" pt_clust_10="20.27134"></scales>
<clustering>
<clus scale="   20.271">  2 10  1 -1</clus>
<clus scale="   86.553">  1  9  2 -1</clus>
<clus scale="   91.531">  5  6 -1 -1</clus>
<clus scale="   92.215">  2  5  1 -1</clus>
<clus scale="   92.234">  7  8 -1 -1</clus>
<clus scale="   20.271">  2  5  1 -1</clus>
</clustering>
</event>
<event>
10    2  0.3984345E-006  0.2236189E+03  0.7546771E-02  0.1151842E+00
         -1   -1    0    0    0  501 -0.00000000000E+00  0.00000000000E+00  0.85840103477E+02  0.85840103477E+02  0.00000000000E+00 0.  1.
         21   -1    0    0  501  502  0.00000000000E+00 -0.00000000000E+00 -0.10101253421E+04  0.10101253421E+04  0.00000000000E+00 0.  1.
         23    2    1    2    0    0  0.45967281513E+02 -0.85174251891E+02 -0.23112897028E+03  0.26824410624E+03  0.95742652342E+02 0.  0.
         23    2    1    2    0    0  0.39164860052E+02 -0.14606654019E+03 -0.22352142213E+03  0.28636355087E+03  0.95775449317E+02 0.  0.
        -11    1    3    3    0    0 -0.12902242598E+02 -0.19409091653E+02 -0.13791931327E+03  0.13987464987E+03  0.00000000000E+00 0. -1.
         11    1    3    3    0    0  0.58869524111E+02 -0.65765160238E+02 -0.93209657004E+02  0.12836945637E+03  0.00000000000E+00 0.  1.
        -11    1    4    4    0    0  0.29775633770E+02 -0.17790216992E+02 -0.83424807422E+01  0.35674601216E+02  0.00000000000E+00 0. -1.
         11    1    4    4    0    0  0.93892262823E+01 -0.12827632320E+03 -0.21517894139E+03  0.25068894966E+03  0.00000000000E+00 0.  1.
         21    1    1    2  503  502 -0.41738870042E+02  0.49909601647E+02 -0.49639775899E+02  0.81836476954E+02  0.00000000000E+00 0. -1.
         -1    1    1    2    0  503 -0.43393271523E+02  0.18133119043E+03 -0.41999507030E+03  0.45952131149E+03  0.00000000000E+00 0.  1.
<scales pt_clust_5="13000.00000" pt_clust_6="13000.00000" pt_clust_7="13000.00000" pt_clust_8="13000.00000" pt_clust_9="64.14582" pt_clust_10="64.14582"></scales>
<clustering>
<clus scale="   64.146">  9 10 -1 -1</clus>
<clus scale="   95.743">  5  6 -1 -1</clus>
<clus scale="   95.775">  7  8 -1 -1</clus>
<clus scale="  136.141">  1  5  2 -1</clus>
<clus scale="  217.685">  1  7  2 -1</clus>
<clus scale="  223.619">  2  5  1 -1</clus>
</clustering>
</event>
<event>
10    2  0.3984345E-006  0.4334322E+03  0.7546771E-02  0.1075330E+00
         -2   -1    0    0    0  501 -0.00000000000E+00  0.00000000000E+00  0.54167559546E+03  0.54167559546E+03  0.00000000000E+00 0.  1.
         21   -1    0    0  503  502  0.00000000000E+00 -0.00000000000E+00 -0.71785456453E+03  0.71785456453E+03  0.00000000000E+00 0.  1.
         23    2    1    2    0    0 -0.20641690186E+02  0.90612042315E+02  0.20786723109E+03  0.24472756713E+03  0.89700472476E+02 0.  0.
         23    2    1    2    0    0  0.27610986213E+03  0.25674186446E+03 -0.32126499025E+02  0.38601232026E+03  0.76291274221E+02 0.  0.
        -13    1    3    3    0    0 -0.47321291163E+02  0.39348845573E+02  0.15352177619E+03  0.16539822251E+03  0.00000000000E+00 0. -1.
         13    1    3    3    0    0  0.26679600977E+02  0.51263196742E+02  0.54345454909E+02  0.79329344620E+02  0.00000000000E+00 0.  1.
        -13    1    4    4    0    0  0.62249984294E+02  0.19880106532E+02 -0.76403432312E+00  0.65351839521E+02  0.00000000000E+00 0. -1.
         13    1    4    4    0    0  0.21385987783E+03  0.23686175792E+03 -0.31362464702E+02  0.32066048074E+03  0.00000000000E+00 0.  1.
         21    1    1    2  503  501  0.35783467005E+02  0.72983580611E+01  0.16702030041E+02  0.40158191552E+02  0.00000000000E+00 0. -1.
         -2    1    1    2    0  502 -0.29125163895E+03 -0.35465226483E+03 -0.36862173118E+03  0.58863208105E+03  0.00000000000E+00 0.  1.
<scales pt_clust_5="13000.00000" pt_clust_6="13000.00000" pt_clust_7="13000.00000" pt_clust_8="13000.00000" pt_clust_9="36.52017" pt_clust_10="426.66514"></scales>
<clustering>
<clus scale="   36.520">  1  9  2 -1</clus>
<clus scale="   76.291">  7  8 -1 -1</clus>
<clus scale="   89.700">  5  6 -1 -1</clus>
<clus scale="  129.900">  1  5  2 -1</clus>
<clus scale="  426.665">  2 10  1 -1</clus>
<clus scale="  426.665">  2  5  1 -1</clus>
</clustering>
</event>
<event>
10    2  0.3984345E-006  0.1152141E+03  0.7546771E-02  0.1254312E+00
          3   -1    0    0  503    0 -0.00000000000E+00  0.00000000000E+00  0.80744353405E+02  0.80744353405E+02  0.00000000000E+00 0. -1.
         21   -1    0    0  501  502  0.00000000000E+00 -0.00000000000E+00 -0.11678542503E+04  0.11678542503E+04  0.00000000000E+00 0. -1.
         23    2    1    2    0    0 -0.38577995897E+01 -0.48957797440E+02 -0.67431981778E+02  0.12377522674E+03  0.91441161628E+02 0.  0.
         23    2    1    2    0    0  0.36435389026E+02  0.13700744460E+03 -0.84186073553E+03  0.85769917654E+03  0.82582092221E+02 0.  0.
        -13    1    4    4    0    0 -0.20243452332E+02  0.68430230157E+01 -0.85495662814E+02  0.88125664175E+02  0.00000000000E+00 0.  1.
         13    1    4    4    0    0  0.56678841358E+02  0.13016442158E+03 -0.75636507272E+03  0.76957351236E+03  0.00000000000E+00 0. -1.
        -13    1    3    3    0    0 -0.11516489314E+02  0.25038199195E+02 -0.29135679891E+02  0.40105221453E+02  0.00000000000E+00 0.  1.
         13    1    3    3    0    0  0.76586897248E+01 -0.73995996635E+02 -0.38296301887E+02  0.83670005286E+02  0.00000000000E+00 0. -1.
         21    1    1    2  503  502 -0.16943129391E+02 -0.14982602257E+02  0.34943243718E+02  0.41624251170E+02  0.00000000000E+00 0. -1.
          3    1    1    2  501    0 -0.15634460046E+02 -0.73067044903E+02 -0.21276042334E+03  0.22549994929E+03  0.00000000000E+00 0. -1.
<scales pt_clust_5="13000.00000" pt_clust_6="13000.00000" pt_clust_7="13000.00000" pt_clust_8="13000.00000" pt_clust_9="22.61743" pt_clust_10="77.47693"></scales>
<clustering>
<clus scale="   22.617">  1  9  2 -1</clus>
<clus scale="   77.477">  2 10  1 -1</clus>
<clus scale="   82.582">  5  6 -1 -1</clus>
<clus scale="   91.441">  7  8 -1 -1</clus>
<clus scale="  108.317">  2  5  1 -1</clus>
<clus scale="   77.477">  2  5  1 -1</clus>
</clustering>
</event>
<event>
10    2  0.7775402E-006  0.3338803E+03  0.7546771E-02  0.1069529E+00
          1   -1    0    0  503    0 -0.00000000000E+00  0.00000000000E+00  0.47397517081E+03  0.47397517081E+03  0.00000000000E+00 0. -1.
         21   -1    0    0  501  502  0.00000000000E+00 -0.00000000000E+00 -0.84076322289E+03  0.84076322289E+03  0.00000000000E+00 0.  1.
         23    2    1    2    0    0 -0.32348548827E+03  0.54144865125E+02  0.33307879282E+03  0.47644283149E+03  0.92096481555E+02 0.  0.
         23    2    1    2    0    0  0.32492262826E+03  0.20207137871E+02 -0.66892620289E+03  0.75000929011E+03  0.95229341934E+02 0.  0.
        -13    1    3    3    0    0 -0.15555715120E+02  0.27302024452E+02  0.26757775573E+02  0.41271774443E+02  0.00000000000E+00 0.  1.
         13    1    3    3    0    0 -0.30792977315E+03  0.26842840674E+02  0.30632101725E+03  0.43517105705E+03  0.00000000000E+00 0. -1.
        -13    1    4    4    0    0  0.20103524752E+03 -0.17746601522E+02 -0.48221092626E+03  0.52274036578E+03  0.00000000000E+00 0.  1.
         13    1    4    4    0    0  0.12388738074E+03  0.37953739393E+02 -0.18671527663E+03  0.22726892433E+03  0.00000000000E+00 0. -1.
         21    1    1    2  503  502  0.62107905279E+01 -0.23236518446E+02  0.59614317957E+01  0.24779999546E+02  0.00000000000E+00 0. -1.
          1    1    1    2  501    0 -0.76479305190E+01 -0.51115484551E+02 -0.36902073806E+02  0.63506272550E+02  0.00000000000E+00 0. -1.
<scales pt_clust_5="13000.00000" pt_clust_6="13000.00000" pt_clust_7="13000.00000" pt_clust_8="13000.00000" pt_clust_9="24.05223" pt_clust_10="52.32511"></scales>
<clustering>
<clus scale="   24.052">  1  9  2 -1</clus>
<clus scale="   52.325">  2 10  1 -1</clus>
<clus scale="   92.096">  5  6 -1 -1</clus>
<clus scale="   95.229">  7  8 -1 -1</clus>
<clus scale="  333.000">  1  5  2 -1</clus>
<clus scale="   52.325">  2  5  1 -1</clus>
</clustering>
</event>
<event>
10    2  0.3984345E-006  0.9853159E+02  0.7546771E-02  0.1286331E+00
         21   -1    0    0  501  502  0.00000000000E+00  0.00000000000E+00  0.39299837051E+02  0.39299837051E+02  0.00000000000E+00 0.  1.
          2   -1    0    0  503    0 -0.00000000000E+00 -0.00000000000E+00 -0.64907904609E+03  0.64907904609E+03  0.00000000000E+00 0. -1.
         23    2    1    2    0    0  0.81947815780E+01 -0.25963614676E+01 -0.21183190229E+03  0.23296484105E+03  0.96571045352E+02 0.  0.
         23    2    1    2    0    0 -0.14334215462E+02  0.36964623135E+02 -0.19100551618E+03  0.21533343937E+03  0.91178560001E+02 0.  0.
        -11    1    3    3    0    0 -0.58366082336E+01  0.41734325445E+02 -0.54417172187E+02  0.68826219894E+02  0.00000000000E+00 0.  1.
         11    1    3    3    0    0  0.14031389812E+02 -0.44330686913E+02 -0.15741473011E+03  0.16413862116E+03  0.00000000000E+00 0. -1.
        -11    1    4    4    0    0  0.22470017515E+02  0.50814379602E+02 -0.78653332905E+02  0.96298232790E+02  0.00000000000E+00 0.  1.
         11    1    4    4    0    0 -0.36804232976E+02 -0.13849756467E+02 -0.11235218327E+03  0.11903520658E+03  0.00000000000E+00 0. -1.
         21    1    1    2  503  502 -0.13620323015E+02  0.18507592959E+02 -0.17235429245E+03  0.17387940166E+03  0.00000000000E+00 0. -1.
          2    1    1    2  501    0  0.19759756899E+02 -0.52875854627E+02 -0.34587498119E+02  0.66201201057E+02  0.00000000000E+00 0. -1.
<scales pt_clust_5="13000.00000" pt_clust_6="13000.00000" pt_clust_7="13000.00000" pt_clust_8="13000.00000" pt_clust_9="22.97921" pt_clust_10="54.11104"></scales>
<clustering>
<clus scale="   22.979">  2  9  1 -1</clus>
<clus scale="   54.111">  1 10  2 -1</clus>
<clus scale="   91.179">  7  8 -1 -1</clus>
<clus scale="   93.253">  1  7  2 -1</clus>
<clus scale="   96.571">  5  6 -1 -1</clus>
<clus scale="   54.111">  1  5  2 -1</clus>
</clustering>
</event>
<event>
10    2  0.3984345E-006  0.9800791E+02  0.7546771E-02  0.1285625E+00
         -1   -1    0    0    0  501 -0.00000000000E+00  0.00000000000E+00  0.91399883494E+02  0.91399883494E+02  0.00000000000E+00 0.  1.
         21   -1    0    0  503  502  0.00000000000E+00 -0.00000000000E+00 -0.25667453716E+03  0.25667453716E+03  0.00000000000E+00 0.  1.
         23    2    1    2    0    0  0.18342189717E+02  0.70159681923E+01  0.86878267908E+01  0.96298755478E+02  0.93873916713E+02 0.  0.
         23    2    1    2    0    0 -0.37461797531E+02  0.39896847955E+00 -0.67585219109E+02  0.11999497814E+03  0.91801347953E+02 0.  0.
        -11    1    4    4    0    0 -0.72839691167E+01  0.35289000859E+02  0.24679493414E+01  0.36117316646E+02  0.00000000000E+00 0. -1.
         11    1    4    4    0    0 -0.30177828414E+02 -0.34890032380E+02 -0.70053168451E+02  0.83877661491E+02  0.00000000000E+00 0.  1.
        -13    1    3    3    0    0 -0.38052838331E+02  0.10237611786E+02  0.27856108988E+01  0.39504263418E+02  0.00000000000E+00 0.  1.
         13    1    3    3    0    0  0.56395028048E+02 -0.32216435939E+01  0.59022158920E+01  0.56794492060E+02  0.00000000000E+00 0. -1.
         21    1    1    2  503  501  0.63432577267E+00  0.26290270910E+02 -0.10202143430E+02  0.28207524603E+02  0.00000000000E+00 0. -1.
         -1    1    1    2    0  502  0.18485282042E+02 -0.33705207582E+02 -0.96175117919E+02  0.10357316244E+03  0.00000000000E+00 0.  1.
<scales pt_clust_5="13000.00000" pt_clust_6="13000.00000" pt_clust_7="13000.00000" pt_clust_8="13000.00000" pt_clust_9="26.29792" pt_clust_10="37.42503"></scales>
<clustering>
<clus scale="   26.298">  1  9  2 -1</clus>
<clus scale="   37.425">  2 10  1 -1</clus>
<clus scale="   91.801">  5  6 -1 -1</clus>
<clus scale="   93.874">  7  8 -1 -1</clus>
<clus scale="   96.025">  2  5  1 -1</clus>
<clus scale="   37.425">  2  5  1 -1</clus>
</clustering>
</event>
<event>
10    2  0.3984345E-006  0.9227580E+02  0.7546771E-02  0.1298209E+00
         21   -1    0    0  503  502  0.00000000000E+00  0.00000000000E+00  0.29719206038E+03  0.29719206038E+03  0.00000000000E+00 0. -1.
         -1   -1    0    0    0  501 -0.00000000000E+00 -0.00000000000E+00 -0.83485522014E+02  0.83485522014E+02  0.00000000000E+00 0.  1.
         23    2    1    2    0    0  0.24841635445E+01 -0.79507176237E+01 -0.20678840778E+02  0.94405341932E+02  0.91735321170E+02 0.  0.
         23    2    1    2    0    0 -0.16789860414E+01 -0.16527845376E+02  0.17127084016E+03  0.19438089058E+03  0.90411510688E+02 0.  0.
        -13    1    3    3    0    0  0.32965376894E+02 -0.35475882672E+02 -0.22273560600E+02  0.53304463480E+02  0.00000000000E+00 0. -1.
         13    1    3    3    0    0 -0.30481213350E+02  0.27525165048E+02  0.15947198224E+01  0.41100878452E+02  0.00000000000E+00 0.  1.
        -13    1    4    4    0    0 -0.43800072030E+02 -0.15660202270E+02  0.11527496181E+03  0.12430609424E+03  0.00000000000E+00 0.  1.
         13    1    4    4    0    0  0.42121085988E+02 -0.86764310584E+00  0.55995878359E+02  0.70074796343E+02  0.00000000000E+00 0. -1.
         21    1    1    2  503  501 -0.17735052546E+02  0.12970168848E+02 -0.34582477707E+01  0.22242231147E+02  0.00000000000E+00 0.  1.
         -1    1    1    2    0  502  0.16929875043E+02  0.11508394152E+02  0.66572786753E+02  0.69649118738E+02  0.00000000000E+00 0.  1.
<scales pt_clust_5="13000.00000" pt_clust_6="13000.00000" pt_clust_7="13000.00000" pt_clust_8="13000.00000" pt_clust_9="21.70441" pt_clust_10="20.47105"></scales>
<clustering>
<clus scale="   20.471">  1 10  2 -1</clus>
<clus scale="   21.704">  2  9  1 -1</clus>
<clus scale="   90.412">  7  8 -1 -1</clus>
<clus scale="   90.960">  1  7  2 -1</clus>
<clus scale="   91.735">  5  6 -1 -1</clus>
<clus scale="   20.471">  1  5  2 -1</clus>
</clustering>
</event>
<event>
10    2  0.3984345E-006  0.2412441E+03  0.7546771E-02  0.1119454E+00
         21   -1    0    0  501  502  0.00000000000E+00  0.00000000000E+00  0.15874292109E+03  0.15874292109E+03  0.00000000000E+00 0. -1.
          1   -1    0    0  503    0 -0.00000000000E+00 -0.00000000000E+00 -0.70876243186E+03  0.70876243186E+03  0.00000000000E+00 0. -1.
         23    2    1    2    0    0  0.17524131775E+03 -0.41684131452E+02 -0.29469481750E+03  0.35914004068E+03  0.98434989198E+02 0.  0.
         23    2    1    2    0    0 -0.23610965588E+03  0.13026106494E+03 -0.83847845330E+02  0.29670391845E+03  0.91033177558E+02 0.  0.
        -11    1    4    4    0    0 -0.17704569776E+03  0.61257730968E+02 -0.26306418606E+02  0.18918170197E+03  0.00000000000E+00 0. -1.
         11    1    4    4    0    0 -0.59063958125E+02  0.69003333970E+02 -0.57541426724E+02  0.10752221648E+03  0.00000000000E+00 0.  1.
        -13    1    3    3    0    0  0.17193445075E+03 -0.15618042693E+02 -0.21807620556E+03  0.27814134904E+03  0.00000000000E+00 0. -1.
         13    1    3    3    0    0  0.33068669982E+01 -0.26066088759E+02 -0.76618611941E+02  0.80998691646E+02  0.00000000000E+00 0.  1.
         21    1    1    2  503  502  0.41129513011E+02 -0.30191882272E+02 -0.12328411563E+03  0.13342473445E+03  0.00000000000E+00 0. -1.
          1    1    1    2  501    0  0.19738825121E+02 -0.58385051215E+02 -0.48192732306E+02  0.78236659371E+02  0.00000000000E+00 0. -1.
<scales pt_clust_5="13000.00000" pt_clust_6="13000.00000" pt_clust_7="13000.00000" pt_clust_8="13000.00000" pt_clust_9="51.02143" pt_clust_10="66.25811"></scales>
<clustering>
<clus scale="   51.021">  2  9  1 -1</clus>
<clus scale="   66.258">  1 10  2 -1</clus>
<clus scale="   91.033">  5  6 -1 -1</clus>
<clus scale="   98.435">  7  8 -1 -1</clus>
<clus scale="  238.320">  1  5  2 -1</clus>
<clus scale="   66.258">  1  5  2 -1</clus>
</clustering>
</event>
<event>
10    2  0.3984345E-006  0.2619673E+03  0.7546771E-02  0.1128437E+00
          2   -1    0    0  503    0 -0.00000000000E+00  0.00000000000E+00  0.28882150330E+03  0.28882150330E+03  0.00000000000E+00 0. -1.
         21   -1    0    0  501  502  0.00000000000E+00 -0.00000000000E+00 -0.12484625079E+04  0.12484625079E+04  0.00000000000E+00 0. -1.
         23    2    1    2    0    0 -0.96072215643E+02 -0.32096772868E+02  0.10505237338E+03  0.17237819445E+03  0.91750571224E+02 0.  0.
         23    2    1    2    0    0 -0.89963470476E+02  0.15422518962E+03 -0.12921934776E+03  0.23471744273E+03  0.80720523744E+02 0.  0.
        -11    1    4    4    0    0 -0.10483258490E+03  0.12618313321E+03 -0.11165764513E+03  0.19844264582E+03  0.00000000000E+00 0.  1.
         11    1    4    4    0    0  0.14869114428E+02  0.28042056416E+02 -0.17561702626E+02  0.36274796912E+02  0.00000000000E+00 0. -1.
        -11    1    3    3    0    0 -0.35060850735E+02  0.10673759528E+02 -0.74889270596E+01  0.37406903443E+02  0.00000000000E+00 0.  1.
         11    1    3    3    0    0 -0.61011364908E+02 -0.42770532397E+02  0.11254130044E+03  0.13497129100E+03  0.00000000000E+00 0. -1.
         21    1    1    2  503  502 -0.32162957923E+02  0.50479222515E+02  0.66989340063E+02  0.89834177517E+02  0.00000000000E+00 0. -1.
          2    1    1    2  501    0  0.21819864404E+03 -0.17260763927E+03 -0.10024633703E+04  0.10403541965E+04  0.00000000000E+00 0. -1.
<scales pt_clust_5="13000.00000" pt_clust_6="13000.00000" pt_clust_7="13000.00000" pt_clust_8="13000.00000" pt_clust_9="59.85489" pt_clust_10="249.22093"></scales>
<clustering>
<clus scale="   59.855">  1  9  2 -1</clus>
<clus scale="   80.721">  5  6 -1 -1</clus>
<clus scale="   91.751">  7  8 -1 -1</clus>
<clus scale="  148.907">  1  7  2 -1</clus>
<clus scale="  249.221">  2 10  1 -1</clus>
<clus scale="  249.221">  2  5  1 -1</clus>
</clustering>
</event>
<event>
10    2  0.3984345E-006  0.9341618E+02  0.7546771E-02  0.1299717E+00
          1   -1    0    0  503    0 -0.00000000000E+00  0.00000000000E+00  0.48197408131E+03  0.48197408131E+03  0.00000000000E+00 0. -1.
         21   -1    0    0  501  502  0.00000000000E+00 -0.00000000000E+00 -0.63090583342E+02  0.63090583342E+02  0.00000000000E+00 0. -1.
         23    2    1    2    0    0  0.79100140866E+01  0.14466342180E+02  0.19776325039E+03  0.21585805276E+03  0.84926747001E+02 0.  0.
         23    2    1    2    0    0 -0.25334803412E+01 -0.39752098328E+01  0.10235065940E+03  0.13844646048E+03  0.93110386764E+02 0.  0.
        -11    1    4    4    0    0  0.36735855933E+02 -0.27999144987E+02  0.41122551304E+02  0.61842861001E+02  0.00000000000E+00 0.  1.
         11    1    4    4    0    0 -0.39269336274E+02  0.24023935154E+02  0.61228108097E+02  0.76603599477E+02  0.00000000000E+00 0. -1.
        -11    1    3    3    0    0  0.27528021417E+02 -0.28007382939E+02  0.10136258375E+03  0.10870408845E+03  0.00000000000E+00 0. -1.
         11    1    3    3    0    0 -0.19618007330E+02  0.42473725119E+02  0.96400666644E+02  0.10715396431E+03  0.00000000000E+00 0.  1.
         21    1    1    2  503  502 -0.33071265293E+02 -0.13989696571E+02  0.14684335337E+03  0.15117007186E+03  0.00000000000E+00 0. -1.
          1    1    1    2  501    0  0.27694731547E+02  0.34985642236E+01 -0.28073765192E+02  0.39590079554E+02  0.00000000000E+00 0. -1.
<scales pt_clust_5="13000.00000" pt_clust_6="13000.00000" pt_clust_7="13000.00000" pt_clust_8="13000.00000" pt_clust_9="33.92640" pt_clust_10="27.91484"></scales>
<clustering>
<clus scale="   27.915">  2 10  1 -1</clus>
<clus scale="   33.926">  1  9  2 -1</clus>
<clus scale="   84.927">  7  8 -1 -1</clus>
<clus scale="   85.262">  1  7  2 -1</clus>
<clus scale="   93.110">  5  6 -1 -1</clus>
<clus scale="   27.915">  2  5  1 -1</clus>
</clustering>
</event>
<event>
10    2  0.3984345E-006  0.3561382E+03  0.7546771E-02  0.1060124E+00
         21   -1    0    0  501  502  0.00000000000E+00  0.00000000000E+00  0.10882724936E+03  0.10882724936E+03  0.00000000000E+00 0. -1.
          1   -1    0    0  503    0 -0.00000000000E+00 -0.00000000000E+00 -0.19874844648E+04  0.19874844648E+04  0.00000000000E+00 0. -1.
         23    2    1    2    0    0 -0.78417470702E+02 -0.29167956489E+03 -0.71673340336E+03  0.78300046351E+03  0.90314373623E+02 0.  0.
         23    2    1    2    0    0  0.17662639144E+03  0.35391380282E+03 -0.53676777856E+03  0.67284839629E+03  0.90296479982E+02 0.  0.
        -11    1    3    3    0    0 -0.30036303695E+02 -0.13602245095E+02 -0.72106530292E+02  0.79287781669E+02  0.00000000000E+00 0.  1.
         11    1    3    3    0    0 -0.48381167006E+02 -0.27807731979E+03 -0.64462687307E+03  0.70371268184E+03  0.00000000000E+00 0. -1.
        -11    1    4    4    0    0  0.27724269265E+02  0.14165852980E+03 -0.16001408423E+03  0.21550007268E+03  0.00000000000E+00 0. -1.
         11    1    4    4    0    0  0.14890212218E+03  0.21225527303E+03 -0.37675369433E+03  0.45734832361E+03  0.00000000000E+00 0.  1.
         21    1    1    2  503  502 -0.27465237260E+02 -0.48134027462E+02 -0.40540099927E+03  0.40917135049E+03  0.00000000000E+00 0. -1.
          1    1    1    2  501    0 -0.70743683481E+02 -0.14100210475E+02 -0.21975503427E+03  0.23129150390E+03  0.00000000000E+00 0. -1.
<scales pt_clust_5="13000.00000" pt_clust_6="13000.00000" pt_clust_7="13000.00000" pt_clust_8="13000.00000" pt_clust_9="55.41862" pt_clust_10="77.55240"></scales>
<clustering>
<clus scale="   55.419">  2  9  1 -1</clus>
<clus scale="   77.552">  1 10  2 -1</clus>
<clus scale="   90.296">  7  8 -1 -1</clus>
<clus scale="   90.314">  5  6 -1 -1</clus>
<clus scale="  356.134">  1  7  2 -1</clus>
<clus scale="   77.552">  1  5  2 -1</clus>
</clustering>
</event>
<event>
10    2  0.3984345E-006  0.1446921E+03  0.7546771E-02  0.1207194E+00
          4   -1    0    0  503    0 -0.00000000000E+00  0.00000000000E+00  0.39613491158E+03  0.39613491158E+03  0.00000000000E+00 0. -1.
         21   -1    0    0  501  502  0.00000000000E+00 -0.00000000000E+00 -0.23568149686E+03  0.23568149686E+03  0.00000000000E+00 0.  1.
         23    2    1    2    0    0 -0.10728793026E+03  0.26224121130E+02  0.60264188584E+02  0.15529963251E+03  0.91037349056E+02 0.  0.
         23    2    1    2    0    0  0.10954251335E+03  0.84181540910E+02 -0.19342357227E+02  0.16669140242E+03  0.91245837148E+02 0.  0.
        -11    1    4    4    0    0  0.89228963843E+02  0.40820477039E+02 -0.49703835738E+02  0.10999359355E+03  0.00000000000E+00 0.  1.
         11    1    4    4    0    0  0.20313549503E+02  0.43361063871E+02  0.30361478511E+02  0.56697808872E+02  0.00000000000E+00 0. -1.
        -13    1    3    3    0    0 -0.93789489656E+02  0.56170551739E+02  0.38540369210E+02  0.11591789901E+03  0.00000000000E+00 0.  1.
         13    1    3    3    0    0 -0.13498440602E+02 -0.29946430609E+02  0.21723819374E+02  0.39381733495E+02  0.00000000000E+00 0. -1.
         21    1    1    2  503  502  0.81852756559E+01 -0.89823781896E+02  0.20358007233E+03  0.22266601981E+03  0.00000000000E+00 0. -1.
          4    1    1    2  501    0 -0.10439858745E+02 -0.20581880145E+02 -0.84048488962E+02  0.87159353702E+02  0.00000000000E+00 0. -1.
<scales pt_clust_5="13000.00000" pt_clust_6="13000.00000" pt_clust_7="13000.00000" pt_clust_8="13000.00000" pt_clust_9="91.44238" pt_clust_10="23.07822"></scales>
<clustering>
<clus scale="   23.078">  2 10  1 -1</clus>
<clus scale="   91.037">  7  8 -1 -1</clus>
<clus scale="   91.246">  5  6 -1 -1</clus>
<clus scale="   91.442">  1  9  2 -1</clus>
<clus scale="  144.561">  1  7  2 -1</clus>
<clus scale="   23.078">  2  5  1 -1</clus>
</clustering>
</event>
<event>
10    2  0.3984345E-006  0.1039921E+03  0.7546771E-02  0.1278913E+00
         21   -1    0    0  501  502  0.00000000000E+00  0.00000000000E+00  0.27170203945E+03  0.27170203945E+03  0.00000000000E+00 0. -1.
          1   -1    0    0  503    0 -0.00000000000E+00 -0.00000000000E+00 -0.15467738481E+03  0.15467738481E+03  0.00000000000E+00 0. -1.
         23    2    1    2    0    0  0.21202404691E+02  0.10248824553E+02 -0.49126557572E+01  0.10624836391E+03  0.10348913121E+03 0.  0.
         23    2    1    2    0    0  0.13638647216E+02  0.11477503507E+02  0.76772213953E+02  0.12017393448E+03  0.90719655573E+02 0.  0.
        -11    1    4    4    0    0  0.51040229207E+02 -0.32677980347E+01  0.33671987670E+02  0.61233865264E+02  0.00000000000E+00 0. -1.
         11    1    4    4    0    0 -0.37401581991E+02  0.14745301542E+02  0.43100226283E+02  0.58940069211E+02  0.00000000000E+00 0.  1.
        -13    1    3    3    0    0 -0.28516863218E+02  0.38514510025E+02 -0.95625698061E+01  0.48867389039E+02  0.00000000000E+00 0.  1.
         13    1    3    3    0    0  0.49719267909E+02 -0.28265685472E+02  0.46499140489E+01  0.57380974872E+02  0.00000000000E+00 0. -1.
         21    1    1    2  503  502 -0.83580116070E+01 -0.30673849316E+02 -0.72422055428E+02  0.79092954821E+02  0.00000000000E+00 0. -1.
          1    1    1    2  501    0 -0.26483040300E+02  0.89475212562E+01  0.11758715187E+03  0.12086417106E+03  0.00000000000E+00 0. -1.
<scales pt_clust_5="13000.00000" pt_clust_6="13000.00000" pt_clust_7="13000.00000" pt_clust_8="13000.00000" pt_clust_9="31.76148" pt_clust_10="27.95370"></scales>
<clustering>
<clus scale="   27.954">  1 10  2 -1</clus>
<clus scale="   31.761">  2  9  1 -1</clus>
<clus scale="   90.720">  5  6 -1 -1</clus>
<clus scale="   91.293">  1  5  2 -1</clus>
<clus scale="  103.489">  7  8 -1 -1</clus>
<clus scale="   27.954">  1  5  2 -1</clus>
</clustering>
</event>
<event>
10    2  0.3984345E-006  0.1441364E+03  0.7546771E-02  0.1208101E+00
         21   -1    0    0  501  502  0.00000000000E+00  0.00000000000E+00  0.13374536974E+03  0.13374536974E+03  0.00000000000E+00 0.  1.
          1   -1    0    0  503    0 -0.00000000000E+00 -0.00000000000E+00 -0.97418986339E+03  0.97418986339E+03  0.00000000000E+00 0. -1.
         23    2    1    2    0    0  0.45944898807E+02  0.10114722762E+03 -0.54611094828E+03  0.56468754207E+03  0.91066771975E+02 0.  0.
         23    2    1    2    0    0 -0.96036483930E+02 -0.20074147937E+03 -0.59700397642E+02  0.24815963549E+03  0.92189584139E+02 0.  0.
        -13    1    3    3    0    0 -0.11489706103E+02  0.22865448337E+02 -0.29589580450E+02  0.39120139892E+02  0.00000000000E+00 0.  1.
         13    1    3    3    0    0  0.57434604909E+02  0.78281779286E+02 -0.51652136783E+03  0.52556740218E+03  0.00000000000E+00 0. -1.
        -13    1    4    4    0    0  0.42541033118E+01 -0.59849124746E+02  0.11574353369E+02  0.61106307234E+02  0.00000000000E+00 0.  1.
         13    1    4    4    0    0 -0.10029058724E+03 -0.14089235462E+03 -0.71274751011E+02  0.18705332826E+03  0.00000000000E+00 0. -1.
         21    1    1    2  503  502 -0.25585440765E+02 -0.92071513697E+01 -0.10946625902E+03  0.11279294428E+03  0.00000000000E+00 0.  1.
          1    1    1    2  501    0  0.75677025888E+02  0.10880140312E+03 -0.12516688871E+03  0.18229511128E+03  0.00000000000E+00 0. -1.
<scales pt_clust_5="13000.00000" pt_clust_6="13000.00000" pt_clust_7="13000.00000" pt_clust_8="13000.00000" pt_clust_9="27.19166" pt_clust_10="128.61404"></scales>
<clustering>
<clus scale="   27.192">  2  9  1 -1</clus>
<clus scale="   91.067">  5  6 -1 -1</clus>
<clus scale="   92.190">  7  8 -1 -1</clus>
<clus scale="  128.614">  1 10  2 -1</clus>
<clus scale="  143.421">  2  5  1 -1</clus>
<clus scale="  128.614">  1  5  2 -1</clus>
</clustering>
</event>
<event>
10    2  0.3984345E-006  0.9819652E+02  0.7546771E-02  0.1284873E+00
         21   -1    0    0  501  502  0.00000000000E+00  0.00000000000E+00  0.35511608385E+03  0.35511608385E+03  0.00000000000E+00 0. -1.
          1   -1    0    0  503    0 -0.00000000000E+00 -0.00000000000E+00 -0.16443647923E+03  0.16443647923E+03  0.00000000000E+00 0. -1.
         23    2    1    2    0    0 -0.50229796214E+01  0.48710775934E+01 -0.78302702554E+02  0.11908066879E+03  0.89442354239E+02 0.  0.
         23    2    1    2    0    0  0.86060179869E+01 -0.12188587506E+02  0.22791539000E+03  0.24583171425E+03  0.90913043750E+02 0.  0.
        -11    1    4    4    0    0  0.31340706946E+02  0.28813062224E+02  0.79415592943E+02  0.90106985684E+02  0.00000000000E+00 0.  1.
         11    1    4    4    0    0 -0.22734688959E+02 -0.41001649731E+02  0.14849979705E+03  0.15572472857E+03  0.00000000000E+00 0. -1.
        -13    1    3    3    0    0 -0.15318707495E+02 -0.36090775981E+02 -0.62909636430E+02  0.74127115592E+02  0.00000000000E+00 0. -1.
         13    1    3    3    0    0  0.10295727874E+02  0.40961853575E+02 -0.15393066125E+02  0.44953553202E+02  0.00000000000E+00 0.  1.
         21    1    1    2  503  502 -0.26230322679E+02  0.26901376645E+02 -0.47837980491E+02  0.60829156420E+02  0.00000000000E+00 0. -1.
          1    1    1    2  501    0  0.22647284313E+02 -0.19583866732E+02  0.88904897668E+02  0.93811023618E+02  0.00000000000E+00 0. -1.
<scales pt_clust_5="13000.00000" pt_clust_6="13000.00000" pt_clust_7="13000.00000" pt_clust_8="13000.00000" pt_clust_9="36.83816" pt_clust_10="29.94040"></scales>
<clustering>
<clus scale="   29.940">  1 10  2 -1</clus>
<clus scale="   36.838">  2  9  1 -1</clus>
<clus scale="   89.442">  7  8 -1 -1</clus>
<clus scale="   90.913">  5  6 -1 -1</clus>
<clus scale="   96.837">  2  7  1 -1</clus>
<clus scale="   29.940">  1  5  2 -1</clus>
</clustering>
</event>
<event>
10    2  0.3984345E-006  0.1142050E+03  0.7546771E-02  0.1253801E+00
         21   -1    0    0  501  502  0.00000000000E+00  0.00000000000E+00  0.17122657095E+03  0.17122657095E+03  0.00000000000E+00 0.  1.
          3   -1    0    0  503    0 -0.00000000000E+00 -0.00000000000E+00 -0.14732858698E+03  0.14732858698E+03  0.00000000000E+00 0. -1.
         23    2    1    2    0    0 -0.64964149689E+02  0.24590429414E+02 -0.64688048573E+02  0.13103792007E+03  0.90340261806E+02 0.  0.
         23    2    1    2    0    0  0.50193882085E+02 -0.34793828572E+02  0.52518792691E+02  0.12276348747E+03  0.92642398312E+02 0.  0.
        -13    1    3    3    0    0  0.19938463891E+02 -0.95942151048E+01 -0.16498785704E+02  0.27600747010E+02  0.00000000000E+00 0.  1.
         13    1    3    3    0    0 -0.84902613581E+02  0.34184644519E+02 -0.48189262869E+02  0.10343717305E+03  0.00000000000E+00 0. -1.
        -13    1    4    4    0    0  0.32749443247E+02  0.25695581435E+02  0.41635123556E+02  0.58875057977E+02  0.00000000000E+00 0.  1.
         13    1    4    4    0    0  0.17444438838E+02 -0.60489410007E+02  0.10883669135E+02  0.63888429494E+02  0.00000000000E+00 0. -1.
         21    1    1    2  503  502  0.98919897039E+01 -0.17658845516E+02  0.18006603269E+01  0.20320646222E+02  0.00000000000E+00 0. -1.
          3    1    1    2  501    0  0.48782779004E+01  0.27862244675E+02  0.34266579529E+02  0.44433104170E+02  0.00000000000E+00 0. -1.
<scales pt_clust_5="13000.00000" pt_clust_6="13000.00000" pt_clust_7="13000.00000" pt_clust_8="13000.00000" pt_clust_9="20.24071" pt_clust_10="24.63298"></scales>
<clustering>
<clus scale="   20.241">  1  9  2 -1</clus>
<clus scale="   24.633">  1 10  2 -1</clus>
<clus scale="   90.340">  5  6 -1 -1</clus>
<clus scale="   92.642">  7  8 -1 -1</clus>
<clus scale="  112.346">  2  5  1 -1</clus>
<clus scale="   20.241">  1  5  2 -1</clus>
</clustering>
</event>
<event>
10    2  0.3984345E-006  0.1512617E+03  0.7546771E-02  0.1199316E+00
          2   -1    0    0  503    0 -0.00000000000E+00  0.00000000000E+00  0.13005282893E+03  0.13005282893E+03  0.00000000000E+00 0. -1.
         21   -1    0    0  501  502  0.00000000000E+00 -0.00000000000E+00 -0.71352095440E+03  0.71352095440E+03  0.00000000000E+00 0.  1.
         23    2    1    2    0    0 -0.31906219405E+01 -0.65438908225E+02 -0.58816201808E+02  0.12401572926E+03  0.87339136301E+02 0.  0.
         23    2    1    2    0    0  0.32633645174E+02  0.15779954954E+03 -0.35447595517E+03  0.39953325679E+03  0.89487249688E+02 0.  0.
        -11    1    3    3    0    0  0.22668233935E+02  0.13287343321E+02 -0.15632217226E+02  0.30573984655E+02  0.00000000000E+00 0.  1.
         11    1    3    3    0    0 -0.25858855876E+02 -0.78726251546E+02 -0.43183984582E+02  0.93441744601E+02  0.00000000000E+00 0. -1.
        -13    1    4    4    0    0  0.17617066468E+02  0.61543083264E+02 -0.24391193665E+03  0.25217245085E+03  0.00000000000E+00 0. -1.
         13    1    4    4    0    0  0.15016578706E+02  0.96256466275E+02 -0.11056401852E+03  0.14736080594E+03  0.00000000000E+00 0.  1.
         21    1    1    2  503  502  0.26366121543E+01 -0.10038423601E+03  0.39388439860E+02  0.10786749166E+03  0.00000000000E+00 0. -1.
          2    1    1    2  501    0 -0.32079635387E+02  0.80235946909E+01 -0.20956440835E+03  0.21215730562E+03  0.00000000000E+00 0. -1.
<scales pt_clust_5="13000.00000" pt_clust_6="13000.00000" pt_clust_7="13000.00000" pt_clust_8="13000.00000" pt_clust_9="99.83872" pt_clust_10="33.06783"></scales>
<clustering>
<clus scale="   33.068">  2 10  1 -1</clus>
<clus scale="   87.339">  5  6 -1 -1</clus>
<clus scale="   89.487">  7  8 -1 -1</clus>
<clus scale="   99.839">  1  9  2 -1</clus>
<clus scale="  150.001">  1  5  2 -1</clus>
<clus scale="   33.068">  2  5  1 -1</clus>
</clustering>
</event>
<event>
10    2  0.3984345E-006  0.2102951E+03  0.7546771E-02  0.1141338E+00
         21   -1    0    0  503  502  0.00000000000E+00  0.00000000000E+00  0.10673689596E+04  0.10673689596E+04  0.00000000000E+00 0.  1.
         -4   -1    0    0    0  501 -0.00000000000E+00 -0.00000000000E+00 -0.16639658776E+03  0.16639658776E+03  0.00000000000E+00 0.  1.
         23    2    1    2    0    0 -0.19682156828E+03 -0.13070620360E+02  0.17755424437E+03  0.28124889884E+03  0.93090614721E+02 0.  0.
         23    2    1    2    0    0  0.17789182806E+03 -0.26875119565E+02  0.78330730205E+03  0.80908253519E+03  0.93147435552E+02 0.  0.
        -13    1    4    4    0    0  0.15347577576E+03  0.73714754979E+01  0.68731228303E+03  0.70427787613E+03  0.00000000000E+00 0.  1.
         13    1    4    4    0    0  0.24416052302E+02 -0.34246595063E+02  0.95995019022E+02  0.10480465906E+03  0.00000000000E+00 0. -1.
        -13    1    3    3    0    0 -0.47750135065E+02 -0.32314399102E+02  0.91210412695E+02  0.10790567720E+03  0.00000000000E+00 0. -1.
         13    1    3    3    0    0 -0.14907143321E+03  0.19243778742E+02  0.86343831679E+02  0.17334322164E+03  0.00000000000E+00 0.  1.
         21    1    1    2  503  501  0.11968913425E+02 -0.26950708630E+02 -0.69496200651E+02  0.75493824179E+02  0.00000000000E+00 0.  1.
         -4    1    1    2    0  502  0.69608267869E+01  0.66896448556E+02  0.96070260423E+01  0.67940289139E+02  0.00000000000E+00 0.  1.
<scales pt_clust_5="13000.00000" pt_clust_6="13000.00000" pt_clust_7="13000.00000" pt_clust_8="13000.00000" pt_clust_9="29.48891" pt_clust_10="59.49157"></scales>
<clustering>
<clus scale="   29.489">  2  9  1 -1</clus>
<clus scale="   59.492">  1 10  2 -1</clus>
<clus scale="   93.091">  7  8 -1 -1</clus>
<clus scale="   93.147">  5  6 -1 -1</clus>
<clus scale="  210.270">  2  7  1 -1</clus>
<clus scale="   59.492">  1  5  2 -1</clus>
</clustering>
</event>
<event>
10    2  0.3984345E-006  0.1460949E+03  0.7546771E-02  0.1205446E+00
         21   -1    0    0  501  502  0.00000000000E+00  0.00000000000E+00  0.32144224897E+03  0.32144224897E+03  0.00000000000E+00 0. -1.
          1   -1    0    0  503    0 -0.00000000000E+00 -0.00000000000E+00 -0.17164452911E+03  0.17164452911E+03  0.00000000000E+00 0. -1.
         23    2    1    2    0    0  0.38712063308E+02  0.10679483278E+03 -0.69636792024E+02  0.16264110474E+03  0.93268890814E+02 0.  0.
         23    2    1    2    0    0 -0.59564762068E+02 -0.75500242768E+02  0.11126629539E+03  0.17390840664E+03  0.92820783618E+02 0.  0.
        -11    1    3    3    0    0  0.59080244480E+02  0.27752342533E+02 -0.28270102034E+02  0.71132738404E+02  0.00000000000E+00 0.  1.
         11    1    3    3    0    0 -0.20368181172E+02  0.79042490246E+02 -0.41366689991E+02  0.91508366335E+02  0.00000000000E+00 0. -1.
        -13    1    4    4    0    0 -0.71268029912E+02 -0.53973671323E+02  0.38880993343E+02  0.97488568186E+02  0.00000000000E+00 0. -1.
         13    1    4    4    0    0  0.11703267845E+02 -0.21526571445E+02  0.72385302051E+02  0.76419838455E+02  0.00000000000E+00 0.  1.
         21    1    1    2  503  502  0.22825957339E+02 -0.10056409983E+01 -0.16528320202E+02  0.28199663312E+02  0.00000000000E+00 0.  1.
          1    1    1    2  501    0 -0.19732585790E+01 -0.30288949013E+02  0.12469653669E+03  0.12833760339E+03  0.00000000000E+00 0. -1.
<scales pt_clust_5="13000.00000" pt_clust_6="13000.00000" pt_clust_7="13000.00000" pt_clust_8="13000.00000" pt_clust_9="22.84810" pt_clust_10="30.34858"></scales>
<clustering>
<clus scale="   22.848">  2  9  1 -1</clus>
<clus scale="   30.349">  1 10  2 -1</clus>
<clus scale="   92.821">  7  8 -1 -1</clus>
<clus scale="   93.269">  5  6 -1 -1</clus>
<clus scale="  145.809">  1  7  2 -1</clus>
<clus scale="   30.349">  1  5  2 -1</clus>
</clustering>
</event>
<event>
10    2  0.3984345E-006  0.1387045E+03  0.7546771E-02  0.1215560E+00
         21   -1    0    0  501  502  0.00000000000E+00  0.00000000000E+00  0.16742088150E+03  0.16742088150E+03  0.00000000000E+00 0.  1.
          2   -1    0    0  503    0 -0.00000000000E+00 -0.00000000000E+00 -0.53793458968E+03  0.53793458968E+03  0.00000000000E+00 0. -1.
         23    2    1    2    0    0 -0.58510966460E+02 -0.56783697184E+02 -0.16431538572E+03  0.20378682548E+03  0.88778391481E+02 0.  0.
         23    2    1    2    0    0  0.53948060663E+02  0.11321995920E+03  0.67974022618E+01  0.15505448199E+03  0.90920488879E+02 0.  0.
        -13    1    4    4    0    0  0.19781107487E+02  0.13993918661E+02  0.38443958191E+02  0.45442930081E+02  0.00000000000E+00 0. -1.
         13    1    4    4    0    0  0.34166953175E+02  0.99226040538E+02 -0.31646555930E+02  0.10961155191E+03  0.00000000000E+00 0.  1.
        -13    1    3    3    0    0 -0.22280243206E+01 -0.54278484097E+02 -0.12128371110E+03  0.13289415527E+03  0.00000000000E+00 0. -1.
         13    1    3    3    0    0 -0.56282942139E+02 -0.25052130865E+01 -0.43031674621E+02  0.70892670208E+02  0.00000000000E+00 0.  1.
         21    1    1    2  503  502 -0.21458810858E+01 -0.34602535853E+02 -0.27668724822E+03  0.27885080889E+03  0.00000000000E+00 0. -1.
          2    1    1    2  501    0  0.67087868831E+01 -0.21833726163E+02  0.63691523498E+02  0.67663354817E+02  0.00000000000E+00 0. -1.
<scales pt_clust_5="13000.00000" pt_clust_6="13000.00000" pt_clust_7="13000.00000" pt_clust_8="13000.00000" pt_clust_9="34.89640" pt_clust_10="22.84118"></scales>
<clustering>
<clus scale="   22.841">  1 10  2 -1</clus>
<clus scale="   34.896">  2  9  1 -1</clus>
<clus scale="   88.778">  7  8 -1 -1</clus>
<clus scale="   90.920">  5  6 -1 -1</clus>
<clus scale="  137.310">  2  7  1 -1</clus>
<clus scale="   22.841">  1  5  2 -1</clus>
</clustering>
</event>
<event>
10    2  0.3984345E-006  0.1250469E+03  0.7546771E-02  0.1236910E+00
          1   -1    0    0  503    0 -0.00000000000E+00  0.00000000000E+00  0.49842972316E+03  0.49842972316E+03  0.00000000000E+00 0. -1.
         21   -1    0    0  501  502  0.00000000000E+00 -0.00000000000E+00 -0.22560828524E+03  0.22560828524E+03  0.00000000000E+00 0.  1.
         23    2    1    2    0    0  0.20299688296E+02 -0.38745233784E+02  0.83251673609E+02  0.12962008170E+03  0.89203441279E+02 0.  0.
         23    2    1    2    0    0 -0.51304547801E+02  0.40534665081E+02 -0.12360328102E+03  0.16937279425E+03  0.95572781984E+02 0.  0.
        -13    1    4    4    0    0 -0.35822871873E+02  0.64191006221E+02 -0.12020039124E+03  0.14089676179E+03  0.00000000000E+00 0.  1.
         13    1    4    4    0    0 -0.15481675928E+02 -0.23656341140E+02 -0.34028897726E+01  0.28476032457E+02  0.00000000000E+00 0. -1.
        -13    1    3    3    0    0  0.48449358840E+02 -0.18950264772E+02  0.79492260119E+02  0.95002485892E+02  0.00000000000E+00 0.  1.
         13    1    3    3    0    0 -0.28149670544E+02 -0.19794969012E+02  0.37594134901E+01  0.34617595810E+02  0.00000000000E+00 0. -1.
         21    1    1    2  503  502  0.70578994325E+02 -0.13784288916E+02  0.35736174345E+03  0.36452546789E+03  0.00000000000E+00 0. -1.
          1    1    1    2  501    0 -0.39574134820E+02  0.11994857618E+02 -0.44188698119E+02  0.60519664551E+02  0.00000000000E+00 0. -1.
<scales pt_clust_5="13000.00000" pt_clust_6="13000.00000" pt_clust_7="13000.00000" pt_clust_8="13000.00000" pt_clust_9="71.06199" pt_clust_10="41.35201"></scales>
<clustering>
<clus scale="   41.352">  2 10  1 -1</clus>
<clus scale="   71.062">  1  9  2 -1</clus>
<clus scale="   89.203">  7  8 -1 -1</clus>
<clus scale="   95.573">  5  6 -1 -1</clus>
<clus scale="  120.249">  1  7  2 -1</clus>
<clus scale="   41.352">  2  5  1 -1</clus>
</clustering>
</event>
<event>
10    2  0.3984345E-006  0.1118019E+03  0.7546771E-02  0.1258018E+00
         21   -1    0    0  501  502  0.00000000000E+00  0.00000000000E+00  0.74546351311E+03  0.74546351311E+03  0.00000000000E+00 0.  1.
          1   -1    0    0  503    0 -0.00000000000E+00 -0.00000000000E+00 -0.69658174202E+02  0.69658174202E+02  0.00000000000E+00 0. -1.
         23    2    1    2    0    0 -0.31425298897E+02  0.47476011562E+02  0.29642088086E+02  0.10976831220E+03  0.89044415280E+02 0.  0.
         23    2    1    2    0    0  0.21432876174E+02 -0.84983101474E+02  0.27032925574E+03  0.29841664768E+03  0.91066422927E+02 0.  0.
        -11    1    4    4    0    0 -0.21661792190E+02 -0.65123225107E+02  0.97781625696E+02  0.11946344216E+03  0.00000000000E+00 0. -1.
         11    1    4    4    0    0  0.43094668364E+02 -0.19859876367E+02  0.17254763004E+03  0.17895320551E+03  0.00000000000E+00 0.  1.
        -13    1    3    3    0    0  0.89762387175E+00  0.67503687358E+02  0.16088221540E+02  0.69400175849E+02  0.00000000000E+00 0.  1.
         13    1    3    3    0    0 -0.32322922769E+02 -0.20027675796E+02  0.13553866546E+02  0.40368136351E+02  0.00000000000E+00 0. -1.
         21    1    1    2  503  502 -0.24050547836E+02 -0.11634886612E+02  0.34569487285E+00  0.26719261641E+02  0.00000000000E+00 0.  1.
          1    1    1    2  501    0  0.34042970558E+02  0.49141976523E+02  0.37548830021E+03  0.38021746580E+03  0.00000000000E+00 0. -1.
<scales pt_clust_5="13000.00000" pt_clust_6="13000.00000" pt_clust_7="13000.00000" pt_clust_8="13000.00000" pt_clust_9="26.71703" pt_clust_10="58.81039"></scales>
<clustering>
<clus scale="   26.717">  2  9  1 -1</clus>
<clus scale="   58.810">  1 10  2 -1</clus>
<clus scale="   89.044">  7  8 -1 -1</clus>
<clus scale="   91.066">  5  6 -1 -1</clus>
<clus scale="  110.161">  2  7  1 -1</clus>
<clus scale="   58.810">  1  5  2 -1</clus>
</clustering>
</event>
<event>
10    2  0.3984345E-006  0.1376876E+03  0.7546771E-02  0.1235279E+00
          1   -1    0    0  503    0 -0.00000000000E+00  0.00000000000E+00  0.56656520384E+03  0.56656520384E+03  0.00000000000E+00 0. -1.
         21   -1    0    0  501  502  0.00000000000E+00 -0.00000000000E+00 -0.72824248775E+02  0.72824248775E+02  0.00000000000E+00 0.  1.
         23    2    1    2    0    0  0.37542146203E+00  0.35747997084E+02  0.18998954533E+03  0.21347155915E+03  0.90531867280E+02 0.  0.
         23    2    1    2    0    0  0.72731822111E+02  0.65082616399E+02  0.97020516510E+02  0.16571719351E+03  0.92323034490E+02 0.  0.
        -11    1    3    3    0    0  0.28168822492E+02  0.56175182530E+02  0.12280659398E+03  0.13795141615E+03  0.00000000000E+00 0.  1.
         11    1    3    3    0    0 -0.27793401030E+02 -0.20427185447E+02  0.67182951352E+02  0.75520142999E+02  0.00000000000E+00 0. -1.
        -13    1    4    4    0    0  0.66921323989E+02  0.35864892455E+02  0.13596362927E+02  0.77133748775E+02  0.00000000000E+00 0.  1.
         13    1    4    4    0    0  0.58104981221E+01  0.29217723944E+02  0.83424153583E+02  0.88583444739E+02  0.00000000000E+00 0. -1.
         21    1    1    2  503  502  0.72979178351E+01 -0.31553958921E+02  0.11642961913E+03  0.12085018883E+03  0.00000000000E+00 0.  1.
          1    1    1    2  501    0 -0.80405161408E+02 -0.69276654562E+02  0.90301274088E+02  0.13935051112E+03  0.00000000000E+00 0. -1.
<scales pt_clust_5="13000.00000" pt_clust_6="13000.00000" pt_clust_7="13000.00000" pt_clust_8="13000.00000" pt_clust_9="32.38691" pt_clust_10="102.14865"></scales>
<clustering>
<clus scale="   32.387">  1  9  2 -1</clus>
<clus scale="   90.532">  5  6 -1 -1</clus>
<clus scale="   92.323">  7  8 -1 -1</clus>
<clus scale="   93.130">  1  5  2 -1</clus>
<clus scale="  102.149">  2 10  1 -1</clus>
<clus scale="  102.149">  2  5  1 -1</clus>
</clustering>
</event>
<event>
10    2  0.3984345E-006  0.9930272E+02  0.7546771E-02  0.1285940E+00
         21   -1    0    0  503  502  0.00000000000E+00  0.00000000000E+00  0.62248172962E+02  0.62248172962E+02  0.00000000000E+00 0.  1.
         -1   -1    0    0    0  501 -0.00000000000E+00 -0.00000000000E+00 -0.86524634186E+03  0.86524634186E+03  0.00000000000E+00 0.  1.
         23    2    1    2    0    0  0.82503346196E+01 -0.32518545051E+02 -0.45438901733E+03  0.46572752493E+03  0.96473958235E+02 0.  0.
         23    2    1    2    0    0 -0.36053991929E+02 -0.21908359249E+02 -0.11655326186E+03  0.15204772427E+03  0.88056692352E+02 0.  0.
        -11    1    4    4    0    0 -0.80230196767E+01 -0.52389276206E+02 -0.45706972206E+02  0.69986658831E+02  0.00000000000E+00 0.  1.
         11    1    4    4    0    0 -0.28030972252E+02  0.30480916958E+02 -0.70846289653E+02  0.82061065443E+02  0.00000000000E+00 0. -1.
        -13    1    3    3    0    0 -0.27376639937E+02 -0.52139511655E+02 -0.31785046423E+03  0.32325984393E+03  0.00000000000E+00 0.  1.
         13    1    3    3    0    0  0.35626974557E+02  0.19620966604E+02 -0.13653855310E+03  0.14246768100E+03  0.00000000000E+00 0. -1.
         21    1    1    2  503  501 -0.37488238010E+02 -0.14818508767E+02 -0.20756806890E+03  0.21144611469E+03  0.00000000000E+00 0.  1.
         -1    1    1    2    0  502  0.65291895319E+02  0.69245413066E+02 -0.24487820815E+02  0.98273150928E+02  0.00000000000E+00 0.  1.
<scales pt_clust_5="13000.00000" pt_clust_6="13000.00000" pt_clust_7="13000.00000" pt_clust_8="13000.00000" pt_clust_9="40.31075" pt_clust_10="91.77074"></scales>
<clustering>
<clus scale="   40.311">  2  9  1 -1</clus>
<clus scale="   88.057">  5  6 -1 -1</clus>
<clus scale="   91.771">  1 10  2 -1</clus>
<clus scale="   91.771">  1  5  2 -1</clus>
<clus scale="   96.474">  7  8 -1 -1</clus>
<clus scale="   91.771">  1  5  2 -1</clus>
</clustering>
</event>
<event>
10    2  0.3984345E-006  0.1482168E+03  0.7546771E-02  0.1205000E+00
         21   -1    0    0  501  502  0.00000000000E+00  0.00000000000E+00  0.18542672632E+03  0.18542672632E+03  0.00000000000E+00 0. -1.
          2   -1    0    0  503    0 -0.00000000000E+00 -0.00000000000E+00 -0.32173387015E+03  0.32173387015E+03  0.00000000000E+00 0. -1.
         23    2    1    2    0    0 -0.92761913708E+02  0.29725276536E+02 -0.73044007450E+02  0.15912653701E+03  0.10245712790E+03 0.  0.
         23    2    1    2    0    0  0.84079923854E+02 -0.97781020674E+02 -0.10043133356E+03  0.18740977513E+03  0.91681020152E+02 0.  0.
        -11    1    4    4    0    0  0.44397744075E+02 -0.37865559763E+02  0.63512761169E+01  0.58696669441E+02  0.00000000000E+00 0.  1.
         11    1    4    4    0    0  0.39682179779E+02 -0.59915460911E+02 -0.10678260967E+03  0.12871310569E+03  0.00000000000E+00 0. -1.
        -13    1    3    3    0    0 -0.23993683486E+01  0.48097575513E+02 -0.34209285346E+02  0.59071219241E+02  0.00000000000E+00 0. -1.
         13    1    3    3    0    0 -0.90362545359E+02 -0.18372298977E+02 -0.38834722104E+02  0.10005531777E+03  0.00000000000E+00 0.  1.
         21    1    1    2  503  502  0.42224429067E+02  0.69103094418E+01 -0.38614573220E+02  0.57634538704E+02  0.00000000000E+00 0. -1.
          2    1    1    2  501    0 -0.33542439213E+02  0.61145434697E+02  0.75782770405E+02  0.10298974562E+03  0.00000000000E+00 0. -1.
<scales pt_clust_5="13000.00000" pt_clust_6="13000.00000" pt_clust_7="13000.00000" pt_clust_8="13000.00000" pt_clust_9="42.78615" pt_clust_10="69.06205"></scales>
<clustering>
<clus scale="   42.786">  2  9  1 -1</clus>
<clus scale="   69.062">  1 10  2 -1</clus>
<clus scale="   91.681">  5  6 -1 -1</clus>
<clus scale="  102.457">  7  8 -1 -1</clus>
<clus scale="  140.983">  1  5  2 -1</clus>
<clus scale="   69.062">  1  5  2 -1</clus>
</clustering>
</event>
<event>
10    2  0.3984345E-006  0.1280175E+03  0.7546771E-02  0.1232971E+00
          1   -1    0    0  503    0 -0.00000000000E+00  0.00000000000E+00  0.52023195246E+03  0.52023195246E+03  0.00000000000E+00 0. -1.
         21   -1    0    0  501  502  0.00000000000E+00 -0.00000000000E+00 -0.30413467329E+03  0.30413467329E+03  0.00000000000E+00 0. -1.
         23    2    1    2    0    0  0.43028642967E+02 -0.10149918683E+03  0.31813658811E+03  0.35006727934E+03  0.95826208965E+02 0.  0.
         23    2    1    2    0    0 -0.45792520788E+02  0.11273692299E+03 -0.25378344506E+03  0.29456008744E+03  0.86908223774E+02 0.  0.
        -13    1    4    4    0    0 -0.11389275780E+02  0.10557406562E+03 -0.14153810063E+03  0.17694245637E+03  0.00000000000E+00 0. -1.
         13    1    4    4    0    0 -0.34403245009E+02  0.71628573669E+01 -0.11224534443E+03  0.11761763107E+03  0.00000000000E+00 0.  1.
        -13    1    3    3    0    0  0.29758147004E+02  0.71571267042E+00  0.14942818843E+03  0.15236417904E+03  0.00000000000E+00 0. -1.
         13    1    3    3    0    0  0.13270495962E+02 -0.10221489950E+03  0.16870839969E+03  0.19770310030E+03  0.00000000000E+00 0.  1.
         21    1    1    2  503  502 -0.12701247408E+01  0.36572831068E+02  0.11072226234E+03  0.11661305487E+03  0.00000000000E+00 0. -1.
          1    1    1    2  501    0  0.40340025626E+01 -0.47810567223E+02  0.41021873780E+02  0.63126204094E+02  0.00000000000E+00 0. -1.
<scales pt_clust_5="13000.00000" pt_clust_6="13000.00000" pt_clust_7="13000.00000" pt_clust_8="13000.00000" pt_clust_9="36.59488" pt_clust_10="43.29964"></scales>
<clustering>
<clus scale="   36.595">  1  9  2 -1</clus>
<clus scale="   43.300">  2 10  1 -1</clus>
<clus scale="   86.908">  5  6 -1 -1</clus>
<clus scale="   95.826">  7  8 -1 -1</clus>
<clus scale="  121.486">  2  5  1 -1</clus>
<clus scale="   43.300">  2  5  1 -1</clus>
</clustering>
</event>
<event>
10    2  0.3984345E-006  0.1821040E+03  0.7546771E-02  0.1165994E+00
          3   -1    0    0  503    0 -0.00000000000E+00  0.00000000000E+00  0.12975334076E+04  0.12975334076E+04  0.00000000000E+00 0. -1.
         21   -1    0    0  501  502  0.00000000000E+00 -0.00000000000E+00 -0.11707889739E+03  0.11707889739E+03  0.00000000000E+00 0. -1.
         23    2    1    2    0    0 -0.11409835337E+03 -0.13462885324E+03  0.91567375519E+03  0.93705815853E+03  0.92066303043E+02 0.  0.
         23    2    1    2    0    0  0.15874949649E+03  0.81974648586E+02  0.22277745634E+03  0.30058149645E+03  0.93798695675E+02 0.  0.
        -11    1    3    3    0    0 -0.76072356636E+02 -0.20856108048E+02  0.34249882885E+03  0.35146469019E+03  0.00000000000E+00 0.  1.
         11    1    3    3    0    0 -0.38025996730E+02 -0.11377274519E+03  0.57317492634E+03  0.58559346834E+03  0.00000000000E+00 0. -1.
        -11    1    4    4    0    0  0.12230975812E+03  0.91434231399E+02  0.13033270001E+03  0.20076480840E+03  0.00000000000E+00 0.  1.
         11    1    4    4    0    0  0.36439738372E+02 -0.94595828139E+01  0.92444756332E+02  0.99816688048E+02  0.00000000000E+00 0. -1.
         21    1    1    2  503  502  0.25280026419E+02  0.21837091597E+02  0.83555698403E+02  0.89986071370E+02  0.00000000000E+00 0. -1.
          3    1    1    2  501    0 -0.69931169544E+02  0.30817113053E+02 -0.41552399761E+02  0.86986578600E+02  0.00000000000E+00 0. -1.
<scales pt_clust_5="13000.00000" pt_clust_6="13000.00000" pt_clust_7="13000.00000" pt_clust_8="13000.00000" pt_clust_9="33.40566" pt_clust_10="76.15359"></scales>
<clustering>
<clus scale="   33.406">  1  9  2 -1</clus>
<clus scale="   76.154">  2 10  1 -1</clus>
<clus scale="   92.066">  5  6 -1 -1</clus>
<clus scale="   93.799">  7  8 -1 -1</clus>
<clus scale="  181.218">  1  5  2 -1</clus>
<clus scale="   76.154">  2  5  1 -1</clus>
</clustering>
</event>
<event>
10    2  0.3984345E-006  0.2763312E+03  0.7546771E-02  0.1097729E+00
         -1   -1    0    0    0  501 -0.00000000000E+00  0.00000000000E+00  0.79856102272E+03  0.79856102272E+03  0.00000000000E+00 0.  1.
         21   -1    0    0  503  502  0.00000000000E+00 -0.00000000000E+00 -0.21830939557E+03  0.21830939557E+03  0.00000000000E+00 0. -1.
         23    2    1    2    0    0 -0.50571645133E+02  0.24154231168E+03  0.33888895283E+03  0.42884444049E+03  0.90341862789E+02 0.  0.
         23    2    1    2    0    0 -0.21557963870E+02 -0.29055763638E+03  0.24136258594E+03  0.38888435285E+03  0.89925836821E+02 0.  0.
        -13    1    4    4    0    0 -0.25336001278E+02 -0.17434953333E+03  0.19738415602E+03  0.26457546708E+03  0.00000000000E+00 0.  1.
         13    1    4    4    0    0  0.37780374079E+01 -0.11620810305E+03  0.43978429923E+02  0.12430888576E+03  0.00000000000E+00 0. -1.
        -13    1    3    3    0    0  0.17775772964E+02  0.13022474581E+03  0.18602726501E+03  0.22777314559E+03  0.00000000000E+00 0. -1.
         13    1    3    3    0    0 -0.68347418097E+02  0.11131756586E+03  0.15286168782E+03  0.20107129490E+03  0.00000000000E+00 0.  1.
         21    1    1    2  503  501  0.95551604000E+02  0.53968443330E+02  0.66601352470E+02  0.12836838417E+03  0.00000000000E+00 0.  1.
         -1    1    1    2    0  502 -0.23421994997E+02 -0.49531186212E+01 -0.66601264091E+02  0.70773240792E+02  0.00000000000E+00 0.  1.
<scales pt_clust_5="13000.00000" pt_clust_6="13000.00000" pt_clust_7="13000.00000" pt_clust_8="13000.00000" pt_clust_9="105.03748" pt_clust_10="23.93999"></scales>
<clustering>
<clus scale="   23.940">  2 10  1 -1</clus>
<clus scale="   89.926">  5  6 -1 -1</clus>
<clus scale="   90.342">  7  8 -1 -1</clus>
<clus scale="  105.037">  2  9  1 -1</clus>
<clus scale="  276.195">  2  5  1 -1</clus>
<clus scale="   23.940">  2  5  1 -1</clus>
</clustering>
</event>
<event>
10    2  0.3984345E-006  0.1019820E+03  0.7546771E-02  0.1276503E+00
         -1   -1    0    0    0  501 -0.00000000000E+00  0.00000000000E+00  0.29138697612E+03  0.29138697612E+03  0.00000000000E+00 0.  1.
         21   -1    0    0  503  502  0.00000000000E+00 -0.00000000000E+00 -0.16153598441E+03  0.16153598441E+03  0.00000000000E+00 0.  1.
         23    2    1    2    0    0  0.10526146534E+02 -0.42361457127E+02  0.61239411340E+02  0.11747873347E+03  0.90253501354E+02 0.  0.
         23    2    1    2    0    0 -0.15928780443E+02  0.33293943956E+01 -0.50570962672E+02  0.10533249289E+03  0.90954389004E+02 0.  0.
        -11    1    3    3    0    0 -0.27072071186E+02 -0.14501041749E+02 -0.99529991794E+01  0.32283733408E+02  0.00000000000E+00 0. -1.
         11    1    3    3    0    0  0.37598217720E+02 -0.27860415378E+02  0.71192410519E+02  0.85195000066E+02  0.00000000000E+00 0.  1.
        -13    1    4    4    0    0  0.19666286543E+01  0.45823732647E+02 -0.20179618723E+02  0.50108872605E+02  0.00000000000E+00 0. -1.
         13    1    4    4    0    0 -0.17895409097E+02 -0.42494338251E+02 -0.30391343948E+02  0.55223620283E+02  0.00000000000E+00 0.  1.
         21    1    1    2  503  501 -0.23139059322E+02 -0.62189582739E+02  0.10469255161E+03  0.12394954873E+03  0.00000000000E+00 0.  1.
         -1    1    1    2    0  502  0.28541693230E+02  0.10122164547E+03  0.14489991430E+02  0.10616218543E+03  0.00000000000E+00 0.  1.
<scales pt_clust_5="13000.00000" pt_clust_6="13000.00000" pt_clust_7="13000.00000" pt_clust_8="13000.00000" pt_clust_9="66.35481" pt_clust_10="82.65695"></scales>
<clustering>
<clus scale="   66.355">  1  9  2 -1</clus>
<clus scale="   82.657">  2 10  1 -1</clus>
<clus scale="   90.254">  5  6 -1 -1</clus>
<clus scale="   90.954">  7  8 -1 -1</clus>
<clus scale="  101.357">  1  5  2 -1</clus>
<clus scale="   82.657">  2  5  1 -1</clus>
</clustering>
</event>
<event>
10    2  0.3984345E-006  0.1614837E+03  0.7546771E-02  0.1227964E+00
         21   -1    0    0  503  502  0.00000000000E+00  0.00000000000E+00  0.17091293751E+03  0.17091293751E+03  0.00000000000E+00 0. -1.
         -1   -1    0    0    0  501 -0.00000000000E+00 -0.00000000000E+00 -0.28320554299E+03  0.28320554299E+03  0.00000000000E+00 0.  1.
         23    2    1    2    0    0  0.90669896941E+02 -0.98695992416E+02  0.10202918678E+02  0.16491131892E+03  0.95549539135E+02 0.  0.
         23    2    1    2    0    0 -0.14874734286E+02  0.23259246907E+02 -0.13320762701E+02  0.70131437773E+02  0.63077139745E+02 0.  0.
        -13    1    4    4    0    0 -0.24885699615E+02 -0.10761061311E+02  0.85960272360E+01  0.28442752506E+02  0.00000000000E+00 0. -1.
         13    1    4    4    0    0  0.10010965329E+02  0.34020308218E+02 -0.21916789937E+02  0.41688685267E+02  0.00000000000E+00 0.  1.
        -13    1    3    3    0    0 -0.66250536863E+01 -0.48571644597E+02 -0.17432548581E+02  0.52028739609E+02  0.00000000000E+00 0.  1.
         13    1    3    3    0    0  0.97294950627E+02 -0.50124347818E+02  0.27635467259E+02  0.11288257931E+03  0.00000000000E+00 0. -1.
         21    1    1    2  503  501 -0.82539427742E+02  0.99226445233E+02 -0.13257865252E+03  0.18502903467E+03  0.00000000000E+00 0.  1.
         -1    1    1    2    0  502  0.67442650869E+01 -0.23789699725E+02  0.23403891065E+02  0.34046689142E+02  0.00000000000E+00 0.  1.
<scales pt_clust_5="13000.00000" pt_clust_6="13000.00000" pt_clust_7="13000.00000" pt_clust_8="13000.00000" pt_clust_9="130.18164" pt_clust_10="24.72721"></scales>
<clustering>
<clus scale="   24.727">  1 10  2 -1</clus>
<clus scale="   63.077">  5  6 -1 -1</clus>
<clus scale="   67.113">  1  5  2 -1</clus>
<clus scale="   95.550">  7  8 -1 -1</clus>
<clus scale="  130.182">  2  9  1 -1</clus>
<clus scale="   24.727">  1  5  2 -1</clus>
</clustering>
</event>
<event>
10    2  0.3984345E-006  0.1208415E+03  0.7546771E-02  0.1243477E+00
         21   -1    0    0  501  502  0.00000000000E+00  0.00000000000E+00  0.39872600111E+03  0.39872600111E+03  0.00000000000E+00 0. -1.
          1   -1    0    0  503    0 -0.00000000000E+00 -0.00000000000E+00 -0.25117994811E+03  0.25117994811E+03  0.00000000000E+00 0. -1.
         23    2    1    2    0    0  0.35404819072E+02  0.10935642433E+03 -0.66413914868E+02  0.16087203766E+03  0.90866251476E+02 0.  0.
         23    2    1    2    0    0 -0.55228635181E+02 -0.11639268429E+03  0.23581781856E+03  0.28188653364E+03  0.85161700306E+02 0.  0.
        -11    1    4    4    0    0 -0.88441879292E+00 -0.82888947483E+02  0.88119528609E+02  0.12098103626E+03  0.00000000000E+00 0. -1.
         11    1    4    4    0    0 -0.54344216388E+02 -0.33503736806E+02  0.14769828995E+03  0.16090549739E+03  0.00000000000E+00 0.  1.
        -13    1    3    3    0    0  0.27030508769E+02  0.49712917282E+02  0.15991646474E+02  0.58802681112E+02  0.00000000000E+00 0. -1.
         13    1    3    3    0    0  0.83743103030E+01  0.59643507044E+02 -0.82405561342E+02  0.10206935655E+03  0.00000000000E+00 0.  1.
         21    1    1    2  503  502 -0.26801309956E+02 -0.53471708497E+02 -0.87797826176E+02  0.10623555011E+03  0.00000000000E+00 0. -1.
          1    1    1    2  501    0  0.46625126064E+02  0.60507968460E+02  0.65939975483E+02  0.10091182782E+03  0.00000000000E+00 0. -1.
<scales pt_clust_5="13000.00000" pt_clust_6="13000.00000" pt_clust_7="13000.00000" pt_clust_8="13000.00000" pt_clust_9="59.81249" pt_clust_10="69.74026"></scales>
<clustering>
<clus scale="   59.812">  2  9  1 -1</clus>
<clus scale="   69.740">  1 10  2 -1</clus>
<clus scale="   85.162">  5  6 -1 -1</clus>
<clus scale="   90.866">  7  8 -1 -1</clus>
<clus scale="  116.613">  1  5  2 -1</clus>
<clus scale="   69.740">  1  5  2 -1</clus>
</clustering>
</event>
<event>
10    2  0.3984345E-006  0.1182125E+03  0.7546771E-02  0.1247358E+00
          1   -1    0    0  503    0 -0.00000000000E+00  0.00000000000E+00  0.80065592543E+02  0.80065592543E+02  0.00000000000E+00 0. -1.
         21   -1    0    0  501  502  0.00000000000E+00 -0.00000000000E+00 -0.32659269880E+03  0.32659269880E+03  0.00000000000E+00 0.  1.
         23    2    1    2    0    0 -0.16854515980E+02  0.76955272487E+02 -0.58806719656E+02  0.13396574755E+03  0.91007706083E+02 0.  0.
         23    2    1    2    0    0 -0.15398224079E+02 -0.68730894275E+02 -0.10588120028E+03  0.15411814114E+03  0.87066249039E+02 0.  0.
        -11    1    4    4    0    0  0.30259880160E+02 -0.96781794167E+00 -0.28050019882E+02  0.41272274402E+02  0.00000000000E+00 0.  1.
         11    1    4    4    0    0 -0.45658104239E+02 -0.67763076333E+02 -0.77831180402E+02  0.11284586674E+03  0.00000000000E+00 0. -1.
        -13    1    3    3    0    0  0.33577984719E+02  0.26523061773E+02 -0.43503054359E+02  0.61020239283E+02  0.00000000000E+00 0.  1.
         13    1    3    3    0    0 -0.50432500699E+02  0.50432210714E+02 -0.15303665297E+02  0.72945508263E+02  0.00000000000E+00 0. -1.
         21    1    1    2  503  502  0.38842011116E+02  0.22076167273E+02 -0.19096578003E+02  0.48587429243E+02  0.00000000000E+00 0.  1.
          1    1    1    2  501    0 -0.65892710576E+01 -0.30300545485E+02 -0.62742608312E+02  0.69986973413E+02  0.00000000000E+00 0. -1.
<scales pt_clust_5="13000.00000" pt_clust_6="13000.00000" pt_clust_7="13000.00000" pt_clust_8="13000.00000" pt_clust_9="42.09239" pt_clust_10="31.00873"></scales>
<clustering>
<clus scale="   31.009">  2 10  1 -1</clus>
<clus scale="   42.092">  1  9  2 -1</clus>
<clus scale="   87.066">  5  6 -1 -1</clus>
<clus scale="   91.008">  7  8 -1 -1</clus>
<clus scale="  115.206">  2  5  1 -1</clus>
<clus scale="   31.009">  2  5  1 -1</clus>
</clustering>
</event>
<event>
10    2  0.3984345E-006  0.9049315E+02  0.7546771E-02  0.1302370E+00
          4   -1    0    0  503    0 -0.00000000000E+00  0.00000000000E+00  0.52126592777E+02  0.52126592777E+02  0.00000000000E+00 0. -1.
         21   -1    0    0  501  502  0.00000000000E+00 -0.00000000000E+00 -0.39857995242E+03  0.39857995242E+03  0.00000000000E+00 0.  1.
         23    2    1    2    0    0 -0.16016298194E+02 -0.66952067094E+01 -0.81324743747E+02  0.12169130206E+03  0.88846561282E+02 0.  0.
         23    2    1    2    0    0 -0.49714007068E+01  0.41203535625E+01 -0.20488961164E+03  0.22388748665E+03  0.90023116950E+02 0.  0.
        -11    1    3    3    0    0 -0.23717644758E+01  0.40112844979E+02 -0.25585189436E+02  0.47636829423E+02  0.00000000000E+00 0.  1.
         11    1    3    3    0    0 -0.13644533718E+02 -0.46808051688E+02 -0.55739554311E+02  0.74054472640E+02  0.00000000000E+00 0. -1.
        -11    1    4    4    0    0  0.21858005053E+02  0.26308506955E+02 -0.17404411292E+03  0.17737323125E+03  0.00000000000E+00 0.  1.
         11    1    4    4    0    0 -0.26829405760E+02 -0.22188153393E+02 -0.30845498716E+02  0.46514255401E+02  0.00000000000E+00 0. -1.
         21    1    1    2  503  502  0.91096039879E-01  0.23488835943E+02  0.12501516429E+02  0.26608675756E+02  0.00000000000E+00 0. -1.
          4    1    1    2  501    0  0.20896602861E+02 -0.20913982796E+02 -0.72740520695E+02  0.78519080728E+02  0.00000000000E+00 0. -1.
<scales pt_clust_5="13000.00000" pt_clust_6="13000.00000" pt_clust_7="13000.00000" pt_clust_8="13000.00000" pt_clust_9="23.48901" pt_clust_10="28.13520"></scales>
<clustering>
<clus scale="   23.489">  1  9  2 -1</clus>
<clus scale="   28.135">  2 10  1 -1</clus>
<clus scale="   88.847">  5  6 -1 -1</clus>
<clus scale="   89.323">  1  5  2 -1</clus>
<clus scale="   90.023">  7  8 -1 -1</clus>
<clus scale="   28.135">  2  5  1 -1</clus>
</clustering>
</event>
<event>
10    2  0.3984345E-006  0.1579926E+03  0.7546771E-02  0.1192639E+00
          1   -1    0    0  503    0 -0.00000000000E+00  0.00000000000E+00  0.98838152775E+03  0.98838152775E+03  0.00000000000E+00 0. -1.
         21   -1    0    0  501  502  0.00000000000E+00 -0.00000000000E+00 -0.13016790648E+03  0.13016790648E+03  0.00000000000E+00 0. -1.
         23    2    1    2    0    0  0.97783827831E+02 -0.44970325414E+02  0.52283301496E+03  0.54169150648E+03  0.92148355953E+02 0.  0.
         23    2    1    2    0    0 -0.16205632031E+03  0.54044570802E+02  0.25893830420E+03  0.32631421372E+03  0.10123662434E+03 0.  0.
        -11    1    4    4    0    0 -0.12024508569E+03  0.62512385309E+02  0.24745455042E+03  0.28213548780E+03  0.00000000000E+00 0. -1.
         11    1    4    4    0    0 -0.41811234622E+02 -0.84678145069E+01  0.11483753772E+02  0.44178725919E+02  0.00000000000E+00 0.  1.
        -13    1    3    3    0    0 -0.51133746151E+01  0.19565980538E+02  0.73334063873E+02  0.76071408023E+02  0.00000000000E+00 0.  1.
         13    1    3    3    0    0  0.10289720245E+03 -0.64536305952E+02  0.44949895109E+03  0.46562009846E+03  0.00000000000E+00 0. -1.
         21    1    1    2  503  502  0.73270935027E+02  0.27215705313E+02  0.14937321922E+03  0.16858731612E+03  0.00000000000E+00 0.  1.
          1    1    1    2  501    0 -0.89984425515E+01 -0.36289950702E+02 -0.72930917101E+02  0.81956397916E+02  0.00000000000E+00 0. -1.
<scales pt_clust_5="13000.00000" pt_clust_6="13000.00000" pt_clust_7="13000.00000" pt_clust_8="13000.00000" pt_clust_9="74.53546" pt_clust_10="37.38894"></scales>
<clustering>
<clus scale="   37.389">  2 10  1 -1</clus>
<clus scale="   74.535">  2  9  1 -1</clus>
<clus scale="   92.148">  7  8 -1 -1</clus>
<clus scale="  101.237">  5  6 -1 -1</clus>
<clus scale="  152.329">  1  7  2 -1</clus>
<clus scale="   37.389">  2  5  1 -1</clus>
</clustering>
</event>
<event>
10    2  0.3984345E-006  0.1410128E+03  0.7546771E-02  0.1212951E+00
         21   -1    0    0  501  502  0.00000000000E+00  0.00000000000E+00  0.57598733017E+02  0.57598733017E+02  0.00000000000E+00 0.  1.
          1   -1    0    0  503    0 -0.00000000000E+00 -0.00000000000E+00 -0.80650545874E+03  0.80650545874E+03  0.00000000000E+00 0. -1.
         23    2    1    2    0    0 -0.25641426311E+02 -0.10676457407E+03 -0.41152428285E+03  0.43491713943E+03  0.88002987302E+02 0.  0.
         23    2    1    2    0    0 -0.22029404550E+02  0.82081249765E+02 -0.92545302940E+02  0.15602022597E+03  0.92493521870E+02 0.  0.
        -11    1    3    3    0    0 -0.45639635307E+02 -0.18882773864E+02 -0.17376672889E+03  0.18064996964E+03  0.00000000000E+00 0.  1.
         11    1    3    3    0    0  0.19998208996E+02 -0.87881800201E+02 -0.23775755396E+03  0.25426716979E+03  0.00000000000E+00 0. -1.
        -11    1    4    4    0    0  0.27141854381E+02  0.22474769173E+02 -0.65090047307E+02  0.74016955942E+02  0.00000000000E+00 0. -1.
         11    1    4    4    0    0 -0.49171258931E+02  0.59606480593E+02 -0.27455255633E+02  0.82003270029E+02  0.00000000000E+00 0.  1.
         21    1    1    2  503  502  0.39241861752E+02 -0.18176168103E+02 -0.21723090430E+03  0.22149393351E+03  0.00000000000E+00 0. -1.
          1    1    1    2  501    0  0.84289691093E+01  0.42859492403E+02 -0.27606235637E+02  0.51672892848E+02  0.00000000000E+00 0. -1.
<scales pt_clust_5="13000.00000" pt_clust_6="13000.00000" pt_clust_7="13000.00000" pt_clust_8="13000.00000" pt_clust_9="43.24693" pt_clust_10="43.08112"></scales>
<clustering>
<clus scale="   43.247">  2  9  1 -1</clus>
<clus scale="   43.081">  1 10  2 -1</clus>
<clus scale="   88.003">  5  6 -1 -1</clus>
<clus scale="   92.494">  7  8 -1 -1</clus>
<clus scale="  138.109">  2  5  1 -1</clus>
<clus scale="   43.081">  1  5  2 -1</clus>
</clustering>
</event>
<event>
10    2  0.3984345E-006  0.1020082E+03  0.7546771E-02  0.1276675E+00
         21   -1    0    0  501  502  0.00000000000E+00  0.00000000000E+00  0.14453582357E+03  0.14453582357E+03  0.00000000000E+00 0.  1.
          4   -1    0    0  503    0 -0.00000000000E+00 -0.00000000000E+00 -0.32788730012E+03  0.32788730012E+03  0.00000000000E+00 0. -1.
         23    2    1    2    0    0 -0.97886823124E+01  0.34781083009E+02 -0.19574843999E+03  0.21844283090E+03  0.89968197575E+02 0.  0.
         23    2    1    2    0    0 -0.91782223181E+00 -0.35857525889E+02 -0.31270284756E+02  0.10282986065E+03  0.91156705584E+02 0.  0.
        -11    1    3    3    0    0  0.15818476183E+02 -0.24889900557E+02 -0.86091903901E+02  0.91003006850E+02  0.00000000000E+00 0.  1.
         11    1    3    3    0    0 -0.25607158496E+02  0.59670983565E+02 -0.10965653609E+03  0.12743982405E+03  0.00000000000E+00 0. -1.
        -13    1    4    4    0    0  0.24242521996E+01 -0.63726624443E+02 -0.43222378534E+01  0.63919022221E+02  0.00000000000E+00 0.  1.
         13    1    4    4    0    0 -0.33420744314E+01  0.27869098554E+02 -0.26948046902E+02  0.38910838433E+02  0.00000000000E+00 0. -1.
         21    1    1    2  503  502 -0.61535120023E+01  0.21514113639E+02 -0.49482040824E+02  0.54306492795E+02  0.00000000000E+00 0. -1.
          4    1    1    2  501    0  0.16860016546E+02 -0.20437670759E+02  0.93149289020E+02  0.96843939350E+02  0.00000000000E+00 0. -1.
<scales pt_clust_5="13000.00000" pt_clust_6="13000.00000" pt_clust_7="13000.00000" pt_clust_8="13000.00000" pt_clust_9="22.37684" pt_clust_10="26.35728"></scales>
<clustering>
<clus scale="   22.377">  2  9  1 -1</clus>
<clus scale="   26.357">  1 10  2 -1</clus>
<clus scale="   89.968">  5  6 -1 -1</clus>
<clus scale="   91.157">  7  8 -1 -1</clus>
<clus scale="  100.948">  2  5  1 -1</clus>
<clus scale="   26.357">  1  5  2 -1</clus>
</clustering>
</event>
<event>
10    2  0.3984345E-006  0.1148907E+03  0.7546771E-02  0.1252158E+00
         21   -1    0    0  501  502  0.00000000000E+00  0.00000000000E+00  0.31736488740E+03  0.31736488740E+03  0.00000000000E+00 0. -1.
          2   -1    0    0  503    0 -0.00000000000E+00 -0.00000000000E+00 -0.23223482148E+03  0.23223482148E+03  0.00000000000E+00 0. -1.
         23    2    1    2    0    0 -0.19918468670E+01 -0.59645021138E+01 -0.90632022793E+02  0.12688666432E+03  0.88580580760E+02 0.  0.
         23    2    1    2    0    0  0.53533278607E+02  0.73286850009E+02  0.11684806396E+03  0.17302633615E+03  0.89709913878E+02 0.  0.
        -11    1    4    4    0    0  0.62332369090E+02  0.42509687236E+02  0.31295017474E+02  0.81680939416E+02  0.00000000000E+00 0.  1.
         11    1    4    4    0    0 -0.87990904825E+01  0.30777162773E+02  0.85553046484E+02  0.91345396733E+02  0.00000000000E+00 0. -1.
        -11    1    3    3    0    0 -0.96540971179E+01 -0.32582220184E+02 -0.20154331384E+01  0.34042100905E+02  0.00000000000E+00 0.  1.
         11    1    3    3    0    0  0.76622502509E+01  0.26617718070E+02 -0.88616589655E+02  0.92844563418E+02  0.00000000000E+00 0. -1.
         21    1    1    2  503  502 -0.78301301025E+02 -0.40102414173E+02 -0.71774422437E+02  0.11353794556E+03  0.00000000000E+00 0. -1.
          2    1    1    2  501    0  0.26759869285E+02 -0.27219933723E+02  0.13068844720E+03  0.13614876285E+03  0.00000000000E+00 0. -1.
<scales pt_clust_5="13000.00000" pt_clust_6="13000.00000" pt_clust_7="13000.00000" pt_clust_8="13000.00000" pt_clust_9="86.77662" pt_clust_10="38.17087"></scales>
<clustering>
<clus scale="   38.171">  1 10  2 -1</clus>
<clus scale="   86.777">  2  9  1 -1</clus>
<clus scale="   88.581">  7  8 -1 -1</clus>
<clus scale="   89.710">  5  6 -1 -1</clus>
<clus scale="  114.011">  2  7  1 -1</clus>
<clus scale="   38.171">  1  5  2 -1</clus>
</clustering>
</event>
<event>
10    2  0.3984345E-006  0.1198306E+03  0.7546771E-02  0.1249362E+00
          1   -1    0    0  503    0 -0.00000000000E+00  0.00000000000E+00  0.33375836687E+03  0.33375836687E+03  0.00000000000E+00 0. -1.
         21   -1    0    0  501  502  0.00000000000E+00 -0.00000000000E+00 -0.22078024012E+03  0.22078024012E+03  0.00000000000E+00 0.  1.
         23    2    1    2    0    0  0.74788337953E+01  0.27822184245E+02 -0.16546017265E+02  0.96876820491E+02  0.91001872343E+02 0.  0.
         23    2    1    2    0    0 -0.11475190393E+03  0.76351953630E+01 -0.73212991025E+02  0.17302626978E+03  0.10654413318E+03 0.  0.
        -11    1    3    3    0    0  0.37306685153E+02 -0.17262328960E+02 -0.10879363016E+02  0.42522197707E+02  0.00000000000E+00 0.  1.
         11    1    3    3    0    0 -0.29827851358E+02  0.45084513205E+02 -0.56666542485E+01  0.54354622783E+02  0.00000000000E+00 0. -1.
        -13    1    4    4    0    0 -0.79833884981E+02 -0.19847841679E+02 -0.93190747474E+02  0.12430567736E+03  0.00000000000E+00 0.  1.
         13    1    4    4    0    0 -0.34918018946E+02  0.27483037042E+02  0.19977756449E+02  0.48720592411E+02  0.00000000000E+00 0. -1.
         21    1    1    2  503  502  0.64813010995E+02 -0.23547166578E+02  0.22493293897E+03  0.23526585490E+03  0.00000000000E+00 0. -1.
          1    1    1    2  501    0  0.42460059137E+02 -0.11910213030E+02 -0.22195803927E+02  0.49369661821E+02  0.00000000000E+00 0. -1.
<scales pt_clust_5="13000.00000" pt_clust_6="13000.00000" pt_clust_7="13000.00000" pt_clust_8="13000.00000" pt_clust_9="70.18608" pt_clust_10="44.09886"></scales>
<clustering>
<clus scale="   44.099">  2 10  1 -1</clus>
<clus scale="   70.186">  1  9  2 -1</clus>
<clus scale="   91.002">  5  6 -1 -1</clus>
<clus scale="  106.250">  1  5  2 -1</clus>
<clus scale="  106.544">  7  8 -1 -1</clus>
<clus scale="   44.099">  2  5  1 -1</clus>
</clustering>
</event>
<event>
10    2  0.3984345E-006  0.1286990E+03  0.7546771E-02  0.1231946E+00
          4   -1    0    0  503    0 -0.00000000000E+00  0.00000000000E+00  0.52035882494E+02  0.52035882494E+02  0.00000000000E+00 0. -1.
         21   -1    0    0  501  502  0.00000000000E+00 -0.00000000000E+00 -0.53886406393E+03  0.53886406393E+03  0.00000000000E+00 0.  1.
         23    2    1    2    0    0  0.40330651115E+02 -0.10543914752E+03 -0.20900104247E+03  0.25410622366E+03  0.90247226551E+02 0.  0.
         23    2    1    2    0    0 -0.28691989885E+01  0.72798529068E+02 -0.25017192589E+03  0.27273841318E+03  0.80575377058E+02 0.  0.
        -11    1    4    4    0    0 -0.27866891202E+02 -0.36126777372E+01 -0.59036326144E+02  0.65382741380E+02  0.00000000000E+00 0.  1.
         11    1    4    4    0    0  0.24997692213E+02  0.76411206805E+02 -0.19113559974E+03  0.20735567181E+03  0.00000000000E+00 0. -1.
        -13    1    3    3    0    0  0.46725182496E+02 -0.55363213400E+02 -0.18404904550E+03  0.19779377955E+03  0.00000000000E+00 0.  1.
         13    1    3    3    0    0 -0.63945313806E+01 -0.50075934115E+02 -0.24951996968E+02  0.56312444111E+02  0.00000000000E+00 0. -1.
         21    1    1    2  503  502 -0.28235264472E+02  0.54512596260E+01 -0.17146268623E+02  0.33480455776E+02  0.00000000000E+00 0. -1.
          4    1    1    2  501    0 -0.92261876546E+01  0.27189358822E+02 -0.10508944462E+02  0.30574853809E+02  0.00000000000E+00 0. -1.
<scales pt_clust_5="13000.00000" pt_clust_6="13000.00000" pt_clust_7="13000.00000" pt_clust_8="13000.00000" pt_clust_9="29.47599" pt_clust_10="28.71210"></scales>
<clustering>
<clus scale="   28.712">  2 10  1 -1</clus>
<clus scale="   29.476">  1  9  2 -1</clus>
<clus scale="   80.575">  5  6 -1 -1</clus>
<clus scale="   90.247">  7  8 -1 -1</clus>
<clus scale="  122.112">  2  5  1 -1</clus>
<clus scale="   28.712">  2  5  1 -1</clus>
</clustering>
</event>
<event>
10    2  0.3984345E-006  0.1409883E+03  0.7546771E-02  0.1214441E+00
         21   -1    0    0  501  502  0.00000000000E+00  0.00000000000E+00  0.23364994238E+03  0.23364994238E+03  0.00000000000E+00 0. -1.
          2   -1    0    0  503    0 -0.00000000000E+00 -0.00000000000E+00 -0.55357354554E+03  0.55357354554E+03  0.00000000000E+00 0. -1.
         23    2    1    2    0    0 -0.91033714712E+02 -0.43049997036E+01 -0.31596221369E+03  0.34424505943E+03  0.10181782864E+03 0.  0.
         23    2    1    2    0    0  0.80393114564E+02  0.93397311146E+02 -0.11959128106E+03  0.19468180534E+03  0.91721427304E+02 0.  0.
        -13    1    3    3    0    0 -0.11220020251E+03 -0.85666082437E+01 -0.23656190331E+03  0.26196145961E+03  0.00000000000E+00 0. -1.
         13    1    3    3    0    0  0.21166487795E+02  0.42616085400E+01 -0.79400310374E+02  0.82283599827E+02  0.00000000000E+00 0.  1.
        -13    1    4    4    0    0  0.70728052423E+02  0.21755155540E+02 -0.30720713288E+02  0.80121822353E+02  0.00000000000E+00 0.  1.
         13    1    4    4    0    0  0.96650621406E+01  0.71642155605E+02 -0.88870567776E+02  0.11455998299E+03  0.00000000000E+00 0. -1.
         21    1    1    2  503  502 -0.43189000861E+01 -0.20068616685E+02 -0.57639620092E+02  0.61186012110E+02  0.00000000000E+00 0.  1.
          2    1    1    2  501    0  0.14959500234E+02 -0.69023694757E+02  0.17326951168E+03  0.18711061104E+03  0.00000000000E+00 0. -1.
<scales pt_clust_5="13000.00000" pt_clust_6="13000.00000" pt_clust_7="13000.00000" pt_clust_8="13000.00000" pt_clust_9="20.52808" pt_clust_10="70.88814"></scales>
<clustering>
<clus scale="   20.528">  2  9  1 -1</clus>
<clus scale="   70.888">  1 10  2 -1</clus>
<clus scale="   91.721">  7  8 -1 -1</clus>
<clus scale="  101.818">  5  6 -1 -1</clus>
<clus scale="  133.879">  1  7  2 -1</clus>
<clus scale="   70.888">  1  5  2 -1</clus>
</clustering>
</event>
<event>
10    2  0.3984345E-006  0.1274013E+03  0.7546771E-02  0.1231734E+00
         21   -1    0    0  503  502  0.00000000000E+00  0.00000000000E+00  0.85547395811E+02  0.85547395811E+02  0.00000000000E+00 0.  1.
         -1   -1    0    0    0  501 -0.00000000000E+00 -0.00000000000E+00 -0.53492983684E+03  0.53492983684E+03  0.00000000000E+00 0.  1.
         23    2    1    2    0    0 -0.42815161972E+02 -0.94011779295E+02 -0.21451459753E+03  0.25525162136E+03  0.92008287178E+02 0.  0.
         23    2    1    2    0    0  0.53516506970E+02  0.54307398119E+02 -0.15926363982E+03  0.19848857095E+03  0.90661435132E+02 0.  0.
        -11    1    3    3    0    0 -0.59673090976E+02 -0.62178214630E+02 -0.19735632090E+03  0.21535209671E+03  0.00000000000E+00 0.  1.
         11    1    3    3    0    0  0.16857929005E+02 -0.31833564665E+02 -0.17158276637E+02  0.39899524643E+02  0.00000000000E+00 0. -1.
        -13    1    4    4    0    0  0.44596809537E+02 -0.15295322094E+02 -0.50821302164E+02  0.69322630161E+02  0.00000000000E+00 0. -1.
         13    1    4    4    0    0  0.89196974329E+01  0.69602720214E+02 -0.10844233766E+03  0.12916594079E+03  0.00000000000E+00 0.  1.
         21    1    1    2  503  501 -0.22239981694E+02  0.22694996209E+02 -0.11661354270E+03  0.12086520583E+03  0.00000000000E+00 0.  1.
         -1    1    1    2    0  502  0.11538636696E+02  0.17009384967E+02  0.41009339030E+02  0.45871834511E+02  0.00000000000E+00 0.  1.
<scales pt_clust_5="13000.00000" pt_clust_6="13000.00000" pt_clust_7="13000.00000" pt_clust_8="13000.00000" pt_clust_9="31.99724" pt_clust_10="20.55382"></scales>
<clustering>
<clus scale="   20.554">  1 10  2 -1</clus>
<clus scale="   31.997">  2  9  1 -1</clus>
<clus scale="   90.661">  7  8 -1 -1</clus>
<clus scale="   92.008">  5  6 -1 -1</clus>
<clus scale="  126.432">  1  7  2 -1</clus>
<clus scale="   20.554">  1  5  2 -1</clus>
</clustering>
</event>
<event>
10    2  0.3984345E-006  0.2239475E+03  0.7546771E-02  0.1148848E+00
          4   -1    0    0  503    0 -0.00000000000E+00  0.00000000000E+00  0.12753280271E+03  0.12753280271E+03  0.00000000000E+00 0. -1.
         21   -1    0    0  501  502  0.00000000000E+00 -0.00000000000E+00 -0.16934927655E+04  0.16934927655E+04  0.00000000000E+00 0.  1.
         23    2    1    2    0    0  0.96057754017E+02  0.64247685810E+02  0.29616013402E+02  0.14789487191E+03  0.87412399849E+02 0.  0.
         23    2    1    2    0    0 -0.10569081684E+03 -0.23544012156E+03 -0.12572250404E+04  0.12865905181E+04  0.89987552810E+02 0.  0.
        -11    1    3    3    0    0  0.80485782348E+02  0.77409220022E+02 -0.32572580949E+00  0.11167029418E+03  0.00000000000E+00 0. -1.
         11    1    3    3    0    0  0.15571971669E+02 -0.13161534212E+02  0.29941739212E+02  0.36224577727E+02  0.00000000000E+00 0.  1.
        -13    1    4    4    0    0 -0.98775764135E+02 -0.14813261396E+03 -0.97378876136E+03  0.98993155049E+03  0.00000000000E+00 0.  1.
         13    1    4    4    0    0 -0.69150527060E+01 -0.87307507594E+02 -0.28343627900E+03  0.29665896766E+03  0.00000000000E+00 0. -1.
         21    1    1    2  503  502 -0.40561892793E+00  0.15026336179E+03 -0.22316556751E+03  0.26903924053E+03  0.00000000000E+00 0. -1.
          4    1    1    2  501    0  0.10038681752E+02  0.20929073960E+02 -0.11518536836E+03  0.11750093766E+03  0.00000000000E+00 0. -1.
<scales pt_clust_5="13000.00000" pt_clust_6="13000.00000" pt_clust_7="13000.00000" pt_clust_8="13000.00000" pt_clust_9="205.07247" pt_clust_10="23.21209"></scales>
<clustering>
<clus scale="   23.212">  2 10  1 -1</clus>
<clus scale="   87.412">  5  6 -1 -1</clus>
<clus scale="   89.988">  7  8 -1 -1</clus>
<clus scale="  145.498">  1  5  2 -1</clus>
<clus scale="  205.072">  1  9  2 -1</clus>
<clus scale="   23.212">  2  5  1 -1</clus>
</clustering>
</event>
<event>
10    2  0.3984345E-006  0.1041932E+03  0.7546771E-02  0.1273964E+00
         21   -1    0    0  503  502  0.00000000000E+00  0.00000000000E+00  0.25166063975E+03  0.25166063975E+03  0.00000000000E+00 0.  1.
         -2   -1    0    0    0  501 -0.00000000000E+00 -0.00000000000E+00 -0.20088833302E+03  0.20088833302E+03  0.00000000000E+00 0.  1.
         23    2    1    2    0    0 -0.33982446913E+01 -0.16251249926E+02 -0.11909575040E+02  0.10014017598E+03  0.98033492629E+02 0.  0.
         23    2    1    2    0    0 -0.21240404141E+02  0.17589468111E+02 -0.14714624576E+02  0.10717859143E+03  0.10251919883E+03 0.  0.
        -11    1    4    4    0    0 -0.48911063602E+02 -0.14717306245E+02  0.17313679283E+02  0.53931945414E+02  0.00000000000E+00 0.  1.
         11    1    4    4    0    0  0.27670659461E+02  0.32306774355E+02 -0.32028303859E+02  0.53246646019E+02  0.00000000000E+00 0. -1.
        -13    1    3    3    0    0 -0.19303724227E+02  0.28576011336E+02 -0.33343203764E+02  0.47968650494E+02  0.00000000000E+00 0.  1.
         13    1    3    3    0    0  0.15905479536E+02 -0.44827261262E+02  0.21433628724E+02  0.52171525489E+02  0.00000000000E+00 0. -1.
         21    1    1    2  503  501 -0.12083829425E+02  0.17681712234E+02 -0.79831479048E+02  0.82654261403E+02  0.00000000000E+00 0.  1.
         -2    1    1    2    0  502  0.36722478257E+02 -0.19019930419E+02  0.15722798539E+03  0.16257594395E+03  0.00000000000E+00 0.  1.
<scales pt_clust_5="13000.00000" pt_clust_6="13000.00000" pt_clust_7="13000.00000" pt_clust_8="13000.00000" pt_clust_9="21.41639" pt_clust_10="40.93483"></scales>
<clustering>
<clus scale="   21.416">  2  9  1 -1</clus>
<clus scale="   40.935">  1 10  2 -1</clus>
<clus scale="   98.033">  7  8 -1 -1</clus>
<clus scale="   99.783">  2  7  1 -1</clus>
<clus scale="  102.519">  5  6 -1 -1</clus>
<clus scale="   40.935">  1  5  2 -1</clus>
</clustering>
</event>
<event>
10    2  0.3984345E-006  0.1062188E+03  0.7546771E-02  0.1268048E+00
         21   -1    0    0  501  502  0.00000000000E+00  0.00000000000E+00  0.16592775620E+03  0.16592775620E+03  0.00000000000E+00 0.  1.
          2   -1    0    0  503    0 -0.00000000000E+00 -0.00000000000E+00 -0.23432140645E+03  0.23432140645E+03  0.00000000000E+00 0. -1.
         23    2    1    2    0    0  0.15105667981E+02  0.55833178517E+02 -0.10590481813E+03  0.15095826153E+03  0.90703038496E+02 0.  0.
         23    2    1    2    0    0  0.10314006357E+02 -0.39340439759E+02  0.83732654278E+02  0.13049085769E+03  0.91447567601E+02 0.  0.
        -11    1    4    4    0    0 -0.37268799373E+02 -0.35995783791E+02  0.36632195213E+02  0.63455319584E+02  0.00000000000E+00 0.  1.
         11    1    4    4    0    0  0.47582805730E+02 -0.33446559679E+01  0.47100459066E+02  0.67035538104E+02  0.00000000000E+00 0. -1.
        -13    1    3    3    0    0 -0.51574332146E+01  0.76828743581E+02 -0.65332818233E+02  0.10098332583E+03  0.00000000000E+00 0. -1.
         13    1    3    3    0    0  0.20263101196E+02 -0.20995565064E+02 -0.40571999897E+02  0.49974935698E+02  0.00000000000E+00 0.  1.
         21    1    1    2  503  502 -0.36206580749E+02  0.33868700031E+02  0.28057249558E-01  0.49578282731E+02  0.00000000000E+00 0. -1.
          2    1    1    2  501    0  0.10786906411E+02 -0.50361438790E+02 -0.46249543653E+02  0.69221760704E+02  0.00000000000E+00 0. -1.
<scales pt_clust_5="13000.00000" pt_clust_6="13000.00000" pt_clust_7="13000.00000" pt_clust_8="13000.00000" pt_clust_9="49.57827" pt_clust_10="48.24617"></scales>
<clustering>
<clus scale="   49.578">  1  9  2 -1</clus>
<clus scale="   48.246">  1 10  2 -1</clus>
<clus scale="   90.703">  7  8 -1 -1</clus>
<clus scale="   91.448">  5  6 -1 -1</clus>
<clus scale="  105.579">  2  7  1 -1</clus>
<clus scale="   49.578">  1  5  2 -1</clus>
</clustering>
</event>
<event>
10    2  0.3984345E-006  0.1723742E+03  0.7546771E-02  0.1175823E+00
          1   -1    0    0  503    0 -0.00000000000E+00  0.00000000000E+00  0.12271454846E+03  0.12271454846E+03  0.00000000000E+00 0. -1.
         21   -1    0    0  501  502  0.00000000000E+00 -0.00000000000E+00 -0.45571691420E+03  0.45571691420E+03  0.00000000000E+00 0.  1.
         23    2    1    2    0    0 -0.10826782354E+03 -0.13986123828E+03 -0.10408568800E+03  0.22483790626E+03  0.91843160095E+02 0.  0.
         23    2    1    2    0    0  0.76073992969E+02  0.92371700118E+02 -0.12899020067E+03  0.19703423236E+03  0.88680513428E+02 0.  0.
        -11    1    4    4    0    0  0.73720171764E+02  0.20256513471E+02 -0.72971885459E+02  0.10568768202E+03  0.00000000000E+00 0.  1.
         11    1    4    4    0    0  0.23538212052E+01  0.72115186647E+02 -0.56018315216E+02  0.91346550340E+02  0.00000000000E+00 0. -1.
        -13    1    3    3    0    0  0.32306721546E+01 -0.21782701409E+02 -0.48365770633E+02  0.53142930782E+02  0.00000000000E+00 0.  1.
         13    1    3    3    0    0 -0.11149849569E+03 -0.11807853688E+03 -0.55719917366E+02  0.17169497548E+03  0.00000000000E+00 0. -1.
         21    1    1    2  503  502  0.76777787800E+01  0.32569956544E+02  0.16030074189E+02  0.37104091887E+02  0.00000000000E+00 0. -1.
          1    1    1    2  501    0  0.24516051789E+02  0.14919581623E+02 -0.11595655125E+03  0.11945523215E+03  0.00000000000E+00 0. -1.
<scales pt_clust_5="13000.00000" pt_clust_6="13000.00000" pt_clust_7="13000.00000" pt_clust_8="13000.00000" pt_clust_9="34.09667" pt_clust_10="28.69897"></scales>
<clustering>
<clus scale="   28.699">  2 10  1 -1</clus>
<clus scale="   34.097">  1  9  2 -1</clus>
<clus scale="   88.681">  5  6 -1 -1</clus>
<clus scale="   91.843">  7  8 -1 -1</clus>
<clus scale="  170.710">  2  5  1 -1</clus>
<clus scale="   28.699">  2  5  1 -1</clus>
</clustering>
</event>
<event>
10    2  0.3984345E-006  0.1007842E+03  0.7546771E-02  0.1278925E+00
          1   -1    0    0  503    0 -0.00000000000E+00  0.00000000000E+00  0.17617915637E+03  0.17617915637E+03  0.00000000000E+00 0. -1.
         21   -1    0    0  501  502  0.00000000000E+00 -0.00000000000E+00 -0.26369196994E+03  0.26369196994E+03  0.00000000000E+00 0. -1.
         23    2    1    2    0    0  0.17159537545E+02 -0.33011231064E+02  0.11636122596E+03  0.15481360573E+03  0.95095354815E+02 0.  0.
         23    2    1    2    0    0 -0.49532690360E+02 -0.20456633541E+02 -0.86234200189E+02  0.13873609635E+03  0.94548431385E+02 0.  0.
        -11    1    3    3    0    0  0.10228551146E+02  0.33517821421E+02  0.35687627684E+02  0.50016741008E+02  0.00000000000E+00 0.  1.
         11    1    3    3    0    0  0.69309863990E+01 -0.66529052485E+02  0.80673598274E+02  0.10479686472E+03  0.00000000000E+00 0. -1.
        -13    1    4    4    0    0  0.24108881623E+02  0.43246102746E+01 -0.43853274108E+02  0.50229971901E+02  0.00000000000E+00 0.  1.
         13    1    4    4    0    0 -0.73641571983E+02 -0.24781243815E+02 -0.42380926081E+02  0.88506124447E+02  0.00000000000E+00 0. -1.
         21    1    1    2  503  502 -0.12230907447E+02  0.19589405797E+02 -0.10384460263E+02  0.25321471747E+02  0.00000000000E+00 0.  1.
          1    1    1    2  501    0  0.44604060262E+02  0.33878458807E+02 -0.10725537907E+03  0.12099995249E+03  0.00000000000E+00 0. -1.
<scales pt_clust_5="13000.00000" pt_clust_6="13000.00000" pt_clust_7="13000.00000" pt_clust_8="13000.00000" pt_clust_9="23.09415" pt_clust_10="57.98171"></scales>
<clustering>
<clus scale="   23.094">  2  9  1 -1</clus>
<clus scale="   57.982">  2 10  1 -1</clus>
<clus scale="   94.548">  7  8 -1 -1</clus>
<clus scale="   95.095">  5  6 -1 -1</clus>
<clus scale="  100.268">  2  7  1 -1</clus>
<clus scale="   23.094">  2  5  1 -1</clus>
</clustering>
</event>
<event>
10    2  0.3984345E-006  0.1972878E+03  0.7546771E-02  0.1152516E+00
         21   -1    0    0  503  502  0.00000000000E+00  0.00000000000E+00  0.12647351730E+04  0.12647351730E+04  0.00000000000E+00 0.  1.
         -3   -1    0    0    0  501 -0.00000000000E+00 -0.00000000000E+00 -0.12765745038E+03  0.12765745038E+03  0.00000000000E+00 0.  1.
         23    2    1    2    0    0  0.65701231637E+02  0.10544962411E+03  0.25083042465E+03  0.29486225959E+03  0.92690750017E+02 0.  0.
         23    2    1    2    0    0 -0.18075101861E+03 -0.21053649824E+03  0.69560405069E+03  0.75405663778E+03  0.87976529917E+02 0.  0.
        -13    1    3    3    0    0  0.15005291052E+02  0.82463764030E+02  0.20915927124E+03  0.22532871961E+03  0.00000000000E+00 0.  1.
         13    1    3    3    0    0  0.50695940585E+02  0.22985860077E+02  0.41671153410E+02  0.69533539978E+02  0.00000000000E+00 0. -1.
        -13    1    4    4    0    0 -0.20021665358E+02 -0.48265442472E+02  0.65213146557E+02  0.83565390591E+02  0.00000000000E+00 0. -1.
         13    1    4    4    0    0 -0.16072935325E+03 -0.16227105577E+03  0.63039090413E+03  0.67049124718E+03  0.00000000000E+00 0.  1.
         21    1    1    2  503  501  0.21867755217E+02  0.19124514488E+02 -0.57723561809E+02  0.64621632295E+02  0.00000000000E+00 0.  1.
         -3    1    1    2    0  502  0.93182031756E+02  0.85962359647E+02  0.24836680908E+03  0.27885209372E+03  0.00000000000E+00 0.  1.
<scales pt_clust_5="13000.00000" pt_clust_6="13000.00000" pt_clust_7="13000.00000" pt_clust_8="13000.00000" pt_clust_9="29.05074" pt_clust_10="133.43513"></scales>
<clustering>
<clus scale="   29.051">  2  9  1 -1</clus>
<clus scale="   87.977">  7  8 -1 -1</clus>
<clus scale="   92.691">  5  6 -1 -1</clus>
<clus scale="  133.435">  1 10  2 -1</clus>
<clus scale="  195.117">  1  7  2 -1</clus>
<clus scale="  133.435">  1  5  2 -1</clus>
</clustering>
</event>
<event>
10    2  0.3984345E-006  0.1535479E+03  0.7546771E-02  0.1220682E+00
         21   -1    0    0  501  502  0.00000000000E+00  0.00000000000E+00  0.76669607537E+02  0.76669607537E+02  0.00000000000E+00 0. -1.
          1   -1    0    0  503    0 -0.00000000000E+00 -0.00000000000E+00 -0.62588540590E+03  0.62588540590E+03  0.00000000000E+00 0. -1.
         23    2    1    2    0    0 -0.24788877372E+01  0.19614684524E+01 -0.19128006556E+03  0.21141095220E+03  0.89980747875E+02 0.  0.
         23    2    1    2    0    0  0.21726381851E+02  0.12476821638E+03 -0.20876425342E+03  0.26076225936E+03  0.91516659200E+02 0.  0.
        -11    1    4    4    0    0 -0.33565386235E+02  0.39862177031E+02 -0.48707678074E+02  0.71330682137E+02  0.00000000000E+00 0.  1.
         11    1    4    4    0    0  0.55291768086E+02  0.84906039347E+02 -0.16005657535E+03  0.18943157722E+03  0.00000000000E+00 0. -1.
        -13    1    3    3    0    0 -0.40224152667E+02  0.14910021422E+02 -0.14005314799E+03  0.14647585282E+03  0.00000000000E+00 0.  1.
         13    1    3    3    0    0  0.37745264929E+02 -0.12948552970E+02 -0.51226917568E+02  0.64935099385E+02  0.00000000000E+00 0. -1.
         21    1    1    2  503  502 -0.26927632262E+02 -0.40543669919E+01 -0.89877216860E+02  0.93911923532E+02  0.00000000000E+00 0. -1.
          1    1    1    2  501    0  0.76801381480E+01 -0.12267531784E+03 -0.59294262528E+02  0.13646987835E+03  0.00000000000E+00 0. -1.
<scales pt_clust_5="13000.00000" pt_clust_6="13000.00000" pt_clust_7="13000.00000" pt_clust_8="13000.00000" pt_clust_9="27.23115" pt_clust_10="123.29500"></scales>
<clustering>
<clus scale="   27.231">  2  9  1 -1</clus>
<clus scale="   89.981">  7  8 -1 -1</clus>
<clus scale="   90.864">  2  7  1 -1</clus>
<clus scale="   91.517">  5  6 -1 -1</clus>
<clus scale="  123.295">  1 10  2 -1</clus>
<clus scale="  123.295">  1  5  2 -1</clus>
</clustering>
</event>
<event>
10    2  0.3984345E-006  0.1034024E+03  0.7546771E-02  0.1273496E+00
         21   -1    0    0  501  502  0.00000000000E+00  0.00000000000E+00  0.15341353743E+03  0.15341353743E+03  0.00000000000E+00 0.  1.
          1   -1    0    0  503    0 -0.00000000000E+00 -0.00000000000E+00 -0.27758484397E+03  0.27758484397E+03  0.00000000000E+00 0. -1.
         23    2    1    2    0    0 -0.26045373770E+02 -0.44556826805E+02 -0.51920364086E+01  0.10463473365E+03  0.90872426695E+02 0.  0.
         23    2    1    2    0    0 -0.15935297089E+01  0.49078457128E+02 -0.24946010803E+02  0.10588233069E+03  0.90429697587E+02 0.  0.
        -11    1    4    4    0    0 -0.36052097698E+02  0.13200722684E+02 -0.38450480747E+02  0.54336472995E+02  0.00000000000E+00 0.  1.
         11    1    4    4    0    0  0.34458567989E+02  0.35877734444E+02  0.13504469944E+02  0.51545857692E+02  0.00000000000E+00 0. -1.
        -11    1    3    3    0    0 -0.43088517109E+02  0.12568632706E+02 -0.28709493249E+01  0.44975917831E+02  0.00000000000E+00 0.  1.
         11    1    3    3    0    0  0.17043143339E+02 -0.57125459511E+02 -0.23210870836E+01  0.59658815815E+02  0.00000000000E+00 0. -1.
         21    1    1    2  503  502  0.32348111498E+02  0.21037724214E+02 -0.15207090487E+03  0.15689023637E+03  0.00000000000E+00 0. -1.
          1    1    1    2  501    0 -0.47092080186E+01 -0.25559354537E+02  0.58037645545E+02  0.63591080702E+02  0.00000000000E+00 0. -1.
<scales pt_clust_5="13000.00000" pt_clust_6="13000.00000" pt_clust_7="13000.00000" pt_clust_8="13000.00000" pt_clust_9="38.12519" pt_clust_10="25.98956"></scales>
<clustering>
<clus scale="   25.990">  1 10  2 -1</clus>
<clus scale="   38.125">  2  9  1 -1</clus>
<clus scale="   90.430">  5  6 -1 -1</clus>
<clus scale="   90.872">  7  8 -1 -1</clus>
<clus scale="  103.013">  1  5  2 -1</clus>
<clus scale="   25.990">  1  5  2 -1</clus>
</clustering>
</event>
<event>
10    2  0.3984345E-006  0.1012285E+03  0.7546771E-02  0.1278057E+00
         -1   -1    0    0    0  501 -0.00000000000E+00  0.00000000000E+00  0.76647669804E+02  0.76647669804E+02  0.00000000000E+00 0.  1.
         21   -1    0    0  503  502  0.00000000000E+00 -0.00000000000E+00 -0.22265972674E+03  0.22265972674E+03  0.00000000000E+00 0.  1.
         23    2    1    2    0    0  0.21945263171E+02 -0.50808287649E+02 -0.48763612814E+02  0.11837527978E+03  0.92583693262E+02 0.  0.
         23    2    1    2    0    0  0.33294947106E+01  0.28598638785E+02 -0.58290831079E+02  0.11257294133E+03  0.91901460579E+02 0.  0.
        -11    1    4    4    0    0  0.33093024431E+02  0.40598233259E+02 -0.81001684293E+01  0.52999788097E+02  0.00000000000E+00 0. -1.
         11    1    4    4    0    0 -0.29763529720E+02 -0.11999594474E+02 -0.50190662650E+02  0.59573153234E+02  0.00000000000E+00 0.  1.
        -13    1    3    3    0    0  0.44964252551E+02  0.70992707909E+01 -0.21932184867E+02  0.50529242882E+02  0.00000000000E+00 0. -1.
         13    1    3    3    0    0 -0.23018989380E+02 -0.57907558440E+02 -0.26831427948E+02  0.67846036894E+02  0.00000000000E+00 0.  1.
         21    1    1    2  503  501 -0.19708469503E+02 -0.66122653026E+01 -0.16017473474E+01  0.20849734222E+02  0.00000000000E+00 0. -1.
         -1    1    1    2    0  502 -0.55662883790E+01  0.28821914167E+02 -0.37355865693E+02  0.47509441212E+02  0.00000000000E+00 0.  1.
<scales pt_clust_5="13000.00000" pt_clust_6="13000.00000" pt_clust_7="13000.00000" pt_clust_8="13000.00000" pt_clust_9="20.78812" pt_clust_10="29.18756"></scales>
<clustering>
<clus scale="   20.788">  1  9  2 -1</clus>
<clus scale="   29.188">  2 10  1 -1</clus>
<clus scale="   91.901">  5  6 -1 -1</clus>
<clus scale="   92.584">  7  8 -1 -1</clus>
<clus scale="  100.605">  2  5  1 -1</clus>
<clus scale="   29.188">  2  5  1 -1</clus>
</clustering>
</event>
<event>
10    2  0.3984345E-006  0.1271942E+03  0.7546771E-02  0.1232242E+00
          1   -1    0    0  503    0 -0.00000000000E+00  0.00000000000E+00  0.24976496610E+03  0.24976496610E+03  0.00000000000E+00 0. -1.
         21   -1    0    0  501  502  0.00000000000E+00 -0.00000000000E+00 -0.21748826939E+03  0.21748826939E+03  0.00000000000E+00 0. -1.
         23    2    1    2    0    0  0.42484796118E+02  0.90256554241E+02  0.33041349351E+02  0.13705537023E+03  0.87984318240E+02 0.  0.
         23    2    1    2    0    0 -0.41403814530E+02 -0.76563215967E+02  0.32671800631E+02  0.12944144634E+03  0.90063530782E+02 0.  0.
        -11    1    4    4    0    0 -0.61697954359E+02 -0.19774884979E+02  0.20138556805E+02  0.67847218942E+02  0.00000000000E+00 0.  1.
         11    1    4    4    0    0  0.20294139829E+02 -0.56788330988E+02  0.12533243826E+02  0.61594227397E+02  0.00000000000E+00 0. -1.
        -13    1    3    3    0    0  0.40545079438E+02  0.58387492878E+02 -0.21144454857E+02  0.74162596788E+02  0.00000000000E+00 0.  1.
         13    1    3    3    0    0  0.19397166798E+01  0.31869061364E+02  0.54185804208E+02  0.62892773438E+02  0.00000000000E+00 0. -1.
         21    1    1    2  503  502  0.13937491935E+02 -0.64369398107E+02  0.62773191944E+02  0.90984321292E+02  0.00000000000E+00 0. -1.
          1    1    1    2  501    0 -0.15018473523E+02  0.50676059833E+02 -0.96209645213E+02  0.10977209763E+03  0.00000000000E+00 0. -1.
<scales pt_clust_5="13000.00000" pt_clust_6="13000.00000" pt_clust_7="13000.00000" pt_clust_8="13000.00000" pt_clust_9="59.36980" pt_clust_10="52.85468"></scales>
<clustering>
<clus scale="   52.855">  2 10  1 -1</clus>
<clus scale="   59.370">  1  9  2 -1</clus>
<clus scale="   87.984">  7  8 -1 -1</clus>
<clus scale="   90.064">  5  6 -1 -1</clus>
<clus scale="  125.730">  1  7  2 -1</clus>
<clus scale="   52.855">  2  5  1 -1</clus>
</clustering>
</event>
<event>
10    2  0.3984345E-006  0.9940253E+02  0.7546771E-02  0.1282456E+00
          1   -1    0    0  503    0 -0.00000000000E+00  0.00000000000E+00  0.28815664230E+03  0.28815664230E+03  0.00000000000E+00 0. -1.
         21   -1    0    0  501  502  0.00000000000E+00 -0.00000000000E+00 -0.14812464365E+03  0.14812464365E+03  0.00000000000E+00 0. -1.
         23    2    1    2    0    0 -0.64520450049E+01 -0.26786519937E+02  0.15549421339E+03  0.18244746867E+03  0.91375499397E+02 0.  0.
         23    2    1    2    0    0 -0.14394633630E+02  0.74222593003E+02  0.51153583176E+02  0.12787218487E+03  0.89545562721E+02 0.  0.
        -11    1    3    3    0    0  0.33143874399E+02  0.39282188216E+01  0.10933570481E+03  0.11431641903E+03  0.00000000000E+00 0.  1.
         11    1    3    3    0    0 -0.39595919404E+02 -0.30714738758E+02  0.46158508580E+02  0.68131049638E+02  0.00000000000E+00 0. -1.
        -13    1    4    4    0    0  0.33429177040E+02  0.34087929418E+02  0.44183035179E+02  0.65051036942E+02  0.00000000000E+00 0.  1.
         13    1    4    4    0    0 -0.47823810669E+02  0.40134663585E+02  0.69705479971E+01  0.62821147931E+02  0.00000000000E+00 0. -1.
         21    1    1    2  503  502  0.37171070705E+01  0.23470079011E+02  0.43882335956E+01  0.24164397113E+02  0.00000000000E+00 0.  1.
          1    1    1    2  501    0  0.17129571564E+02 -0.70906152077E+02 -0.71004031507E+02  0.10179723530E+03  0.00000000000E+00 0. -1.
<scales pt_clust_5="13000.00000" pt_clust_6="13000.00000" pt_clust_7="13000.00000" pt_clust_8="13000.00000" pt_clust_9="23.76261" pt_clust_10="59.50630"></scales>
<clustering>
<clus scale="   23.763">  2  9  1 -1</clus>
<clus scale="   59.506">  2 10  1 -1</clus>
<clus scale="   89.546">  7  8 -1 -1</clus>
<clus scale="   91.375">  5  6 -1 -1</clus>
<clus scale="   97.723">  2  7  1 -1</clus>
<clus scale="   23.763">  2  5  1 -1</clus>
</clustering>
</event>
<event>
10    2  0.3984345E-006  0.1850429E+03  0.7546771E-02  0.1163728E+00
         21   -1    0    0  501  502  0.00000000000E+00  0.00000000000E+00  0.50359667579E+03  0.50359667579E+03  0.00000000000E+00 0. -1.
          1   -1    0    0  503    0 -0.00000000000E+00 -0.00000000000E+00 -0.35576108329E+03  0.35576108329E+03  0.00000000000E+00 0. -1.
         23    2    1    2    0    0 -0.34232566541E+02 -0.17625753931E+03 -0.20881115584E+03  0.28977941474E+03  0.90174395634E+02 0.  0.
         23    2    1    2    0    0  0.67509549723E+02  0.97042475626E+02  0.15168647748E+02  0.15315283449E+03  0.96181710620E+02 0.  0.
        -11    1    4    4    0    0  0.71605747884E+02  0.26244117349E+02 -0.12015635678E+02  0.77204354322E+02  0.00000000000E+00 0. -1.
         11    1    4    4    0    0 -0.40961981617E+01  0.70798358277E+02  0.27184283426E+02  0.75948480166E+02  0.00000000000E+00 0.  1.
        -13    1    3    3    0    0 -0.59558983624E+02 -0.13579065806E+03 -0.12782105903E+03  0.19576669399E+03  0.00000000000E+00 0. -1.
         13    1    3    3    0    0  0.25326417083E+02 -0.40466881258E+02 -0.80990096816E+02  0.94012720752E+02  0.00000000000E+00 0.  1.
         21    1    1    2  503  502 -0.27964731302E+02  0.27617942915E+01 -0.27651565816E+02  0.39424139770E+02  0.00000000000E+00 0. -1.
          1    1    1    2  501    0 -0.53122518791E+01  0.76453269397E+02  0.36912966640E+03  0.37700137008E+03  0.00000000000E+00 0. -1.
<scales pt_clust_5="13000.00000" pt_clust_6="13000.00000" pt_clust_7="13000.00000" pt_clust_8="13000.00000" pt_clust_9="28.10078" pt_clust_10="76.69568"></scales>
<clustering>
<clus scale="   28.101">  2  9  1 -1</clus>
<clus scale="   76.696">  1 10  2 -1</clus>
<clus scale="   90.174">  7  8 -1 -1</clus>
<clus scale="   96.182">  5  6 -1 -1</clus>
<clus scale="  181.993">  2  7  1 -1</clus>
<clus scale="   76.696">  1  5  2 -1</clus>
</clustering>
</event>
<event>
10    2  0.3984345E-006  0.9861223E+02  0.7546771E-02  0.1283766E+00
         21   -1    0    0  503  502  0.00000000000E+00  0.00000000000E+00  0.88102317895E+03  0.88102317895E+03  0.00000000000E+00 0.  1.
         -2   -1    0    0    0  501 -0.00000000000E+00 -0.00000000000E+00 -0.42151988550E+02  0.42151988550E+02  0.00000000000E+00 0.  1.
         23    2    1    2    0    0 -0.16874787640E+02 -0.36845052725E+02  0.60435455908E+02  0.11611226269E+03  0.90483682771E+02 0.  0.
         23    2    1    2    0    0  0.21295131200E+02  0.26494438988E+02  0.40182540784E+03  0.41305609926E+03  0.89421724642E+02 0.  0.
        -11    1    4    4    0    0  0.39474090942E+02 -0.20519856134E+02  0.16250183312E+03  0.16848179165E+03  0.00000000000E+00 0. -1.
         11    1    4    4    0    0 -0.18178959743E+02  0.47014295122E+02  0.23932357472E+03  0.24457430760E+03  0.00000000000E+00 0.  1.
        -11    1    3    3    0    0 -0.36728894551E+02 -0.39339718210E+02  0.14660359518E+01  0.53840267321E+02  0.00000000000E+00 0. -1.
         11    1    3    3    0    0  0.19854106912E+02  0.24946654853E+01  0.58969419956E+02  0.62271995368E+02  0.00000000000E+00 0.  1.
         21    1    1    2  503  501  0.33564615901E+02  0.36069318995E+02  0.80625849419E+02  0.94488659679E+02  0.00000000000E+00 0.  1.
         -2    1    1    2    0  502 -0.37984959461E+02 -0.25718705258E+02  0.29598447723E+03  0.29951814587E+03  0.00000000000E+00 0.  1.
<scales pt_clust_5="13000.00000" pt_clust_6="13000.00000" pt_clust_7="13000.00000" pt_clust_8="13000.00000" pt_clust_9="42.58772" pt_clust_10="45.87275"></scales>
<clustering>
<clus scale="   45.873">  1 10  2 -1</clus>
<clus scale="   42.588">  1  9  2 -1</clus>
<clus scale="   89.422">  5  6 -1 -1</clus>
<clus scale="   90.484">  7  8 -1 -1</clus>
<clus scale="   97.639">  1  5  2 -1</clus>
<clus scale="   45.873">  1  5  2 -1</clus>
</clustering>
</event>
<event>
10    2  0.3984345E-006  0.1138443E+03  0.7546771E-02  0.1255322E+00
          2   -1    0    0  503    0 -0.00000000000E+00  0.00000000000E+00  0.61524583892E+03  0.61524583892E+03  0.00000000000E+00 0. -1.
         21   -1    0    0  501  502  0.00000000000E+00 -0.00000000000E+00 -0.90807552590E+02  0.90807552590E+02  0.00000000000E+00 0. -1.
         23    2    1    2    0    0 -0.63221325278E+02  0.48127434368E+02  0.30827250452E+03  0.33166756651E+03  0.93049727148E+02 0.  0.
         23    2    1    2    0    0  0.52778809707E+02 -0.68911694410E+02  0.75684796088E+02  0.14515911805E+03  0.88366038810E+02 0.  0.
        -11    1    3    3    0    0 -0.59693637491E+02 -0.10353793156E+02  0.19417497296E+03  0.20340710782E+03  0.00000000000E+00 0.  1.
         11    1    3    3    0    0 -0.35276877875E+01  0.58481227525E+02  0.11409753156E+03  0.12826045869E+03  0.00000000000E+00 0. -1.
        -13    1    4    4    0    0  0.76956709811E+02 -0.48582621135E+02  0.64903318120E+02  0.11178124603E+03  0.00000000000E+00 0. -1.
         13    1    4    4    0    0 -0.24177900104E+02 -0.20329073275E+02  0.10781477968E+02  0.33377872024E+02  0.00000000000E+00 0.  1.
         21    1    1    2  503  502  0.17071579016E+02 -0.25955814552E+02  0.17048393875E+03  0.17329142071E+03  0.00000000000E+00 0.  1.
          2    1    1    2  501    0 -0.66290634444E+01  0.46740074594E+02 -0.30002953034E+02  0.55935286233E+02  0.00000000000E+00 0. -1.
<scales pt_clust_5="13000.00000" pt_clust_6="13000.00000" pt_clust_7="13000.00000" pt_clust_8="13000.00000" pt_clust_9="31.06675" pt_clust_10="46.38777"></scales>
<clustering>
<clus scale="   31.067">  1  9  2 -1</clus>
<clus scale="   46.388">  2 10  1 -1</clus>
<clus scale="   88.366">  7  8 -1 -1</clus>
<clus scale="   93.050">  5  6 -1 -1</clus>
<clus scale="  110.049">  2  7  1 -1</clus>
<clus scale="   46.388">  2  5  1 -1</clus>
</clustering>
</event>
<event>
10    2  0.3984345E-006  0.1399752E+03  0.7546771E-02  0.1213479E+00
         21   -1    0    0  503  502  0.00000000000E+00  0.00000000000E+00  0.31209709984E+03  0.31209709984E+03  0.00000000000E+00 0.  1.
         -2   -1    0    0    0  501 -0.00000000000E+00 -0.00000000000E+00 -0.44816450195E+03  0.44816450195E+03  0.00000000000E+00 0.  1.
         23    2    1    2    0    0  0.56534197457E+02  0.87594562001E+02 -0.46626283476E+02  0.14615605007E+03  0.91206676775E+02 0.  0.
         23    2    1    2    0    0 -0.83649768284E+02 -0.11553654720E+03 -0.10941321124E+02  0.16994551119E+03  0.91737597480E+02 0.  0.
        -11    1    4    4    0    0 -0.25290431300E+02 -0.93827524999E+02 -0.34865079704E+02  0.10324138776E+03  0.00000000000E+00 0.  1.
         11    1    4    4    0    0 -0.58359336984E+02 -0.21709022203E+02  0.23923758580E+02  0.66704123432E+02  0.00000000000E+00 0. -1.
        -11    1    3    3    0    0 -0.29199690426E+01  0.72700954651E+02 -0.68325796051E+01  0.73079676863E+02  0.00000000000E+00 0.  1.
         11    1    3    3    0    0  0.59454166499E+02  0.14893607351E+02 -0.39793703871E+02  0.73076373212E+02  0.00000000000E+00 0. -1.
         21    1    1    2  503  501  0.23893490475E+02 -0.91531214706E+02 -0.23145928890E+03  0.25004452517E+03  0.00000000000E+00 0.  1.
         -2    1    1    2    0  502  0.32220803520E+01  0.11947319991E+03  0.15295949138E+03  0.19411551535E+03  0.00000000000E+00 0.  1.
<scales pt_clust_5="13000.00000" pt_clust_6="13000.00000" pt_clust_7="13000.00000" pt_clust_8="13000.00000" pt_clust_9="94.59843" pt_clust_10="110.53369"></scales>
<clustering>
<clus scale="   91.207">  7  8 -1 -1</clus>
<clus scale="   91.738">  5  6 -1 -1</clus>
<clus scale="   94.598">  2  9  1 -1</clus>
<clus scale="  110.534">  1 10  2 -1</clus>
<clus scale="  139.628">  2  7  1 -1</clus>
<clus scale="  110.534">  1  5  2 -1</clus>
</clustering>
</event>
<event>
10    2  0.3984345E-006  0.2853732E+03  0.7546771E-02  0.1120137E+00
          1   -1    0    0  503    0 -0.00000000000E+00  0.00000000000E+00  0.67125184312E+03  0.67125184312E+03  0.00000000000E+00 0. -1.
         21   -1    0    0  501  502  0.00000000000E+00 -0.00000000000E+00 -0.52332468152E+03  0.52332468152E+03  0.00000000000E+00 0. -1.
         23    2    1    2    0    0 -0.37890624793E+02  0.92357393804E+02  0.19380685579E+03  0.23698167823E+03  0.92917333315E+02 0.  0.
         23    2    1    2    0    0  0.29337427206E+03 -0.53227643965E+02  0.32375860539E+03  0.44942825844E+03  0.90909181786E+02 0.  0.
        -11    1    3    3    0    0 -0.25064047809E+02  0.11076069398E+03  0.15484710298E+03  0.19202542312E+03  0.00000000000E+00 0.  1.
         11    1    3    3    0    0 -0.12826576983E+02 -0.18403300180E+02  0.38959752811E+02  0.44956255113E+02  0.00000000000E+00 0. -1.
        -13    1    4    4    0    0  0.27114710731E+02  0.20583708513E+02  0.49872318628E+02  0.60383315241E+02  0.00000000000E+00 0. -1.
         13    1    4    4    0    0  0.26625956133E+03 -0.73811352478E+02  0.27388628676E+03  0.38904494320E+03  0.00000000000E+00 0.  1.
         21    1    1    2  503  502  0.68413022994E+01  0.24816041467E+02  0.21051745471E+02  0.33253801566E+02  0.00000000000E+00 0.  1.
          1    1    1    2  501    0 -0.26232494957E+03 -0.63945791306E+02 -0.39069004505E+03  0.47491278641E+03  0.00000000000E+00 0. -1.
<scales pt_clust_5="13000.00000" pt_clust_6="13000.00000" pt_clust_7="13000.00000" pt_clust_8="13000.00000" pt_clust_9="25.74178" pt_clust_10="270.50576"></scales>
<clustering>
<clus scale="   25.742">  1  9  2 -1</clus>
<clus scale="   90.909">  7  8 -1 -1</clus>
<clus scale="   92.917">  5  6 -1 -1</clus>
<clus scale="  141.537">  1  5  2 -1</clus>
<clus scale="  270.506">  2 10  1 -1</clus>
<clus scale="  270.506">  2  5  1 -1</clus>
</clustering>
</event>
<event>
10    2  0.3984345E-006  0.2802697E+03  0.7546771E-02  0.1095821E+00
          1   -1    0    0  503    0 -0.00000000000E+00  0.00000000000E+00  0.77417342670E+03  0.77417342670E+03  0.00000000000E+00 0. -1.
         21   -1    0    0  501  502  0.00000000000E+00 -0.00000000000E+00 -0.22453437838E+03  0.22453437838E+03  0.00000000000E+00 0.  1.
         23    2    1    2    0    0  0.22932785535E+03  0.72629037952E+02  0.30206793542E+03  0.39695549396E+03  0.91991217967E+02 0.  0.
         23    2    1    2    0    0 -0.29868667412E+03  0.34686663753E+02  0.17721069728E+03  0.35936483733E+03  0.85571964664E+02 0.  0.
        -13    1    3    3    0    0  0.12033602584E+03  0.68153149843E+01  0.20112247527E+03  0.23447272270E+03  0.00000000000E+00 0. -1.
         13    1    3    3    0    0  0.10899182950E+03  0.65813722967E+02  0.10094546015E+03  0.16248277126E+03  0.00000000000E+00 0.  1.
        -13    1    4    4    0    0 -0.70819229578E+02  0.45915849421E+02  0.51653754643E+02  0.98953215586E+02  0.00000000000E+00 0. -1.
         13    1    4    4    0    0 -0.22786744454E+03 -0.11229185668E+02  0.12555694264E+03  0.26041162174E+03  0.00000000000E+00 0.  1.
         21    1    1    2  503  502  0.38747669983E+02 -0.88282102668E+01  0.12109488306E+03  0.12744916606E+03  0.00000000000E+00 0.  1.
          1    1    1    2  501    0  0.30611148793E+02 -0.98487491437E+02 -0.50734467441E+02  0.11493830774E+03  0.00000000000E+00 0. -1.
<scales pt_clust_5="13000.00000" pt_clust_6="13000.00000" pt_clust_7="13000.00000" pt_clust_8="13000.00000" pt_clust_9="39.74065" pt_clust_10="104.13334"></scales>
<clustering>
<clus scale="   39.741">  1  9  2 -1</clus>
<clus scale="   85.572">  7  8 -1 -1</clus>
<clus scale="   91.991">  5  6 -1 -1</clus>
<clus scale="  104.133">  2 10  1 -1</clus>
<clus scale="  278.229">  2  7  1 -1</clus>
<clus scale="  104.133">  2  5  1 -1</clus>
</clustering>
</event>
<event>
10    2  0.3984345E-006  0.1001693E+03  0.7546771E-02  0.1281512E+00
         21   -1    0    0  501  502  0.00000000000E+00  0.00000000000E+00  0.16433824493E+03  0.16433824493E+03  0.00000000000E+00 0. -1.
          1   -1    0    0  503    0 -0.00000000000E+00 -0.00000000000E+00 -0.65027133397E+03  0.65027133397E+03  0.00000000000E+00 0. -1.
         23    2    1    2    0    0 -0.11179370231E+02 -0.62065178082E+00 -0.19518912010E+03  0.21598403148E+03  0.91787503091E+02 0.  0.
         23    2    1    2    0    0  0.60370947715E+02  0.40524858067E+02 -0.27145504733E+03  0.29464876800E+03  0.88561494532E+02 0.  0.
        -13    1    4    4    0    0  0.28765528296E+02 -0.21322838603E+02 -0.15475993056E+03  0.15884821426E+03  0.00000000000E+00 0.  1.
         13    1    4    4    0    0  0.31605419418E+02  0.61847696670E+02 -0.11669511676E+03  0.13580055374E+03  0.00000000000E+00 0. -1.
        -13    1    3    3    0    0  0.80312248934E+01 -0.29346386160E+02 -0.17778330854E+02  0.35238898988E+02  0.00000000000E+00 0.  1.
         13    1    3    3    0    0 -0.19210595125E+02  0.28725734379E+02 -0.17741078924E+03  0.18074513249E+03  0.00000000000E+00 0. -1.
         21    1    1    2  503  502 -0.21073137647E+02  0.14836855147E+02 -0.15385905478E+03  0.15600262221E+03  0.00000000000E+00 0.  1.
          1    1    1    2  501    0 -0.28118439837E+02 -0.54741061433E+02  0.13457013316E+03  0.14797415721E+03  0.00000000000E+00 0. -1.
<scales pt_clust_5="13000.00000" pt_clust_6="13000.00000" pt_clust_7="13000.00000" pt_clust_8="13000.00000" pt_clust_9="25.77226" pt_clust_10="61.49316"></scales>
<clustering>
<clus scale="   25.772">  2  9  1 -1</clus>
<clus scale="   61.493">  1 10  2 -1</clus>
<clus scale="   88.561">  5  6 -1 -1</clus>
<clus scale="   91.788">  7  8 -1 -1</clus>
<clus scale="   97.222">  1  5  2 -1</clus>
<clus scale="   61.493">  1  5  2 -1</clus>
</clustering>
</event>
<event>
10    2  0.3984345E-006  0.1064637E+03  0.7546771E-02  0.1274974E+00
         21   -1    0    0  501  502  0.00000000000E+00  0.00000000000E+00  0.26941430335E+03  0.26941430335E+03  0.00000000000E+00 0.  1.
          1   -1    0    0  503    0 -0.00000000000E+00 -0.00000000000E+00 -0.10523517737E+03  0.10523517737E+03  0.00000000000E+00 0. -1.
         23    2    1    2    0    0  0.28787289516E+02 -0.19966131541E+02  0.62304974726E+02  0.12777705767E+03  0.10591370141E+03 0.  0.
         23    2    1    2    0    0 -0.74420910601E+01 -0.15970656154E+02  0.11946066107E+03  0.15126264852E+03  0.91099356292E+02 0.  0.
        -11    1    3    3    0    0  0.56635247364E+02 -0.42311563057E+02  0.58704153499E+02  0.91891225100E+02  0.00000000000E+00 0.  1.
         11    1    3    3    0    0 -0.27847957848E+02  0.22345431516E+02  0.36008212275E+01  0.35885832573E+02  0.00000000000E+00 0. -1.
        -11    1    4    4    0    0 -0.25802836311E+02 -0.40856597822E+02  0.30653941229E+02  0.57225099914E+02  0.00000000000E+00 0. -1.
         11    1    4    4    0    0  0.18360745251E+02  0.24885941669E+02  0.88806719841E+02  0.94037548606E+02  0.00000000000E+00 0.  1.
         21    1    1    2  503  502 -0.42574808201E+02  0.38809023048E+02 -0.35513573663E+02  0.67675464369E+02  0.00000000000E+00 0. -1.
          1    1    1    2  501    0  0.21229609745E+02 -0.28722353535E+01  0.17927063851E+02  0.27934310161E+02  0.00000000000E+00 0. -1.
<scales pt_clust_5="13000.00000" pt_clust_6="13000.00000" pt_clust_7="13000.00000" pt_clust_8="13000.00000" pt_clust_9="56.46439" pt_clust_10="21.42303"></scales>
<clustering>
<clus scale="   21.423">  1 10  2 -1</clus>
<clus scale="   56.464">  2  9  1 -1</clus>
<clus scale="   91.099">  7  8 -1 -1</clus>
<clus scale="   91.738">  1  7  2 -1</clus>
<clus scale="  105.914">  5  6 -1 -1</clus>
<clus scale="   21.423">  1  5  2 -1</clus>
</clustering>
</event>
<event>
10    2  0.3984345E-006  0.1047001E+03  0.7546771E-02  0.1273481E+00
         21   -1    0    0  501  502  0.00000000000E+00  0.00000000000E+00  0.23697479562E+03  0.23697479562E+03  0.00000000000E+00 0.  1.
          1   -1    0    0  503    0 -0.00000000000E+00 -0.00000000000E+00 -0.22749914200E+03  0.22749914200E+03  0.00000000000E+00 0. -1.
         23    2    1    2    0    0 -0.26899915879E+02  0.52173541832E+02 -0.72432281332E+02  0.13359016715E+03  0.95677653814E+02 0.  0.
         23    2    1    2    0    0  0.50271116127E+02 -0.25177637401E+02  0.15332169160E+03  0.18631442595E+03  0.89690722264E+02 0.  0.
        -11    1    4    4    0    0  0.76056133915E+02 -0.12335344203E+02  0.11149373190E+03  0.13552692897E+03  0.00000000000E+00 0.  1.
         11    1    4    4    0    0 -0.25785017788E+02 -0.12842293198E+02  0.41827959699E+02  0.50787496980E+02  0.00000000000E+00 0. -1.
        -13    1    3    3    0    0 -0.58577919667E+01 -0.26638815198E+02 -0.33509711245E+02  0.43206954876E+02  0.00000000000E+00 0.  1.
         13    1    3    3    0    0 -0.21042123912E+02  0.78812357030E+02 -0.38922570086E+02  0.90383212277E+02  0.00000000000E+00 0. -1.
         21    1    1    2  503  502  0.32632855794E+02 -0.12147387142E+02 -0.78810492524E+02  0.86160060489E+02  0.00000000000E+00 0.  1.
          1    1    1    2  501    0 -0.56004056042E+02 -0.14848517290E+02  0.73967358834E+01  0.58409284027E+02  0.00000000000E+00 0. -1.
<scales pt_clust_5="13000.00000" pt_clust_6="13000.00000" pt_clust_7="13000.00000" pt_clust_8="13000.00000" pt_clust_9="34.82043" pt_clust_10="53.05655"></scales>
<clustering>
<clus scale="   34.820">  2  9  1 -1</clus>
<clus scale="   53.057">  1 10  2 -1</clus>
<clus scale="   89.691">  5  6 -1 -1</clus>
<clus scale="   95.678">  7  8 -1 -1</clus>
<clus scale="   99.259">  1  5  2 -1</clus>
<clus scale="   53.057">  1  5  2 -1</clus>
</clustering>
</event>
<event>
10    2  0.3984345E-006  0.9442491E+02  0.7546771E-02  0.1296666E+00
          2   -1    0    0  503    0 -0.00000000000E+00  0.00000000000E+00  0.55015708185E+03  0.55015708185E+03  0.00000000000E+00 0. -1.
         21   -1    0    0  501  502  0.00000000000E+00 -0.00000000000E+00 -0.36675225164E+02  0.36675225164E+02  0.00000000000E+00 0.  1.
         23    2    1    2    0    0  0.51066486150E+01  0.35861713724E+02  0.36090056297E+03  0.37413365995E+03  0.91731340283E+02 0.  0.
         23    2    1    2    0    0 -0.21452854275E+02 -0.23602392434E+02  0.68935904555E+02  0.11356882881E+03  0.84429983151E+02 0.  0.
        -13    1    3    3    0    0  0.14908315129E+02  0.65108932336E+02  0.27011922108E+03  0.27825496317E+03  0.00000000000E+00 0. -1.
         13    1    3    3    0    0 -0.98016665136E+01 -0.29247218612E+02  0.90781341884E+02  0.95878696785E+02  0.00000000000E+00 0.  1.
        -13    1    4    4    0    0 -0.50638389983E+02  0.30429833010E+01  0.38177126462E+02  0.63490150987E+02  0.00000000000E+00 0. -1.
         13    1    4    4    0    0  0.29185535708E+02 -0.26645375735E+02  0.30758778093E+02  0.50078677822E+02  0.00000000000E+00 0.  1.
         21    1    1    2  503  502 -0.84554995442E+01 -0.21184273921E+02  0.58128182127E+02  0.62443210131E+02  0.00000000000E+00 0.  1.
          2    1    1    2  501    0  0.24801705204E+02  0.89249526304E+01  0.25517207042E+02  0.36686608125E+02  0.00000000000E+00 0. -1.
<scales pt_clust_5="13000.00000" pt_clust_6="13000.00000" pt_clust_7="13000.00000" pt_clust_8="13000.00000" pt_clust_9="22.80940" pt_clust_10="25.42124"></scales>
<clustering>
<clus scale="   22.809">  1  9  2 -1</clus>
<clus scale="   25.421">  2 10  1 -1</clus>
<clus scale="   84.430">  7  8 -1 -1</clus>
<clus scale="   87.349">  2  7  1 -1</clus>
<clus scale="   91.731">  5  6 -1 -1</clus>
<clus scale="   25.421">  2  5  1 -1</clus>
</clustering>
</event>
<event>
10    2  0.3984345E-006  0.9719053E+02  0.7546771E-02  0.1288058E+00
         21   -1    0    0  501  502  0.00000000000E+00  0.00000000000E+00  0.11215864073E+03  0.11215864073E+03  0.00000000000E+00 0. -1.
          1   -1    0    0  503    0 -0.00000000000E+00 -0.00000000000E+00 -0.59506262538E+03  0.59506262538E+03  0.00000000000E+00 0. -1.
         23    2    1    2    0    0 -0.45863114720E+01  0.60800355809E+02 -0.16034377271E+03  0.19281716041E+03  0.88037573693E+02 0.  0.
         23    2    1    2    0    0  0.10490193024E+02 -0.20617864478E+02 -0.10180606357E+03  0.13874143246E+03  0.91375981618E+02 0.  0.
        -11    1    4    4    0    0 -0.21994444775E+02 -0.20959193189E+02 -0.10181886575E+03  0.10625499895E+03  0.00000000000E+00 0. -1.
         11    1    4    4    0    0  0.32484637799E+02  0.34132871109E+00  0.12802179024E-01  0.32486433509E+02  0.00000000000E+00 0.  1.
        -11    1    3    3    0    0 -0.31209169747E+02 -0.48642342380E+00 -0.92367098654E+02  0.97498357923E+02  0.00000000000E+00 0. -1.
         11    1    3    3    0    0  0.26622858275E+02  0.61286779233E+02 -0.67976674053E+02  0.95318802483E+02  0.00000000000E+00 0.  1.
         21    1    1    2  503  502  0.12196536402E+02 -0.61022113027E+02 -0.29236597757E+03  0.29891523651E+03  0.00000000000E+00 0.  1.
          1    1    1    2  501    0 -0.18100417954E+02  0.20839621696E+02  0.71611829206E+02  0.76747436731E+02  0.00000000000E+00 0. -1.
<scales pt_clust_5="13000.00000" pt_clust_6="13000.00000" pt_clust_7="13000.00000" pt_clust_8="13000.00000" pt_clust_9="60.17271" pt_clust_10="27.60281"></scales>
<clustering>
<clus scale="   27.603">  1 10  2 -1</clus>
<clus scale="   60.173">  2  9  1 -1</clus>
<clus scale="   88.038">  7  8 -1 -1</clus>
<clus scale="   91.376">  5  6 -1 -1</clus>
<clus scale="   94.059">  2  7  1 -1</clus>
<clus scale="   27.603">  1  5  2 -1</clus>
</clustering>
</event>
<event>
10    2  0.3984345E-006  0.1839920E+03  0.7546771E-02  0.1164584E+00
         21   -1    0    0  501  502  0.00000000000E+00  0.00000000000E+00  0.23752234103E+03  0.23752234103E+03  0.00000000000E+00 0. -1.
          1   -1    0    0  503    0 -0.00000000000E+00 -0.00000000000E+00 -0.91152380325E+03  0.91152380325E+03  0.00000000000E+00 0. -1.
         23    2    1    2    0    0 -0.23819615602E+03 -0.86289070892E+02 -0.63513300371E+03  0.69062229559E+03  0.96860777714E+02 0.  0.
         23    2    1    2    0    0  0.57951002734E+02  0.22478496467E+02  0.72489381288E+02  0.13262738734E+03  0.92041903234E+02 0.  0.
        -11    1    4    4    0    0  0.29322869616E+02  0.47620471574E+02  0.63305243840E+01  0.56281573667E+02  0.00000000000E+00 0. -1.
         11    1    4    4    0    0  0.28628133118E+02 -0.25141975107E+02  0.66158856904E+02  0.76345813670E+02  0.00000000000E+00 0.  1.
        -11    1    3    3    0    0 -0.11716650978E+03  0.35137425233E+01 -0.22552338712E+03  0.25416753439E+03  0.00000000000E+00 0.  1.
         11    1    3    3    0    0 -0.12102964624E+03 -0.89802813415E+02 -0.40960961659E+03  0.43645476119E+03  0.00000000000E+00 0. -1.
         21    1    1    2  503  502  0.72709467314E+02  0.43100168030E+02 -0.17838769415E+03  0.19739924150E+03  0.00000000000E+00 0. -1.
          1    1    1    2  501    0  0.10753568597E+03  0.20710406395E+02  0.67029854352E+02  0.12839721985E+03  0.00000000000E+00 0. -1.
<scales pt_clust_5="13000.00000" pt_clust_6="13000.00000" pt_clust_7="13000.00000" pt_clust_8="13000.00000" pt_clust_9="84.52391" pt_clust_10="112.89139"></scales>
<clustering>
<clus scale="   84.524">  2  9  1 -1</clus>
<clus scale="   92.042">  5  6 -1 -1</clus>
<clus scale="   96.861">  7  8 -1 -1</clus>
<clus scale="  112.891">  1 10  2 -1</clus>
<clus scale="  181.501">  1  5  2 -1</clus>
<clus scale="  112.891">  1  5  2 -1</clus>
</clustering>
</event>
<event>
10    2  0.3984345E-006  0.9349542E+02  0.7546771E-02  0.1297128E+00
         21   -1    0    0  501  502  0.00000000000E+00  0.00000000000E+00  0.10788201874E+03  0.10788201874E+03  0.00000000000E+00 0. -1.
          1   -1    0    0  503    0 -0.00000000000E+00 -0.00000000000E+00 -0.73273633999E+03  0.73273633999E+03  0.00000000000E+00 0. -1.
         23    2    1    2    0    0  0.18010583136E+02  0.21383719584E+02 -0.27535310901E+03  0.29197697184E+03  0.93003079933E+02 0.  0.
         23    2    1    2    0    0  0.10592164440E+02  0.47715083032E+02 -0.73015467611E+02  0.12484864236E+03  0.88696121067E+02 0.  0.
        -11    1    4    4    0    0 -0.32027284112E+02  0.81400667336E+00 -0.59640459924E+01  0.32588025087E+02  0.00000000000E+00 0. -1.
         11    1    4    4    0    0  0.42619448552E+02  0.46901076358E+02 -0.67051421619E+02  0.92260617273E+02  0.00000000000E+00 0.  1.
        -13    1    3    3    0    0  0.24450699234E+02 -0.21404343889E+02 -0.34998389892E+02  0.47758453968E+02  0.00000000000E+00 0.  1.
         13    1    3    3    0    0 -0.64401160982E+01  0.42788063473E+02 -0.24035471912E+03  0.24421851787E+03  0.00000000000E+00 0. -1.
         21    1    1    2  503  502 -0.40309503875E+02 -0.16116430136E+02 -0.33856833078E+03  0.34134016761E+03  0.00000000000E+00 0. -1.
          1    1    1    2  501    0  0.11706756299E+02 -0.52982372479E+02  0.62082586143E+02  0.82452576908E+02  0.00000000000E+00 0. -1.
<scales pt_clust_5="13000.00000" pt_clust_6="13000.00000" pt_clust_7="13000.00000" pt_clust_8="13000.00000" pt_clust_9="43.41193" pt_clust_10="54.45418"></scales>
<clustering>
<clus scale="   43.412">  2  9  1 -1</clus>
<clus scale="   54.454">  1 10  2 -1</clus>
<clus scale="   88.696">  5  6 -1 -1</clus>
<clus scale="   89.212">  1  5  2 -1</clus>
<clus scale="   93.003">  7  8 -1 -1</clus>
<clus scale="   54.454">  1  5  2 -1</clus>
</clustering>
</event>
<event>
10    2  0.3984345E-006  0.2099591E+03  0.7546771E-02  0.1141667E+00
          2   -1    0    0  503    0 -0.00000000000E+00  0.00000000000E+00  0.18617522402E+04  0.18617522402E+04  0.00000000000E+00 0. -1.
         21   -1    0    0  501  502  0.00000000000E+00 -0.00000000000E+00 -0.39688325562E+02  0.39688325562E+02  0.00000000000E+00 0. -1.
         23    2    1    2    0    0 -0.18334541539E+03 -0.35829121996E+02  0.78889614497E+03  0.81597378103E+03  0.92503061810E+02 0.  0.
         23    2    1    2    0    0  0.17506141368E+03  0.11242117577E+03  0.58739587641E+03  0.62986600065E+03  0.91718285125E+02 0.  0.
        -11    1    4    4    0    0  0.12060007931E+03  0.71187101077E+02  0.49825217656E+03  0.51755889900E+03  0.00000000000E+00 0. -1.
         11    1    4    4    0    0  0.54461334372E+02  0.41234074690E+02  0.89143699855E+02  0.11230710165E+03  0.00000000000E+00 0.  1.
        -11    1    3    3    0    0 -0.10812660408E+03  0.14277961754E+02  0.54648355837E+03  0.55726071301E+03  0.00000000000E+00 0. -1.
         11    1    3    3    0    0 -0.75218811312E+02 -0.50107083750E+02  0.24241258660E+03  0.25871306801E+03  0.00000000000E+00 0.  1.
         21    1    1    2  503  502  0.22604656123E+02 -0.87525426945E+01  0.95136289095E+02  0.98175816701E+02  0.00000000000E+00 0.  1.
          2    1    1    2  501    0 -0.14320654412E+02 -0.67839511076E+02  0.35063560411E+03  0.35742496734E+03  0.00000000000E+00 0. -1.
<scales pt_clust_5="13000.00000" pt_clust_6="13000.00000" pt_clust_7="13000.00000" pt_clust_8="13000.00000" pt_clust_9="24.24000" pt_clust_10="70.27983"></scales>
<clustering>
<clus scale="   24.240">  1  9  2 -1</clus>
<clus scale="   70.280">  2 10  1 -1</clus>
<clus scale="   91.718">  5  6 -1 -1</clus>
<clus scale="   92.503">  7  8 -1 -1</clus>
<clus scale="  209.614">  2  5  1 -1</clus>
<clus scale="   70.280">  2  5  1 -1</clus>
</clustering>
</event>
<event>
10    2  0.3984345E-006  0.9966360E+02  0.7546771E-02  0.1282233E+00
         21   -1    0    0  501  502  0.00000000000E+00  0.00000000000E+00  0.54846976642E+02  0.54846976642E+02  0.00000000000E+00 0.  1.
          1   -1    0    0  503    0 -0.00000000000E+00 -0.00000000000E+00 -0.80119054530E+03  0.80119054530E+03  0.00000000000E+00 0. -1.
         23    2    1    2    0    0 -0.14578644849E+02  0.18379310000E+02 -0.47441109546E+03  0.48389709246E+03  0.92413054702E+02 0.  0.
         23    2    1    2    0    0 -0.36600263208E+02 -0.34536185682E+02 -0.12235568341E+03  0.16277590073E+03  0.94830128170E+02 0.  0.
        -11    1    4    4    0    0 -0.32267867114E+02  0.28203793651E+02 -0.36140612741E+02  0.56060798368E+02  0.00000000000E+00 0. -1.
         11    1    4    4    0    0 -0.43323960943E+01 -0.62739979332E+02 -0.86215070667E+02  0.10671510236E+03  0.00000000000E+00 0.  1.
        -13    1    3    3    0    0 -0.46715046551E+02  0.34789187667E+02 -0.25751728831E+03  0.26402222810E+03  0.00000000000E+00 0. -1.
         13    1    3    3    0    0  0.32136401702E+02 -0.16409877667E+02 -0.21689380715E+03  0.21987486436E+03  0.00000000000E+00 0.  1.
         21    1    1    2  503  502  0.19421146817E+02  0.14350500670E+02 -0.16990644082E+03  0.17161385855E+03  0.00000000000E+00 0. -1.
          1    1    1    2  501    0  0.31757761240E+02  0.18063750115E+01  0.20329651027E+02  0.37750670200E+02  0.00000000000E+00 0. -1.
<scales pt_clust_5="13000.00000" pt_clust_6="13000.00000" pt_clust_7="13000.00000" pt_clust_8="13000.00000" pt_clust_9="24.14783" pt_clust_10="32.08878"></scales>
<clustering>
<clus scale="   24.148">  2  9  1 -1</clus>
<clus scale="   32.089">  1 10  2 -1</clus>
<clus scale="   92.413">  7  8 -1 -1</clus>
<clus scale="   94.830">  5  6 -1 -1</clus>
<clus scale="   97.367">  2  7  1 -1</clus>
<clus scale="   32.089">  1  5  2 -1</clus>
</clustering>
</event>
<event>
10    2  0.3984345E-006  0.1205263E+03  0.7546771E-02  0.1243314E+00
         21   -1    0    0  503  502  0.00000000000E+00  0.00000000000E+00  0.18984112779E+03  0.18984112779E+03  0.00000000000E+00 0.  1.
         -1   -1    0    0    0  501 -0.00000000000E+00 -0.00000000000E+00 -0.16914625578E+03  0.16914625578E+03  0.00000000000E+00 0.  1.
         23    2    1    2    0    0 -0.51499170886E+02  0.65912550551E+02 -0.42866445698E+02  0.13331071183E+03  0.94538800502E+02 0.  0.
         23    2    1    2    0    0  0.99862021461E+01 -0.69284158529E+02 -0.11710322689E+02  0.11555315127E+03  0.91188706837E+02 0.  0.
        -13    1    4    4    0    0  0.47473813311E+02 -0.40844807694E+02 -0.23757211125E+02  0.66981089468E+02  0.00000000000E+00 0. -1.
         13    1    4    4    0    0 -0.37487611165E+02 -0.28439350834E+02  0.12046888436E+02  0.48572061802E+02  0.00000000000E+00 0.  1.
        -13    1    3    3    0    0 -0.73784205279E+02  0.51381069844E+02 -0.91705677705E+01  0.90378219723E+02  0.00000000000E+00 0.  1.
         13    1    3    3    0    0  0.22285034393E+02  0.14531480707E+02 -0.33695877928E+02  0.42932492110E+02  0.00000000000E+00 0. -1.
         21    1    1    2  503  501  0.75527337637E+00 -0.28287730088E+02  0.32510229459E+02  0.43100825177E+02  0.00000000000E+00 0.  1.
         -1    1    1    2    0  502  0.40757695364E+02  0.31659338066E+02  0.42761410940E+02  0.67022695289E+02  0.00000000000E+00 0.  1.
<scales pt_clust_5="13000.00000" pt_clust_6="13000.00000" pt_clust_7="13000.00000" pt_clust_8="13000.00000" pt_clust_9="28.29781" pt_clust_10="46.29718"></scales>
<clustering>
<clus scale="   28.298">  1  9  2 -1</clus>
<clus scale="   46.297">  1 10  2 -1</clus>
<clus scale="   91.189">  5  6 -1 -1</clus>
<clus scale="   94.539">  7  8 -1 -1</clus>
<clus scale="  117.917">  1  5  2 -1</clus>
<clus scale="   28.298">  1  5  2 -1</clus>
</clustering>
</event>
<event>
10    2  0.3984345E-006  0.1662014E+03  0.7546771E-02  0.1183830E+00
         21   -1    0    0  501  502  0.00000000000E+00  0.00000000000E+00  0.26219109743E+03  0.26219109743E+03  0.00000000000E+00 0. -1.
          2   -1    0    0  503    0 -0.00000000000E+00 -0.00000000000E+00 -0.35192601292E+03  0.35192601292E+03  0.00000000000E+00 0. -1.
         23    2    1    2    0    0  0.11911813406E+02 -0.12858427908E+03 -0.25583855324E+03  0.30482295809E+03  0.10386463464E+03 0.  0.
         23    2    1    2    0    0  0.12245858550E+02  0.80637628729E+02  0.53393589653E+02  0.13405032114E+03  0.92012091391E+02 0.  0.
        -13    1    4    4    0    0 -0.35822601258E+02  0.60896834568E+02  0.35678733473E+02  0.79149575132E+02  0.00000000000E+00 0.  1.
         13    1    4    4    0    0  0.48068459808E+02  0.19740794161E+02  0.17714856179E+02  0.54900746004E+02  0.00000000000E+00 0. -1.
        -13    1    3    3    0    0 -0.38826465556E+02 -0.32562335695E+02 -0.45506368289E+02  0.68107486287E+02  0.00000000000E+00 0.  1.
         13    1    3    3    0    0  0.50738278962E+02 -0.96021943386E+02 -0.21033218495E+03  0.23671547180E+03  0.00000000000E+00 0. -1.
         21    1    1    2  503  502 -0.12030578460E+01 -0.24990246382E+02 -0.12931800789E+02  0.28163650936E+02  0.00000000000E+00 0. -1.
          2    1    1    2  501    0 -0.22954614109E+02  0.72936896734E+02  0.12564184888E+03  0.14708018019E+03  0.00000000000E+00 0. -1.
<scales pt_clust_5="13000.00000" pt_clust_6="13000.00000" pt_clust_7="13000.00000" pt_clust_8="13000.00000" pt_clust_9="25.01919" pt_clust_10="75.70487"></scales>
<clustering>
<clus scale="   25.019">  2  9  1 -1</clus>
<clus scale="   75.705">  1 10  2 -1</clus>
<clus scale="   92.012">  5  6 -1 -1</clus>
<clus scale="  103.865">  7  8 -1 -1</clus>
<clus scale="  159.064">  1  5  2 -1</clus>
<clus scale="   75.705">  1  5  2 -1</clus>
</clustering>
</event>
<event>
10    2  0.4372928E-006  0.2243391E+03  0.7546771E-02  0.1130745E+00
         21   -1    0    0  501  502  0.00000000000E+00  0.00000000000E+00  0.21010422415E+03  0.21010422415E+03  0.00000000000E+00 0. -1.
          2   -1    0    0  503    0 -0.00000000000E+00 -0.00000000000E+00 -0.51382454590E+03  0.51382454590E+03  0.00000000000E+00 0. -1.
         23    2    1    2    0    0  0.21300484573E+03 -0.74006654770E+02 -0.33344214380E+03  0.41255668284E+03  0.90395265587E+02 0.  0.
         23    2    1    2    0    0 -0.14946094908E+03  0.14860464410E+02  0.94099365611E+01  0.17594978430E+03  0.91161236203E+02 0.  0.
        -11    1    3    3    0    0  0.18242226216E+03 -0.85638501271E+02 -0.31775332338E+03  0.37626986213E+03  0.00000000000E+00 0. -1.
         11    1    3    3    0    0  0.30582583574E+02  0.11631846501E+02 -0.15688820424E+02  0.36286820712E+02  0.00000000000E+00 0.  1.
        -13    1    4    4    0    0 -0.41278319410E+02  0.45289099630E+02  0.16139775254E+02  0.63367929932E+02  0.00000000000E+00 0.  1.
         13    1    4    4    0    0 -0.10818262967E+03 -0.30428635220E+02 -0.67298386931E+01  0.11258185437E+03  0.00000000000E+00 0. -1.
         21    1    1    2  503  502  0.20027741812E+02  0.22374640356E+02 -0.19512178137E+02  0.35811451643E+02  0.00000000000E+00 0.  1.
          2    1    1    2  501    0 -0.83571638462E+02  0.36771550004E+02  0.39824063626E+02  0.99610851259E+02  0.00000000000E+00 0. -1.
<scales pt_clust_5="13000.00000" pt_clust_6="13000.00000" pt_clust_7="13000.00000" pt_clust_8="13000.00000" pt_clust_9="30.02890" pt_clust_10="90.74757"></scales>
<clustering>
<clus scale="   30.029">  2  9  1 -1</clus>
<clus scale="   90.395">  5  6 -1 -1</clus>
<clus scale="   90.748">  1 10  2 -1</clus>
<clus scale="   91.161">  7  8 -1 -1</clus>
<clus scale="  224.029">  2  5  1 -1</clus>
<clus scale="   90.748">  1  5  2 -1</clus>
</clustering>
</event>
<event>
10    2  0.3984345E-006  0.1873516E+03  0.7546771E-02  0.1160888E+00
          1   -1    0    0  503    0 -0.00000000000E+00  0.00000000000E+00  0.19381696644E+03  0.19381696644E+03  0.00000000000E+00 0. -1.
         21   -1    0    0  501  502  0.00000000000E+00 -0.00000000000E+00 -0.63755392342E+03  0.63755392342E+03  0.00000000000E+00 0.  1.
         23    2    1    2    0    0  0.10405637636E+03 -0.86947793002E+02  0.59591232542E+02  0.17357717160E+03  0.90500117871E+02 0.  0.
         23    2    1    2    0    0 -0.20960410415E+03  0.10899720889E+03 -0.43025144409E+03  0.49914702986E+03  0.90648663826E+02 0.  0.
        -11    1    3    3    0    0  0.92747148781E+02 -0.21107166450E+02  0.25005749368E+02  0.98350564737E+02  0.00000000000E+00 0. -1.
         11    1    3    3    0    0  0.11309227577E+02 -0.65840626553E+02  0.34585483174E+02  0.75226606860E+02  0.00000000000E+00 0.  1.
        -13    1    4    4    0    0 -0.13797995560E+03  0.11588985161E+03 -0.32580449346E+03  0.37231370350E+03  0.00000000000E+00 0.  1.
         13    1    4    4    0    0 -0.71624148558E+02 -0.68926427247E+01 -0.10444695062E+03  0.12683332636E+03  0.00000000000E+00 0. -1.
         21    1    1    2  503  502  0.29656395575E+02 -0.19605594588E+01  0.20795608763E+02  0.36273998066E+02  0.00000000000E+00 0. -1.
          1    1    1    2  501    0  0.75891332220E+02 -0.20088856427E+02 -0.93872354195E+02  0.12237269034E+03  0.00000000000E+00 0. -1.
<scales pt_clust_5="13000.00000" pt_clust_6="13000.00000" pt_clust_7="13000.00000" pt_clust_8="13000.00000" pt_clust_9="29.72113" pt_clust_10="81.02164"></scales>
<clustering>
<clus scale="   29.721">  1  9  2 -1</clus>
<clus scale="   81.022">  2 10  1 -1</clus>
<clus scale="   90.500">  5  6 -1 -1</clus>
<clus scale="   90.649">  7  8 -1 -1</clus>
<clus scale="  187.280">  1  5  2 -1</clus>
<clus scale="   81.022">  2  5  1 -1</clus>
</clustering>
</event>
<event>
10    2  0.3984345E-006  0.9424276E+02  0.7546771E-02  0.1294132E+00
         21   -1    0    0  501  502  0.00000000000E+00  0.00000000000E+00  0.17120938844E+03  0.17120938844E+03  0.00000000000E+00 0.  1.
          3   -1    0    0  503    0 -0.00000000000E+00 -0.00000000000E+00 -0.17861564406E+03  0.17861564406E+03  0.00000000000E+00 0. -1.
         23    2    1    2    0    0  0.18096215658E+02 -0.97706389301E+01 -0.62751271428E+02  0.11150272832E+03  0.89845411405E+02 0.  0.
         23    2    1    2    0    0 -0.51115383422E+00 -0.21684274025E+01  0.11382858149E+03  0.14640886327E+03  0.92052408573E+02 0.  0.
        -11    1    4    4    0    0  0.42504927211E+02 -0.11302650706E+02  0.78576270536E+02  0.90048037411E+02  0.00000000000E+00 0.  1.
         11    1    4    4    0    0 -0.43016081045E+02  0.91342233032E+01  0.35252310954E+02  0.56360825858E+02  0.00000000000E+00 0. -1.
        -11    1    3    3    0    0  0.47873073285E+02  0.21889309983E+01 -0.87918801359E+01  0.48722887035E+02  0.00000000000E+00 0. -1.
         11    1    3    3    0    0 -0.29776857628E+02 -0.11959569928E+02 -0.53959391292E+02  0.62779841284E+02  0.00000000000E+00 0.  1.
         21    1    1    2  503  502  0.77474772747E+01  0.19811062374E+02 -0.61632066197E+02  0.65199794326E+02  0.00000000000E+00 0.  1.
          3    1    1    2  501    0 -0.25332539098E+02 -0.78719960413E+01  0.31485005153E+01  0.26713646593E+02  0.00000000000E+00 0. -1.
<scales pt_clust_5="13000.00000" pt_clust_6="13000.00000" pt_clust_7="13000.00000" pt_clust_8="13000.00000" pt_clust_9="21.27208" pt_clust_10="25.22680"></scales>
<clustering>
<clus scale="   21.272">  2  9  1 -1</clus>
<clus scale="   25.227">  1 10  2 -1</clus>
<clus scale="   89.845">  7  8 -1 -1</clus>
<clus scale="   92.052">  5  6 -1 -1</clus>
<clus scale="   92.088">  2  7  1 -1</clus>
<clus scale="   25.227">  1  5  2 -1</clus>
</clustering>
</event>
<event>
10    2  0.3984345E-006  0.1031748E+03  0.7546771E-02  0.1274764E+00
          1   -1    0    0  503    0 -0.00000000000E+00  0.00000000000E+00  0.11201803007E+03  0.11201803007E+03  0.00000000000E+00 0. -1.
         21   -1    0    0  501  502  0.00000000000E+00 -0.00000000000E+00 -0.46037620868E+03  0.46037620868E+03  0.00000000000E+00 0.  1.
         23    2    1    2    0    0 -0.22715284166E+02  0.72639227014E+01 -0.73474072487E+02  0.11997287943E+03  0.91794900533E+02 0.  0.
         23    2    1    2    0    0  0.52291740338E+02 -0.38567022705E+02 -0.97117503014E+02  0.14994464518E+03  0.93966727501E+02 0.  0.
        -13    1    3    3    0    0  0.26825074430E+02 -0.14729370345E+02 -0.54574935004E+02  0.62569661175E+02  0.00000000000E+00 0.  1.
         13    1    3    3    0    0 -0.49540358595E+02  0.21993293046E+02 -0.18899137483E+02  0.57403218258E+02  0.00000000000E+00 0. -1.
        -13    1    4    4    0    0  0.32711786831E+02 -0.69653684938E+02 -0.58678955300E+02  0.96772499287E+02  0.00000000000E+00 0.  1.
         13    1    4    4    0    0  0.19579953507E+02  0.31086662233E+02 -0.38438547714E+02  0.53172145889E+02  0.00000000000E+00 0. -1.
         21    1    1    2  503  502  0.35942771328E+01  0.32483419720E+02  0.56822751418E+02  0.65550869281E+02  0.00000000000E+00 0.  1.
          1    1    1    2  501    0 -0.33170733305E+02 -0.11803197164E+01 -0.23458935453E+03  0.23692584485E+03  0.00000000000E+00 0. -1.
<scales pt_clust_5="13000.00000" pt_clust_6="13000.00000" pt_clust_7="13000.00000" pt_clust_8="13000.00000" pt_clust_9="32.68167" pt_clust_10="33.09097"></scales>
<clustering>
<clus scale="   32.682">  1  9  2 -1</clus>
<clus scale="   33.091">  2 10  1 -1</clus>
<clus scale="   91.795">  5  6 -1 -1</clus>
<clus scale="   93.967">  7  8 -1 -1</clus>
<clus scale="  101.201">  1  5  2 -1</clus>
<clus scale="   33.091">  2  5  1 -1</clus>
</clustering>
</event>
<event>
10    2  0.5556185E-006  0.9805468E+02  0.7546771E-02  0.1284592E+00
         -3   -1    0    0    0  501 -0.00000000000E+00  0.00000000000E+00  0.26474925010E+03  0.26474925010E+03  0.00000000000E+00 0.  1.
         21   -1    0    0  503  502  0.00000000000E+00 -0.00000000000E+00 -0.33312218163E+03  0.33312218163E+03  0.00000000000E+00 0.  1.
         23    2    1    2    0    0 -0.20701421421E+02  0.35182101700E+02  0.17027170164E+03  0.19709346331E+03  0.90482328505E+02 0.  0.
         23    2    1    2    0    0  0.39907725846E+02  0.18736611019E+02  0.15681506878E+02  0.10213498540E+03  0.90785232340E+02 0.  0.
        -11    1    3    3    0    0 -0.23563082954E+02  0.64838992565E+02  0.12749702280E+03  0.14496483939E+03  0.00000000000E+00 0.  1.
         11    1    3    3    0    0  0.28616615328E+01 -0.29656890865E+02  0.42774678836E+02  0.52128623922E+02  0.00000000000E+00 0. -1.
        -11    1    4    4    0    0  0.21883793695E+02 -0.35776804801E+02  0.15521111202E+02  0.44718956620E+02  0.00000000000E+00 0. -1.
         11    1    4    4    0    0  0.18023932151E+02  0.54513415820E+02  0.16039567552E+00  0.57416028784E+02  0.00000000000E+00 0.  1.
         21    1    1    2  503  501  0.56831092107E+01  0.21540611174E+02  0.86703014203E+01  0.23905434252E+02  0.00000000000E+00 0.  1.
         -3    1    1    2    0  502 -0.24889413635E+02 -0.75459323893E+02 -0.26299644147E+03  0.27473754876E+03  0.00000000000E+00 0.  1.
<scales pt_clust_5="13000.00000" pt_clust_6="13000.00000" pt_clust_7="13000.00000" pt_clust_8="13000.00000" pt_clust_9="22.27769" pt_clust_10="78.93272"></scales>
<clustering>
<clus scale="   22.278">  1  9  2 -1</clus>
<clus scale="   78.933">  2 10  1 -1</clus>
<clus scale="   90.482">  5  6 -1 -1</clus>
<clus scale="   90.785">  7  8 -1 -1</clus>
<clus scale="   97.774">  1  5  2 -1</clus>
<clus scale="   78.933">  2  5  1 -1</clus>
</clustering>
</event>
<event>
10    2  0.3984345E-006  0.1477929E+03  0.7546771E-02  0.1204259E+00
         -1   -1    0    0    0  501 -0.00000000000E+00  0.00000000000E+00  0.12540091068E+03  0.12540091068E+03  0.00000000000E+00 0.  1.
         21   -1    0    0  503  502  0.00000000000E+00 -0.00000000000E+00 -0.54788110218E+03  0.54788110218E+03  0.00000000000E+00 0.  1.
         23    2    1    2    0    0  0.50047981341E+02 -0.10701368140E+03 -0.51116695756E+02  0.16068275974E+03  0.96173303216E+02 0.  0.
         23    2    1    2    0    0  0.89850120912E+01  0.11788924061E+03 -0.61448817470E+02  0.16136354944E+03  0.91014473708E+02 0.  0.
        -13    1    4    4    0    0  0.47216601778E+02  0.73379471853E+02 -0.19987845315E+02  0.89517977709E+02  0.00000000000E+00 0.  1.
         13    1    4    4    0    0 -0.38231589687E+02  0.44509768760E+02 -0.41460972155E+02  0.71845571729E+02  0.00000000000E+00 0. -1.
        -13    1    3    3    0    0  0.75423477945E+02 -0.10026843580E+03 -0.47585987759E+02  0.13418974057E+03  0.00000000000E+00 0.  1.
         13    1    3    3    0    0 -0.25375496604E+02 -0.67452455989E+01 -0.35307079963E+01  0.26493019176E+02  0.00000000000E+00 0. -1.
         21    1    1    2  503  501 -0.26571280460E+02  0.20216391795E+02  0.44418015179E+01  0.33681820664E+02  0.00000000000E+00 0. -1.
         -1    1    1    2    0  502 -0.32461712972E+02 -0.31091951011E+02 -0.31435647980E+03  0.31755388302E+03  0.00000000000E+00 0.  1.
<scales pt_clust_5="13000.00000" pt_clust_6="13000.00000" pt_clust_7="13000.00000" pt_clust_8="13000.00000" pt_clust_9="33.38765" pt_clust_10="45.03065"></scales>
<clustering>
<clus scale="   33.388">  1  9  2 -1</clus>
<clus scale="   45.031">  2 10  1 -1</clus>
<clus scale="   91.014">  5  6 -1 -1</clus>
<clus scale="   96.173">  7  8 -1 -1</clus>
<clus scale="  144.489">  2  5  1 -1</clus>
<clus scale="   45.031">  2  5  1 -1</clus>
</clustering>
</event>
<event>
10    2  0.3984345E-006  0.1603317E+03  0.7546771E-02  0.1188365E+00
          1   -1    0    0  503    0 -0.00000000000E+00  0.00000000000E+00  0.23292597087E+03  0.23292597087E+03  0.00000000000E+00 0. -1.
         21   -1    0    0  501  502  0.00000000000E+00 -0.00000000000E+00 -0.19504730643E+03  0.19504730643E+03  0.00000000000E+00 0. -1.
         23    2    1    2    0    0 -0.32471393937E+02 -0.14257076327E+03  0.69422140867E+01  0.17291643281E+03  0.92038494328E+02 0.  0.
         23    2    1    2    0    0  0.86787177812E+02  0.94428236383E+02 -0.16922766187E+02  0.15861261433E+03  0.91776224327E+02 0.  0.
        -13    1    4    4    0    0  0.58676848207E+02 -0.51721005689E+00 -0.54870714715E+01  0.58935116655E+02  0.00000000000E+00 0.  1.
         13    1    4    4    0    0  0.28110329605E+02  0.94945446439E+02 -0.11435694715E+02  0.99677497680E+02  0.00000000000E+00 0. -1.
        -13    1    3    3    0    0  0.20863994531E+02 -0.27908590410E+02  0.28017963236E+02  0.44712436194E+02  0.00000000000E+00 0.  1.
         13    1    3    3    0    0 -0.53335388469E+02 -0.11466217286E+03 -0.21075749149E+02  0.12820399662E+03  0.00000000000E+00 0. -1.
         21    1    1    2  503  502 -0.32481188413E+02  0.41295584841E+02  0.51150041195E+02  0.73325845664E+02  0.00000000000E+00 0. -1.
          1    1    1    2  501    0 -0.21834595462E+02  0.68469420420E+01 -0.32908246566E+01  0.23118384486E+02  0.00000000000E+00 0. -1.
<scales pt_clust_5="13000.00000" pt_clust_6="13000.00000" pt_clust_7="13000.00000" pt_clust_8="13000.00000" pt_clust_9="53.69609" pt_clust_10="22.88297"></scales>
<clustering>
<clus scale="   22.883">  2 10  1 -1</clus>
<clus scale="   53.696">  1  9  2 -1</clus>
<clus scale="   91.776">  5  6 -1 -1</clus>
<clus scale="   92.038">  7  8 -1 -1</clus>
<clus scale="  160.181">  2  5  1 -1</clus>
<clus scale="   22.883">  2  5  1 -1</clus>
</clustering>
</event>
<event>
10    2  0.3984345E-006  0.1021322E+03  0.7546771E-02  0.1276159E+00
         21   -1    0    0  503  502  0.00000000000E+00  0.00000000000E+00  0.51698312405E+02  0.51698312405E+02  0.00000000000E+00 0. -1.
         -4   -1    0    0    0  501 -0.00000000000E+00 -0.00000000000E+00 -0.31089460255E+03  0.31089460255E+03  0.00000000000E+00 0.  1.
         23    2    1    2    0    0  0.26498629782E+02  0.29320631972E+02 -0.12622402452E+03  0.16124533826E+03  0.92226232197E+02 0.  0.
         23    2    1    2    0    0 -0.42929880886E+02 -0.26931111854E+02 -0.87445510405E+02  0.13723479637E+03  0.92835405881E+02 0.  0.
        -11    1    3    3    0    0 -0.54178200214E+01 -0.30874298390E+02 -0.30381196367E+02  0.43653088866E+02  0.00000000000E+00 0.  1.
         11    1    3    3    0    0  0.31916449804E+02  0.60194930362E+02 -0.95842828158E+02  0.11759224940E+03  0.00000000000E+00 0. -1.
        -13    1    4    4    0    0  0.16116063303E+02 -0.41479448973E+02 -0.30726993026E+02  0.54077909389E+02  0.00000000000E+00 0.  1.
         13    1    4    4    0    0 -0.59045944189E+02  0.14548337119E+02 -0.56718517378E+02  0.83156886977E+02  0.00000000000E+00 0. -1.
         21    1    1    2  503  501  0.59062877316E+01 -0.20144298789E+02 -0.35318982000E+02  0.41086585377E+02  0.00000000000E+00 0.  1.
         -4    1    1    2    0  502  0.10524963372E+02  0.17754778670E+02 -0.10207773211E+02  0.23026194943E+02  0.00000000000E+00 0.  1.
<scales pt_clust_5="13000.00000" pt_clust_6="13000.00000" pt_clust_7="13000.00000" pt_clust_8="13000.00000" pt_clust_9="20.11897" pt_clust_10="20.63994"></scales>
<clustering>
<clus scale="   20.640">  1 10  2 -1</clus>
<clus scale="   20.119">  2  9  1 -1</clus>
<clus scale="   92.226">  5  6 -1 -1</clus>
<clus scale="   92.835">  7  8 -1 -1</clus>
<clus scale="  101.579">  2  5  1 -1</clus>
<clus scale="   20.640">  1  5  2 -1</clus>
</clustering>
</event>
<event>
10    2  0.3984345E-006  0.2398235E+03  0.7546771E-02  0.1151098E+00
          1   -1    0    0  503    0 -0.00000000000E+00  0.00000000000E+00  0.48037686603E+03  0.48037686603E+03  0.00000000000E+00 0. -1.
         21   -1    0    0  501  502  0.00000000000E+00 -0.00000000000E+00 -0.71158392660E+03  0.71158392660E+03  0.00000000000E+00 0. -1.
         23    2    1    2    0    0  0.38166901890E+02 -0.55428933005E+02 -0.41599521972E+02  0.11802776457E+03  0.87583982367E+02 0.  0.
         23    2    1    2    0    0 -0.68950366542E+02 -0.14642690964E+03  0.31350370270E+03  0.36435723342E+03  0.90975980497E+02 0.  0.
        -11    1    3    3    0    0  0.27643466999E+02 -0.75051771233E+02 -0.49893007161E+02  0.94266864785E+02  0.00000000000E+00 0.  1.
         11    1    3    3    0    0  0.10523434891E+02  0.19622838228E+02  0.82934851888E+01  0.23760899785E+02  0.00000000000E+00 0. -1.
        -13    1    4    4    0    0 -0.91114130983E+02 -0.11627347173E+03  0.26059486810E+03  0.29955131509E+03  0.00000000000E+00 0. -1.
         13    1    4    4    0    0  0.22163764441E+02 -0.30153437904E+02  0.52908834603E+02  0.64805918330E+02  0.00000000000E+00 0.  1.
         21    1    1    2  503  502  0.20350548641E+02 -0.24310074415E+02  0.78925303001E+02  0.85054852900E+02  0.00000000000E+00 0. -1.
          1    1    1    2  501    0  0.10432916011E+02  0.22616591706E+03 -0.58203654430E+03  0.62452094174E+03  0.00000000000E+00 0. -1.
<scales pt_clust_5="13000.00000" pt_clust_6="13000.00000" pt_clust_7="13000.00000" pt_clust_8="13000.00000" pt_clust_9="31.70370" pt_clust_10="221.89788"></scales>
<clustering>
<clus scale="   31.704">  1  9  2 -1</clus>
<clus scale="   87.584">  5  6 -1 -1</clus>
<clus scale="   90.976">  7  8 -1 -1</clus>
<clus scale="  112.325">  1  5  2 -1</clus>
<clus scale="  221.898">  2 10  1 -1</clus>
<clus scale="  221.898">  2  5  1 -1</clus>
</clustering>
</event>
<event>
10    2  0.3984345E-006  0.9930588E+02  0.7546771E-02  0.1282157E+00
         21   -1    0    0  501  502  0.00000000000E+00  0.00000000000E+00  0.27337038093E+02  0.27337038093E+02  0.00000000000E+00 0. -1.
          1   -1    0    0  503    0 -0.00000000000E+00 -0.00000000000E+00 -0.82669172572E+03  0.82669172572E+03  0.00000000000E+00 0. -1.
         23    2    1    2    0    0  0.71820260152E+01  0.17266411597E+00 -0.22846351814E+03  0.24609254349E+03  0.91183055049E+02 0.  0.
         23    2    1    2    0    0 -0.59663354752E+02 -0.49580426070E+02 -0.29146686581E+03  0.31532826227E+03  0.91983936487E+02 0.  0.
        -13    1    3    3    0    0 -0.34673120280E+02  0.24002230803E+02 -0.12609760265E+03  0.13296216660E+03  0.00000000000E+00 0. -1.
         13    1    3    3    0    0  0.41855146295E+02 -0.23829566687E+02 -0.10236591549E+03  0.11313037689E+03  0.00000000000E+00 0.  1.
        -13    1    4    4    0    0 -0.45725974295E+02 -0.35258694145E+01 -0.24204487475E+03  0.24635141135E+03  0.00000000000E+00 0. -1.
         13    1    4    4    0    0 -0.13937380457E+02 -0.46054556656E+02 -0.49421991059E+02  0.68976850921E+02  0.00000000000E+00 0.  1.
         21    1    1    2  503  502 -0.28238597834E+01  0.20152437401E+02 -0.11287149605E+03  0.11469119206E+03  0.00000000000E+00 0. -1.
          1    1    1    2  501    0  0.55305188521E+02  0.29255324553E+02 -0.16655280763E+03  0.17791676599E+03  0.00000000000E+00 0. -1.
<scales pt_clust_5="13000.00000" pt_clust_6="13000.00000" pt_clust_7="13000.00000" pt_clust_8="13000.00000" pt_clust_9="20.34932" pt_clust_10="64.40591"></scales>
<clustering>
<clus scale="   20.349">  2  9  1 -1</clus>
<clus scale="   64.406">  1 10  2 -1</clus>
<clus scale="   91.183">  5  6 -1 -1</clus>
<clus scale="   91.984">  7  8 -1 -1</clus>
<clus scale="   98.565">  2  5  1 -1</clus>
<clus scale="   64.406">  1  5  2 -1</clus>
</clustering>
</event>
<event>
10    2  0.3984345E-006  0.1752373E+03  0.7546771E-02  0.1195552E+00
          1   -1    0    0  503    0 -0.00000000000E+00  0.00000000000E+00  0.31194710159E+03  0.31194710159E+03  0.00000000000E+00 0. -1.
         21   -1    0    0  501  502  0.00000000000E+00 -0.00000000000E+00 -0.34589806782E+03  0.34589806782E+03  0.00000000000E+00 0. -1.
         23    2    1    2    0    0  0.43608762242E+02  0.15017006636E+02  0.12354440329E+03  0.16011170281E+03  0.90803651686E+02 0.  0.
         23    2    1    2    0    0 -0.13390793890E+03 -0.85383498780E+02 -0.26080887363E+03  0.31876483094E+03  0.91477160618E+02 0.  0.
        -11    1    3    3    0    0  0.86895934204E+01  0.44834002960E+02  0.96653966577E+02  0.10689988826E+03  0.00000000000E+00 0. -1.
         11    1    3    3    0    0  0.34919168821E+02 -0.29816996324E+02  0.26890436716E+02  0.53211814550E+02  0.00000000000E+00 0.  1.
        -13    1    4    4    0    0 -0.52631800717E+02  0.13654344148E+02 -0.64688166621E+02  0.84505067668E+02  0.00000000000E+00 0.  1.
         13    1    4    4    0    0 -0.81276138185E+02 -0.99037842929E+02 -0.19612070701E+03  0.23425976327E+03  0.00000000000E+00 0. -1.
         21    1    1    2  503  502  0.16910064949E+02 -0.22263739727E+02  0.19949214638E+02  0.34345240833E+02  0.00000000000E+00 0. -1.
          1    1    1    2  501    0  0.73389111712E+02  0.92630231871E+02  0.83364289464E+02  0.14462339483E+03  0.00000000000E+00 0. -1.
<scales pt_clust_5="13000.00000" pt_clust_6="13000.00000" pt_clust_7="13000.00000" pt_clust_8="13000.00000" pt_clust_9="27.95755" pt_clust_10="149.46594"></scales>
<clustering>
<clus scale="   27.958">  1  9  2 -1</clus>
<clus scale="   90.804">  5  6 -1 -1</clus>
<clus scale="   91.477">  7  8 -1 -1</clus>
<clus scale="  104.728">  1  5  2 -1</clus>
<clus scale="  149.466">  2 10  1 -1</clus>
<clus scale="  149.466">  2  5  1 -1</clus>
</clustering>
</event>
<event>
10    2  0.3984345E-006  0.9865151E+02  0.7546771E-02  0.1285840E+00
          2   -1    0    0  503    0 -0.00000000000E+00  0.00000000000E+00  0.23572078066E+03  0.23572078066E+03  0.00000000000E+00 0. -1.
         21   -1    0    0  501  502  0.00000000000E+00 -0.00000000000E+00 -0.38549777231E+03  0.38549777231E+03  0.00000000000E+00 0. -1.
         23    2    1    2    0    0  0.59515017649E+02 -0.48205913743E+00  0.93965614104E+02  0.14574998644E+03  0.94187325082E+02 0.  0.
         23    2    1    2    0    0  0.17022576125E+02 -0.11872628003E+02 -0.28419089340E+02  0.95766912734E+02  0.89066994684E+02 0.  0.
        -13    1    3    3    0    0  0.11350879223E+02 -0.28715663532E+02  0.83396166484E+02  0.88928917543E+02  0.00000000000E+00 0. -1.
         13    1    3    3    0    0  0.48164138426E+02  0.28233604394E+02  0.10569447620E+02  0.56821068895E+02  0.00000000000E+00 0.  1.
        -13    1    4    4    0    0  0.21869358946E+02 -0.43274719113E+02 -0.39055503409E+02  0.62259959216E+02  0.00000000000E+00 0. -1.
         13    1    4    4    0    0 -0.48467828212E+01  0.31402091110E+02  0.10636414069E+02  0.33506953518E+02  0.00000000000E+00 0.  1.
         21    1    1    2  503  502 -0.17728554766E+02 -0.97051524189E+01  0.77564474035E+02  0.80154471303E+02  0.00000000000E+00 0. -1.
          2    1    1    2  501    0 -0.58809039008E+02  0.22059839559E+02 -0.29288799045E+03  0.29954718250E+03  0.00000000000E+00 0. -1.
<scales pt_clust_5="13000.00000" pt_clust_6="13000.00000" pt_clust_7="13000.00000" pt_clust_8="13000.00000" pt_clust_9="20.21118" pt_clust_10="63.09117"></scales>
<clustering>
<clus scale="   20.211">  1  9  2 -1</clus>
<clus scale="   63.091">  2 10  1 -1</clus>
<clus scale="   89.067">  7  8 -1 -1</clus>
<clus scale="   93.775">  2  7  1 -1</clus>
<clus scale="   94.187">  5  6 -1 -1</clus>
<clus scale="   63.091">  2  5  1 -1</clus>
</clustering>
</event>
<event>
10    2  0.3984345E-006  0.1044735E+03  0.7546771E-02  0.1272926E+00
          1   -1    0    0  503    0 -0.00000000000E+00  0.00000000000E+00  0.55064329271E+03  0.55064329271E+03  0.00000000000E+00 0. -1.
         21   -1    0    0  501  502  0.00000000000E+00 -0.00000000000E+00 -0.89554875953E+02  0.89554875953E+02  0.00000000000E+00 0. -1.
         23    2    1    2    0    0  0.41499032355E+02 -0.69976696267E+02  0.16851803669E+03  0.20961168951E+03  0.94444819786E+02 0.  0.
         23    2    1    2    0    0 -0.51461939224E+02 -0.24741791194E+02  0.84906554380E+02  0.13664325061E+03  0.90563610463E+02 0.  0.
        -13    1    4    4    0    0  0.22164730590E+02  0.40980535394E+01  0.29044434006E+01  0.22726748919E+02  0.00000000000E+00 0.  1.
         13    1    4    4    0    0 -0.73626669815E+02 -0.28839844734E+02  0.82002110979E+02  0.11391650169E+03  0.00000000000E+00 0. -1.
        -13    1    3    3    0    0  0.19287187764E+02 -0.60331452494E+01 -0.70839834008E+01  0.21414417439E+02  0.00000000000E+00 0.  1.
         13    1    3    3    0    0  0.22211844592E+02 -0.63943551018E+02  0.17560202009E+03  0.18819727207E+03  0.00000000000E+00 0. -1.
         21    1    1    2  503  502 -0.38252377945E+02  0.38019478266E+02  0.21261716441E+03  0.21935082345E+03  0.00000000000E+00 0. -1.
          1    1    1    2  501    0  0.48215284814E+02  0.56699009196E+02 -0.49533387164E+01  0.74592405096E+02  0.00000000000E+00 0. -1.
<scales pt_clust_5="13000.00000" pt_clust_6="13000.00000" pt_clust_7="13000.00000" pt_clust_8="13000.00000" pt_clust_9="53.93260" pt_clust_10="75.07171"></scales>
<clustering>
<clus scale="   53.933">  1  9  2 -1</clus>
<clus scale="   75.072">  2 10  1 -1</clus>
<clus scale="   90.564">  5  6 -1 -1</clus>
<clus scale="   94.445">  7  8 -1 -1</clus>
<clus scale="  100.978">  2  5  1 -1</clus>
<clus scale="   75.072">  2  5  1 -1</clus>
</clustering>
</event>
<event>
10    2  0.3984345E-006  0.1053172E+03  0.7546771E-02  0.1270539E+00
         21   -1    0    0  501  502  0.00000000000E+00  0.00000000000E+00  0.25439385926E+03  0.25439385926E+03  0.00000000000E+00 0. -1.
          4   -1    0    0  503    0 -0.00000000000E+00 -0.00000000000E+00 -0.20944732747E+03  0.20944732747E+03  0.00000000000E+00 0. -1.
         23    2    1    2    0    0  0.76522771374E+01 -0.65050294314E+02 -0.12064823547E+03  0.16767306952E+03  0.96271300938E+02 0.  0.
         23    2    1    2    0    0  0.17827630639E+02 -0.91992263018E+01  0.63675826973E+02  0.11526771401E+03  0.93965870263E+02 0.  0.
        -13    1    3    3    0    0  0.26854875337E+02  0.16679763196E+02 -0.24266813111E+02  0.39853193702E+02  0.00000000000E+00 0.  1.
         13    1    3    3    0    0 -0.19202598200E+02 -0.81730057509E+02 -0.96381422358E+02  0.12781987582E+03  0.00000000000E+00 0. -1.
        -13    1    4    4    0    0 -0.18146576733E+02  0.31505577464E+02  0.44936586078E+02  0.57803083194E+02  0.00000000000E+00 0.  1.
         13    1    4    4    0    0  0.35974207373E+02 -0.40704803766E+02  0.18739240895E+02  0.57464630818E+02  0.00000000000E+00 0. -1.
         21    1    1    2  503  502 -0.29513689702E+02  0.12538178186E+02 -0.24374137958E+02  0.40278559970E+02  0.00000000000E+00 0.  1.
          4    1    1    2  501    0  0.40337819249E+01  0.61711342429E+02  0.12629307825E+03  0.14062184323E+03  0.00000000000E+00 0. -1.
<scales pt_clust_5="13000.00000" pt_clust_6="13000.00000" pt_clust_7="13000.00000" pt_clust_8="13000.00000" pt_clust_9="32.06655" pt_clust_10="62.28328"></scales>
<clustering>
<clus scale="   32.067">  2  9  1 -1</clus>
<clus scale="   62.283">  1 10  2 -1</clus>
<clus scale="   93.966">  7  8 -1 -1</clus>
<clus scale="   96.271">  5  6 -1 -1</clus>
<clus scale="  103.214">  1  7  2 -1</clus>
<clus scale="   62.283">  1  5  2 -1</clus>
</clustering>
</event>
<event>
10    2  0.3984345E-006  0.1071669E+03  0.7546771E-02  0.1273492E+00
          1   -1    0    0  503    0 -0.00000000000E+00  0.00000000000E+00  0.26861613887E+03  0.26861613887E+03  0.00000000000E+00 0. -1.
         21   -1    0    0  501  502  0.00000000000E+00 -0.00000000000E+00 -0.12373883708E+03  0.12373883708E+03  0.00000000000E+00 0.  1.
         23    2    1    2    0    0 -0.30724694693E+02 -0.16340025255E+02  0.63600801288E+02  0.11671860978E+03  0.91472228870E+02 0.  0.
         23    2    1    2    0    0 -0.16427384808E+02  0.63843365323E+01 -0.20610407327E+02  0.10965259850E+03  0.10624633990E+03 0.  0.
        -11    1    4    4    0    0  0.15698888944E+02 -0.29299977567E+02 -0.44882227083E+02  0.55851214019E+02  0.00000000000E+00 0.  1.
         11    1    4    4    0    0 -0.32126273753E+02  0.35684314099E+02  0.24271819755E+02  0.53801384482E+02  0.00000000000E+00 0. -1.
        -13    1    3    3    0    0  0.26670161153E+02 -0.19212934174E+02  0.46152983005E+02  0.56661558184E+02  0.00000000000E+00 0.  1.
         13    1    3    3    0    0 -0.57394855846E+02  0.28729089188E+01  0.17447818282E+02  0.60057051593E+02  0.00000000000E+00 0. -1.
         21    1    1    2  503  502  0.17193690645E+02  0.13628307892E+02  0.12566131279E+03  0.12756221739E+03  0.00000000000E+00 0. -1.
          1    1    1    2  501    0  0.29958388856E+02 -0.36726191693E+01 -0.23774404960E+02  0.38421550276E+02  0.00000000000E+00 0. -1.
<scales pt_clust_5="13000.00000" pt_clust_6="13000.00000" pt_clust_7="13000.00000" pt_clust_8="13000.00000" pt_clust_9="21.93978" pt_clust_10="30.98775"></scales>
<clustering>
<clus scale="   21.940">  1  9  2 -1</clus>
<clus scale="   30.988">  2 10  1 -1</clus>
<clus scale="   91.472">  7  8 -1 -1</clus>
<clus scale="   92.540">  1  7  2 -1</clus>
<clus scale="  106.246">  5  6 -1 -1</clus>
<clus scale="   30.988">  2  5  1 -1</clus>
</clustering>
</event>
<event>
10    2  0.3984345E-006  0.2422998E+03  0.7546771E-02  0.1118302E+00
         21   -1    0    0  501  502  0.00000000000E+00  0.00000000000E+00  0.55341655340E+02  0.55341655340E+02  0.00000000000E+00 0. -1.
          1   -1    0    0  503    0 -0.00000000000E+00 -0.00000000000E+00 -0.18204730308E+04  0.18204730308E+04  0.00000000000E+00 0. -1.
         23    2    1    2    0    0  0.20549477531E+03 -0.17078744840E+03 -0.11012759117E+04  0.11370266908E+04  0.92868760272E+02 0.  0.
         23    2    1    2    0    0 -0.13601376625E+03  0.10473389918E+03 -0.39748512344E+03  0.44271270796E+03  0.92364409717E+02 0.  0.
        -11    1    3    3    0    0  0.60647224655E+02 -0.10981619325E+03 -0.46416172327E+03  0.48081575214E+03  0.00000000000E+00 0.  1.
         11    1    3    3    0    0  0.14484755065E+03 -0.60971255157E+02 -0.63711418845E+03  0.65621093865E+03  0.00000000000E+00 0. -1.
        -13    1    4    4    0    0 -0.10321002023E+03  0.99759178324E+02 -0.37776216570E+03  0.40411440926E+03  0.00000000000E+00 0.  1.
         13    1    4    4    0    0 -0.32803746015E+02  0.49747208584E+01 -0.19722957740E+02  0.38598298696E+02  0.00000000000E+00 0. -1.
         21    1    1    2  503  502  0.65438433238E+01  0.21213173738E+02 -0.14108625985E+03  0.14282210384E+03  0.00000000000E+00 0. -1.
          1    1    1    2  501    0 -0.76024852381E+02  0.44840375484E+02 -0.12528408041E+03  0.15325318351E+03  0.00000000000E+00 0. -1.
<scales pt_clust_5="13000.00000" pt_clust_6="13000.00000" pt_clust_7="13000.00000" pt_clust_8="13000.00000" pt_clust_9="22.19956" pt_clust_10="88.70806"></scales>
<clustering>
<clus scale="   22.200">  2  9  1 -1</clus>
<clus scale="   88.708">  1 10  2 -1</clus>
<clus scale="   92.364">  7  8 -1 -1</clus>
<clus scale="   92.869">  5  6 -1 -1</clus>
<clus scale="  242.107">  1  7  2 -1</clus>
<clus scale="   88.708">  1  5  2 -1</clus>
</clustering>
</event>
<event>
10    2  0.3984345E-006  0.1105234E+03  0.7546771E-02  0.1260948E+00
          4   -1    0    0  503    0 -0.00000000000E+00  0.00000000000E+00  0.53283891796E+03  0.53283891796E+03  0.00000000000E+00 0. -1.
         21   -1    0    0  501  502  0.00000000000E+00 -0.00000000000E+00 -0.41680662099E+02  0.41680662099E+02  0.00000000000E+00 0. -1.
         23    2    1    2    0    0  0.61407711161E+02  0.67754069816E+02  0.24430587945E+03  0.27642932794E+03  0.91467423966E+02 0.  0.
         23    2    1    2    0    0 -0.25898228176E+02 -0.27794259199E+02  0.14146639736E+03  0.17086181572E+03  0.87964648709E+02 0.  0.
        -11    1    3    3    0    0  0.45827515706E+02 -0.10291446434E+02  0.64420568009E+02  0.79725056589E+02  0.00000000000E+00 0.  1.
         11    1    3    3    0    0  0.15580195455E+02  0.78045516250E+02  0.17988531144E+03  0.19670427135E+03  0.00000000000E+00 0. -1.
        -13    1    4    4    0    0 -0.47955940483E+02 -0.33850664367E+02  0.51680976111E+02  0.78208458605E+02  0.00000000000E+00 0.  1.
         13    1    4    4    0    0  0.22057712307E+02  0.60564051683E+01  0.89785421254E+02  0.92653357119E+02  0.00000000000E+00 0. -1.
         21    1    1    2  503  502 -0.18139454509E+02 -0.24758577474E+02  0.98454697267E+02  0.10312785454E+03  0.00000000000E+00 0.  1.
          4    1    1    2  501    0 -0.17370028476E+02 -0.15201233143E+02  0.69312817797E+01  0.24100581849E+02  0.00000000000E+00 0. -1.
<scales pt_clust_5="13000.00000" pt_clust_6="13000.00000" pt_clust_7="13000.00000" pt_clust_8="13000.00000" pt_clust_9="32.28490" pt_clust_10="23.08236"></scales>
<clustering>
<clus scale="   23.082">  2 10  1 -1</clus>
<clus scale="   32.285">  1  9  2 -1</clus>
<clus scale="   87.965">  7  8 -1 -1</clus>
<clus scale="   91.467">  5  6 -1 -1</clus>
<clus scale="  107.643">  2  7  1 -1</clus>
<clus scale="   23.082">  2  5  1 -1</clus>
</clustering>
</event>
<event>
10    2  0.3984345E-006  0.9138459E+02  0.7546771E-02  0.1299850E+00
         -2   -1    0    0    0  501 -0.00000000000E+00  0.00000000000E+00  0.19767358478E+03  0.19767358478E+03  0.00000000000E+00 0.  1.
         21   -1    0    0  503  502  0.00000000000E+00 -0.00000000000E+00 -0.14752809211E+03  0.14752809211E+03  0.00000000000E+00 0.  1.
         23    2    1    2    0    0 -0.14770951175E+02 -0.92351927103E+01  0.82506109062E+02  0.12362801130E+03  0.90405516216E+02 0.  0.
         23    2    1    2    0    0 -0.28836266737E+02 -0.20750673794E+02  0.33826866791E+02  0.10332774970E+03  0.90940893991E+02 0.  0.
        -11    1    3    3    0    0 -0.34342168725E+02 -0.41762841937E+02  0.50203405829E+02  0.73782799325E+02  0.00000000000E+00 0.  1.
         11    1    3    3    0    0  0.19571217550E+02  0.32527649227E+02  0.32302703233E+02  0.49845211974E+02  0.00000000000E+00 0. -1.
        -11    1    4    4    0    0 -0.57424366472E+02 -0.23516932398E+01  0.38259986209E+02  0.69042848076E+02  0.00000000000E+00 0.  1.
         11    1    4    4    0    0  0.28588099735E+02 -0.18398980555E+02 -0.44331194189E+01  0.34284901628E+02  0.00000000000E+00 0. -1.
         21    1    1    2  503  501  0.27068254885E+02  0.28359273501E+01  0.14985751105E+02  0.31069368236E+02  0.00000000000E+00 0.  1.
         -2    1    1    2    0  502  0.16538963027E+02  0.27149939155E+02 -0.81173234292E+02  0.87176547647E+02  0.00000000000E+00 0.  1.
<scales pt_clust_5="13000.00000" pt_clust_6="13000.00000" pt_clust_7="13000.00000" pt_clust_8="13000.00000" pt_clust_9="27.21641" pt_clust_10="32.07664"></scales>
<clustering>
<clus scale="   27.216">  1  9  2 -1</clus>
<clus scale="   32.077">  2 10  1 -1</clus>
<clus scale="   90.406">  5  6 -1 -1</clus>
<clus scale="   90.852">  1  5  2 -1</clus>
<clus scale="   90.941">  7  8 -1 -1</clus>
<clus scale="   32.077">  2  5  1 -1</clus>
</clustering>
</event>
<event>
10    2  0.3984345E-006  0.9968390E+02  0.7546771E-02  0.1282245E+00
         21   -1    0    0  503  502  0.00000000000E+00  0.00000000000E+00  0.10887618951E+03  0.10887618951E+03  0.00000000000E+00 0. -1.
         -2   -1    0    0    0  501 -0.00000000000E+00 -0.00000000000E+00 -0.45552088057E+03  0.45552088057E+03  0.00000000000E+00 0.  1.
         23    2    1    2    0    0  0.82039343627E+01  0.72694885651E+01 -0.30254839093E+03  0.31524651012E+03  0.87890177416E+02 0.  0.
         23    2    1    2    0    0 -0.63068662587E+02 -0.62880931209E+01  0.16188500377E+02  0.11169775951E+03  0.90537978876E+02 0.  0.
        -11    1    3    3    0    0  0.12530608267E+02  0.42441087553E+02 -0.96364247875E+02  0.10603928670E+03  0.00000000000E+00 0.  1.
         11    1    3    3    0    0 -0.43266739040E+01 -0.35171598988E+02 -0.20618414306E+03  0.20920722342E+03  0.00000000000E+00 0. -1.
        -13    1    4    4    0    0 -0.23275760670E+02  0.41453875097E+02  0.13787107247E+02  0.49500193147E+02  0.00000000000E+00 0.  1.
         13    1    4    4    0    0 -0.39792901917E+02 -0.47741968218E+02  0.24013931304E+01  0.62197566361E+02  0.00000000000E+00 0. -1.
         21    1    1    2  503  501  0.34723499171E+02 -0.19600813033E+02 -0.89133510223E+02  0.97645767501E+02  0.00000000000E+00 0.  1.
         -2    1    1    2    0  502  0.20141229054E+02  0.18619417588E+02  0.28848709721E+02  0.39807032943E+02  0.00000000000E+00 0.  1.
<scales pt_clust_5="13000.00000" pt_clust_6="13000.00000" pt_clust_7="13000.00000" pt_clust_8="13000.00000" pt_clust_9="40.38008" pt_clust_10="27.42903"></scales>
<clustering>
<clus scale="   27.429">  1 10  2 -1</clus>
<clus scale="   40.380">  2  9  1 -1</clus>
<clus scale="   87.890">  5  6 -1 -1</clus>
<clus scale="   90.538">  7  8 -1 -1</clus>
<clus scale="   97.285">  2  5  1 -1</clus>
<clus scale="   27.429">  1  5  2 -1</clus>
</clustering>
</event>
<event>
10    2  0.3984345E-006  0.3027815E+03  0.7546771E-02  0.1083886E+00
         -1   -1    0    0    0  501 -0.00000000000E+00  0.00000000000E+00  0.54005295927E+03  0.54005295927E+03  0.00000000000E+00 0.  1.
         21   -1    0    0  503  502  0.00000000000E+00 -0.00000000000E+00 -0.40634420790E+03  0.40634420790E+03  0.00000000000E+00 0.  1.
         23    2    1    2    0    0 -0.20454861934E+03  0.18380240367E+03  0.67114751478E+02  0.29735892776E+03  0.91074040124E+02 0.  0.
         23    2    1    2    0    0  0.66204254682E+02 -0.33287279777E+03 -0.82658038375E+02  0.36117944811E+03  0.91820148093E+02 0.  0.
        -11    1    3    3    0    0 -0.16461279728E+03  0.16713835816E+03  0.86383847632E+02  0.24998954564E+03  0.00000000000E+00 0.  1.
         11    1    3    3    0    0 -0.39935822056E+02  0.16664045517E+02 -0.19269096154E+02  0.47369382125E+02  0.00000000000E+00 0. -1.
        -13    1    4    4    0    0  0.50411427643E+01 -0.16495578370E+03 -0.77680134318E+02  0.18240073180E+03  0.00000000000E+00 0.  1.
         13    1    4    4    0    0  0.61163111917E+02 -0.16791701408E+03 -0.49779040569E+01  0.17877871631E+03  0.00000000000E+00 0. -1.
         21    1    1    2  503  501  0.35069327959E+01  0.38733564356E+02  0.99249551943E+02  0.10659766014E+03  0.00000000000E+00 0.  1.
         -1    1    1    2    0  502  0.13483743186E+03  0.11033682974E+03  0.50002486328E+02  0.18126113116E+03  0.00000000000E+00 0.  1.
<scales pt_clust_5="13000.00000" pt_clust_6="13000.00000" pt_clust_7="13000.00000" pt_clust_8="13000.00000" pt_clust_9="38.89200" pt_clust_10="181.58309"></scales>
<clustering>
<clus scale="   38.892">  1  9  2 -1</clus>
<clus scale="   91.074">  5  6 -1 -1</clus>
<clus scale="   91.820">  7  8 -1 -1</clus>
<clus scale="  181.583">  2 10  1 -1</clus>
<clus scale="  302.556">  1  5  2 -1</clus>
<clus scale="  181.583">  2  5  1 -1</clus>
</clustering>
</event>
<event>
10    2  0.3984345E-006  0.2337543E+03  0.7546771E-02  0.1124632E+00
          3   -1    0    0  503    0 -0.00000000000E+00  0.00000000000E+00  0.26640127293E+03  0.26640127293E+03  0.00000000000E+00 0. -1.
         21   -1    0    0  501  502  0.00000000000E+00 -0.00000000000E+00 -0.74403832954E+03  0.74403832954E+03  0.00000000000E+00 0.  1.
         23    2    1    2    0    0 -0.17603774796E+03 -0.29500110386E+02 -0.30007119278E+02  0.20280996860E+03  0.91498147175E+02 0.  0.
         23    2    1    2    0    0  0.20298357827E+03  0.95700237631E+02 -0.42365586182E+03  0.48973259113E+03  0.99964258757E+02 0.  0.
        -11    1    3    3    0    0 -0.42566302755E+02 -0.37114286487E+02  0.20238218716E+02  0.59991215094E+02  0.00000000000E+00 0. -1.
         11    1    3    3    0    0 -0.13347144521E+03  0.76141761015E+01 -0.50245337994E+02  0.14281875351E+03  0.00000000000E+00 0.  1.
        -13    1    4    4    0    0  0.15570023433E+03  0.11559093704E+03 -0.32242919310E+03  0.37625046480E+03  0.00000000000E+00 0.  1.
         13    1    4    4    0    0  0.47283343942E+02 -0.19890699406E+02 -0.10122666871E+03  0.11348212633E+03  0.00000000000E+00 0. -1.
         21    1    1    2  503  502 -0.37798336026E+02 -0.44399979676E+02  0.14024408805E+03  0.15188310188E+03  0.00000000000E+00 0. -1.
          3    1    1    2  501    0  0.10852505713E+02 -0.21800147570E+02 -0.16421816357E+03  0.16601394086E+03  0.00000000000E+00 0. -1.
<scales pt_clust_5="13000.00000" pt_clust_6="13000.00000" pt_clust_7="13000.00000" pt_clust_8="13000.00000" pt_clust_9="58.40672" pt_clust_10="24.35207"></scales>
<clustering>
<clus scale="   24.352">  2 10  1 -1</clus>
<clus scale="   58.407">  1  9  2 -1</clus>
<clus scale="   91.498">  5  6 -1 -1</clus>
<clus scale="   99.964">  7  8 -1 -1</clus>
<clus scale="  230.261">  1  5  2 -1</clus>
<clus scale="   24.352">  2  5  1 -1</clus>
</clustering>
</event>
<event>
10    2  0.3984345E-006  0.2291762E+03  0.7546771E-02  0.1127817E+00
         21   -1    0    0  503  502  0.00000000000E+00  0.00000000000E+00  0.46278803302E+03  0.46278803302E+03  0.00000000000E+00 0. -1.
         -4   -1    0    0    0  501 -0.00000000000E+00 -0.00000000000E+00 -0.15489921367E+03  0.15489921367E+03  0.00000000000E+00 0.  1.
         23    2    1    2    0    0 -0.20380878621E+03  0.38281548050E+02  0.15304199902E+03  0.27362802281E+03  0.91907252969E+02 0.  0.
         23    2    1    2    0    0  0.20066965087E+03 -0.62549736621E+02  0.95423953161E+02  0.24538203397E+03  0.83221592303E+02 0.  0.
        -11    1    4    4    0    0  0.21352057006E+02 -0.35759884412E+02  0.34591802558E+02  0.54141227136E+02  0.00000000000E+00 0.  1.
         11    1    4    4    0    0  0.17931759387E+03 -0.26789852209E+02  0.60832150603E+02  0.19124080683E+03  0.00000000000E+00 0. -1.
        -11    1    3    3    0    0 -0.38396233307E+02  0.46911442823E+02  0.32605654477E+02  0.68833733763E+02  0.00000000000E+00 0.  1.
         11    1    3    3    0    0 -0.16541255290E+03 -0.86298947730E+01  0.12043634454E+03  0.20479428905E+03  0.00000000000E+00 0. -1.
         21    1    1    2  503  501  0.34392950760E+02  0.14298774313E+02  0.86660593613E+01  0.38241738895E+02  0.00000000000E+00 0. -1.
         -4    1    1    2    0  502 -0.31253815425E+02  0.99694142580E+01  0.50756807819E+02  0.60435451013E+02  0.00000000000E+00 0.  1.
<scales pt_clust_5="13000.00000" pt_clust_6="13000.00000" pt_clust_7="13000.00000" pt_clust_8="13000.00000" pt_clust_9="35.82589" pt_clust_10="32.80534"></scales>
<clustering>
<clus scale="   32.805">  1 10  2 -1</clus>
<clus scale="   35.826">  2  9  1 -1</clus>
<clus scale="   83.222">  5  6 -1 -1</clus>
<clus scale="   91.907">  7  8 -1 -1</clus>
<clus scale="  225.833">  1  5  2 -1</clus>
<clus scale="   32.805">  1  5  2 -1</clus>
</clustering>
</event>
<event>
10    2  0.3984345E-006  0.1208538E+03  0.7546771E-02  0.1244605E+00
          1   -1    0    0  502    0 -0.00000000000E+00  0.00000000000E+00  0.37619147843E+03  0.37619147843E+03  0.00000000000E+00 0. -1.
         21   -1    0    0  503  502  0.00000000000E+00 -0.00000000000E+00 -0.22911073637E+03  0.22911073637E+03  0.00000000000E+00 0. -1.
         23    2    1    2    0    0  0.24974961940E+02 -0.63545517245E+02  0.12598941918E+03  0.16987791582E+03  0.91232620547E+02 0.  0.
         23    2    1    2    0    0 -0.50872876407E+02 -0.51946898191E+02 -0.16899794330E+03  0.20687421390E+03  0.94604998567E+02 0.  0.
        -13    1    3    3    0    0 -0.17493622696E+02 -0.18924910148E+02  0.99570249191E+02  0.10285141508E+03  0.00000000000E+00 0. -1.
         13    1    3    3    0    0  0.42468584637E+02 -0.44620607097E+02  0.26419169985E+02  0.67026500740E+02  0.00000000000E+00 0.  1.
        -13    1    4    4    0    0 -0.49193396057E+02 -0.78497904162E+02 -0.12818648712E+03  0.15815715808E+03  0.00000000000E+00 0. -1.
         13    1    4    4    0    0 -0.16794803497E+01  0.26551005971E+02 -0.40811456179E+02  0.48717055820E+02  0.00000000000E+00 0.  1.
         21    1    1    2  503  501  0.24132678734E+02  0.40291747311E+02  0.10471464626E+03  0.11476483880E+03  0.00000000000E+00 0. -1.
          1    1    1    2  501    0  0.17652357326E+01  0.75200668126E+02  0.85374619929E+02  0.11378524628E+03  0.00000000000E+00 0. -1.
<scales pt_clust_5="13000.00000" pt_clust_6="13000.00000" pt_clust_7="13000.00000" pt_clust_8="13000.00000" pt_clust_9="36.14128" pt_clust_10="88.02025"></scales>
<clustering>
<clus scale="   36.141">  9 10 -1 -1</clus>
<clus scale="   91.233">  5  6 -1 -1</clus>
<clus scale="   94.605">  7  8 -1 -1</clus>
<clus scale="  113.953">  1  5  2 -1</clus>
<clus scale="   88.020">  2  9  1 -1</clus>
<clus scale="   88.020">  2  5  1 -1</clus>
</clustering>
</event>
<event>
10    2  0.3984345E-006  0.1722733E+03  0.7546771E-02  0.1192515E+00
          1   -1    0    0  503    0 -0.00000000000E+00  0.00000000000E+00  0.10309116478E+03  0.10309116478E+03  0.00000000000E+00 0. -1.
         21   -1    0    0  501  502  0.00000000000E+00 -0.00000000000E+00 -0.93427984106E+03  0.93427984106E+03  0.00000000000E+00 0.  1.
         23    2    1    2    0    0  0.76273805478E+02 -0.37993802122E+02 -0.30296361287E+02  0.12721532438E+03  0.89468691993E+02 0.  0.
         23    2    1    2    0    0 -0.49614601093E+02  0.12657961577E+03 -0.23491314346E+03  0.29170580796E+03  0.10688351443E+03 0.  0.
        -13    1    3    3    0    0  0.54504016647E+02 -0.67019169358E+02 -0.28207414281E+02  0.90873071438E+02  0.00000000000E+00 0. -1.
         13    1    3    3    0    0  0.21769788831E+02  0.29025367237E+02 -0.20889470059E+01  0.36342252938E+02  0.00000000000E+00 0.  1.
        -13    1    4    4    0    0 -0.48920455567E+02  0.31625256428E+01 -0.57089193498E+02  0.75248844214E+02  0.00000000000E+00 0. -1.
         13    1    4    4    0    0 -0.69414552639E+00  0.12341709013E+03 -0.17782394996E+03  0.21645696374E+03  0.00000000000E+00 0.  1.
         21    1    1    2  503  502 -0.55164459358E+00  0.48823223535E+02 -0.16639136695E+02  0.51583644094E+02  0.00000000000E+00 0.  1.
          1    1    1    2  501    0 -0.26107559791E+02 -0.13740903718E+03 -0.54934003483E+03  0.56686622941E+03  0.00000000000E+00 0. -1.
<scales pt_clust_5="13000.00000" pt_clust_6="13000.00000" pt_clust_7="13000.00000" pt_clust_8="13000.00000" pt_clust_9="48.82634" pt_clust_10="135.10734"></scales>
<clustering>
<clus scale="   48.826">  1  9  2 -1</clus>
<clus scale="   89.469">  5  6 -1 -1</clus>
<clus scale="  106.884">  7  8 -1 -1</clus>
<clus scale="  117.823">  1  5  2 -1</clus>
<clus scale="  135.107">  2 10  1 -1</clus>
<clus scale="  135.107">  2  5  1 -1</clus>
</clustering>
</event>
<event>
10    2  0.3984345E-006  0.1185493E+03  0.7546771E-02  0.1246454E+00
         21   -1    0    0  501  502  0.00000000000E+00  0.00000000000E+00  0.25301369438E+03  0.25301369438E+03  0.00000000000E+00 0. -1.
          1   -1    0    0  503    0 -0.00000000000E+00 -0.00000000000E+00 -0.35369637871E+03  0.35369637871E+03  0.00000000000E+00 0. -1.
         23    2    1    2    0    0 -0.14909765085E+02 -0.84801163873E+02 -0.20102157191E+02  0.12697163585E+03  0.91127169926E+02 0.  0.
         23    2    1    2    0    0  0.86086857402E+02  0.38328690869E+02 -0.91284994483E+01  0.12939709057E+03  0.88205679999E+02 0.  0.
        -11    1    4    4    0    0  0.35939294523E+02  0.21754839586E+02  0.39456061895E+02  0.57634076347E+02  0.00000000000E+00 0.  1.
         11    1    4    4    0    0  0.50147562879E+02  0.16573851283E+02 -0.48584561343E+02  0.71763014220E+02  0.00000000000E+00 0. -1.
        -13    1    3    3    0    0 -0.45292610423E+02 -0.81440216966E+02 -0.62085935984E+01  0.93394197533E+02  0.00000000000E+00 0. -1.
         13    1    3    3    0    0  0.30382845338E+02 -0.33609469068E+01 -0.13893563592E+02  0.33577438321E+02  0.00000000000E+00 0.  1.
         21    1    1    2  503  502 -0.21448349528E+02  0.56282123396E+02 -0.20174098271E+03  0.21054009883E+03  0.00000000000E+00 0. -1.
          1    1    1    2  501    0 -0.49728742789E+02 -0.98096503925E+01  0.13028895501E+03  0.13980124784E+03  0.00000000000E+00 0. -1.
<scales pt_clust_5="13000.00000" pt_clust_6="13000.00000" pt_clust_7="13000.00000" pt_clust_8="13000.00000" pt_clust_9="60.57770" pt_clust_10="50.68705"></scales>
<clustering>
<clus scale="   50.687">  1 10  2 -1</clus>
<clus scale="   60.578">  2  9  1 -1</clus>
<clus scale="   88.206">  5  6 -1 -1</clus>
<clus scale="   91.127">  7  8 -1 -1</clus>
<clus scale="  116.319">  1  5  2 -1</clus>
<clus scale="   50.687">  1  5  2 -1</clus>
</clustering>
</event>
<event>
10    2  0.3984345E-006  0.1459013E+03  0.7546771E-02  0.1206016E+00
          1   -1    0    0  503    0 -0.00000000000E+00  0.00000000000E+00  0.10280315980E+03  0.10280315980E+03  0.00000000000E+00 0. -1.
         21   -1    0    0  501  502  0.00000000000E+00 -0.00000000000E+00 -0.59112204742E+03  0.59112204742E+03  0.00000000000E+00 0. -1.
         23    2    1    2    0    0  0.97564480947E+02 -0.91865192029E+02 -0.15038478438E+03  0.22260615498E+03  0.94762204552E+02 0.  0.
         23    2    1    2    0    0 -0.65559692380E+02  0.71573970473E+02 -0.17245087773E+03  0.21855013524E+03  0.92757478787E+02 0.  0.
        -11    1    4    4    0    0 -0.21381133806E+02 -0.17629468660E+02 -0.71919600520E+02  0.77073860595E+02  0.00000000000E+00 0.  1.
         11    1    4    4    0    0 -0.44178558574E+02  0.89203439134E+02 -0.10053127721E+03  0.14147627465E+03  0.00000000000E+00 0. -1.
        -13    1    3    3    0    0  0.80802940270E+02 -0.65364568259E+02 -0.46076682995E+02  0.11368686228E+03  0.00000000000E+00 0. -1.
         13    1    3    3    0    0  0.16761540677E+02 -0.26500623770E+02 -0.10430810139E+03  0.10891929270E+03  0.00000000000E+00 0.  1.
         21    1    1    2  503  502 -0.15787293316E+02  0.40843363949E+02  0.31571221469E+02  0.53982969851E+02  0.00000000000E+00 0.  1.
          1    1    1    2  501    0 -0.16217495251E+02 -0.20552142393E+02 -0.19705444697E+03  0.19878594714E+03  0.00000000000E+00 0. -1.
<scales pt_clust_5="13000.00000" pt_clust_6="13000.00000" pt_clust_7="13000.00000" pt_clust_8="13000.00000" pt_clust_9="43.41340" pt_clust_10="26.18010"></scales>
<clustering>
<clus scale="   26.180">  2 10  1 -1</clus>
<clus scale="   43.413">  1  9  2 -1</clus>
<clus scale="   92.757">  5  6 -1 -1</clus>
<clus scale="   94.762">  7  8 -1 -1</clus>
<clus scale="  144.607">  2  5  1 -1</clus>
<clus scale="   26.180">  2  5  1 -1</clus>
</clustering>
</event>
<event>
10    2  0.3984345E-006  0.1182540E+03  0.7546771E-02  0.1255731E+00
         21   -1    0    0  503  502  0.00000000000E+00  0.00000000000E+00  0.10517078212E+03  0.10517078212E+03  0.00000000000E+00 0. -1.
         -2   -1    0    0    0  501 -0.00000000000E+00 -0.00000000000E+00 -0.20113080267E+03  0.20113080267E+03  0.00000000000E+00 0.  1.
         23    2    1    2    0    0  0.13555003780E+02  0.12133212147E+02 -0.99472398008E+02  0.15051743404E+03  0.11148895471E+03 0.  0.
         23    2    1    2    0    0 -0.35474276872E+02 -0.45253841217E+02  0.13114785189E+02  0.10682072551E+03  0.89063658933E+02 0.  0.
        -13    1    4    4    0    0 -0.46484790230E+02  0.73758324540E+01 -0.10290941054E+02  0.48178232584E+02  0.00000000000E+00 0.  1.
         13    1    4    4    0    0  0.11010513358E+02 -0.52629673671E+02  0.23405726243E+02  0.58642492922E+02  0.00000000000E+00 0. -1.
        -13    1    3    3    0    0 -0.46320852338E+02  0.64776451905E+01 -0.68291599149E+02  0.82772723544E+02  0.00000000000E+00 0. -1.
         13    1    3    3    0    0  0.59875856117E+02  0.56555669561E+01 -0.31180798859E+02  0.67744710501E+02  0.00000000000E+00 0.  1.
         21    1    1    2  503  501  0.17960514390E+02  0.11982580197E+02 -0.15600407008E+02  0.26637098268E+02  0.00000000000E+00 0.  1.
         -2    1    1    2    0  502  0.39587587019E+01  0.21138048874E+02  0.59979992774E+01  0.22326326970E+02  0.00000000000E+00 0.  1.
<scales pt_clust_5="13000.00000" pt_clust_6="13000.00000" pt_clust_7="13000.00000" pt_clust_8="13000.00000" pt_clust_9="22.52114" pt_clust_10="21.50555"></scales>
<clustering>
<clus scale="   21.506">  1 10  2 -1</clus>
<clus scale="   22.521">  2  9  1 -1</clus>
<clus scale="   89.064">  5  6 -1 -1</clus>
<clus scale="   97.399">  1  5  2 -1</clus>
<clus scale="  111.489">  7  8 -1 -1</clus>
<clus scale="   21.506">  1  5  2 -1</clus>
</clustering>
</event>
<event>
10    2  0.3984345E-006  0.1127641E+03  0.7546771E-02  0.1255976E+00
         21   -1    0    0  501  502  0.00000000000E+00  0.00000000000E+00  0.17955297936E+03  0.17955297936E+03  0.00000000000E+00 0. -1.
          1   -1    0    0  503    0 -0.00000000000E+00 -0.00000000000E+00 -0.73306932263E+03  0.73306932263E+03  0.00000000000E+00 0. -1.
         23    2    1    2    0    0 -0.42430718781E+02 -0.86310070748E+01 -0.56807548761E+03  0.57713643093E+03  0.92205423450E+02 0.  0.
         23    2    1    2    0    0  0.35780231835E+02  0.61260257672E+02  0.43064236923E+02  0.12493642684E+03  0.93389175445E+02 0.  0.
        -11    1    3    3    0    0  0.24128022098E+02  0.18076824033E+02 -0.16754352546E+03  0.17023444405E+03  0.00000000000E+00 0.  1.
         11    1    3    3    0    0 -0.66558740880E+02 -0.26707831107E+02 -0.40053196215E+03  0.40690198689E+03  0.00000000000E+00 0. -1.
        -13    1    4    4    0    0  0.66470892012E+02  0.49659418115E+02  0.39618524336E+02  0.91945988292E+02  0.00000000000E+00 0.  1.
         13    1    4    4    0    0 -0.30690660177E+02  0.11600839557E+02  0.34457125869E+01  0.32990438551E+02  0.00000000000E+00 0. -1.
         21    1    1    2  503  502 -0.15877244581E+02 -0.20828944563E+02 -0.11379912308E+03  0.11677402212E+03  0.00000000000E+00 0. -1.
          1    1    1    2  501    0  0.22527731528E+02 -0.31800306034E+02  0.85294030489E+02  0.93775422093E+02  0.00000000000E+00 0. -1.
<scales pt_clust_5="13000.00000" pt_clust_6="13000.00000" pt_clust_7="13000.00000" pt_clust_8="13000.00000" pt_clust_9="26.19030" pt_clust_10="39.02529"></scales>
<clustering>
<clus scale="   26.190">  2  9  1 -1</clus>
<clus scale="   39.025">  1 10  2 -1</clus>
<clus scale="   92.205">  5  6 -1 -1</clus>
<clus scale="   93.389">  7  8 -1 -1</clus>
<clus scale="  111.786">  2  5  1 -1</clus>
<clus scale="   39.025">  1  5  2 -1</clus>
</clustering>
</event>
<event>
10    2  0.3984345E-006  0.1121482E+03  0.7546771E-02  0.1258004E+00
         -3   -1    0    0    0  501 -0.00000000000E+00  0.00000000000E+00  0.67911392721E+03  0.67911392721E+03  0.00000000000E+00 0.  1.
         21   -1    0    0  503  502  0.00000000000E+00 -0.00000000000E+00 -0.32919062492E+02  0.32919062492E+02  0.00000000000E+00 0.  1.
         23    2    1    2    0    0 -0.52894070518E+02  0.55402108317E+02  0.44216633957E+03  0.45821665845E+03  0.92651270502E+02 0.  0.
         23    2    1    2    0    0  0.17170906905E+02 -0.38139444138E+02  0.16043564825E+03  0.18818948084E+03  0.89029355985E+02 0.  0.
        -13    1    4    4    0    0  0.14547487481E+02 -0.61452902269E+02  0.67908144517E+02  0.92734053513E+02  0.00000000000E+00 0.  1.
         13    1    4    4    0    0  0.26234194236E+01  0.23313458131E+02  0.92527503731E+02  0.95455427327E+02  0.00000000000E+00 0. -1.
        -13    1    3    3    0    0 -0.74272650918E+02  0.18270255740E+02  0.25591843879E+03  0.26710386787E+03  0.00000000000E+00 0.  1.
         13    1    3    3    0    0  0.21378580401E+02  0.37131852577E+02  0.18624790078E+03  0.19111279057E+03  0.00000000000E+00 0. -1.
         21    1    1    2  503  501  0.21642261981E+02  0.43512307584E+01  0.27331961752E+02  0.35133414949E+02  0.00000000000E+00 0. -1.
         -3    1    1    2    0  502  0.14080901631E+02 -0.21613894938E+02  0.16260915148E+02  0.30493435467E+02  0.00000000000E+00 0.  1.
<scales pt_clust_5="13000.00000" pt_clust_6="13000.00000" pt_clust_7="13000.00000" pt_clust_8="13000.00000" pt_clust_9="22.07534" pt_clust_10="28.25028"></scales>
<clustering>
<clus scale="   22.075">  2  9  1 -1</clus>
<clus scale="   28.250">  2 10  1 -1</clus>
<clus scale="   89.029">  5  6 -1 -1</clus>
<clus scale="   92.651">  7  8 -1 -1</clus>
<clus scale="  109.175">  2  5  1 -1</clus>
<clus scale="   22.075">  2  5  1 -1</clus>
</clustering>
</event>
<event>
10    2  0.3984345E-006  0.1181709E+03  0.7546771E-02  0.1252483E+00
         21   -1    0    0  501  502  0.00000000000E+00  0.00000000000E+00  0.10417063945E+03  0.10417063945E+03  0.00000000000E+00 0.  1.
          1   -1    0    0  503    0 -0.00000000000E+00 -0.00000000000E+00 -0.32287125630E+03  0.32287125630E+03  0.00000000000E+00 0. -1.
         23    2    1    2    0    0  0.27490506778E+02  0.68063105177E+01 -0.55335982146E+02  0.10941479749E+03  0.90041508009E+02 0.  0.
         23    2    1    2    0    0 -0.20153175625E+02 -0.94369019838E+02 -0.12329795738E+03  0.18907312239E+03  0.10599338149E+03 0.  0.
        -11    1    3    3    0    0 -0.31206983242E+02 -0.10354657073E+01 -0.48546718757E+01  0.31599301121E+02  0.00000000000E+00 0.  1.
         11    1    3    3    0    0  0.58697490020E+02  0.78417762250E+01 -0.50481310270E+02  0.77815496372E+02  0.00000000000E+00 0. -1.
        -13    1    4    4    0    0  0.69276237059E+01 -0.95472290728E+02 -0.44152108505E+02  0.10541517420E+03  0.00000000000E+00 0.  1.
         13    1    4    4    0    0 -0.27080799331E+02  0.11032708894E+01 -0.79145848880E+02  0.83657948181E+02  0.00000000000E+00 0. -1.
         21    1    1    2  503  502  0.23071842119E+02 -0.53409521469E+01 -0.13477812131E+02  0.27248616267E+02  0.00000000000E+00 0. -1.
          1    1    1    2  501    0 -0.30409173272E+02  0.92903661467E+02 -0.26588865195E+02  0.10130535961E+03  0.00000000000E+00 0. -1.
<scales pt_clust_5="13000.00000" pt_clust_6="13000.00000" pt_clust_7="13000.00000" pt_clust_8="13000.00000" pt_clust_9="23.68197" pt_clust_10="93.37339"></scales>
<clustering>
<clus scale="   23.682">  1  9  2 -1</clus>
<clus scale="   90.042">  5  6 -1 -1</clus>
<clus scale="   93.373">  1 10  2 -1</clus>
<clus scale="  104.102">  2  5  1 -1</clus>
<clus scale="  105.993">  7  8 -1 -1</clus>
<clus scale="   23.682">  1  5  2 -1</clus>
</clustering>
</event>
<event>
10    2  0.3984345E-006  0.1059552E+03  0.7546771E-02  0.1268415E+00
         21   -1    0    0  501  502  0.00000000000E+00  0.00000000000E+00  0.18594628035E+03  0.18594628035E+03  0.00000000000E+00 0. -1.
          2   -1    0    0  503    0 -0.00000000000E+00 -0.00000000000E+00 -0.16026798190E+03  0.16026798190E+03  0.00000000000E+00 0. -1.
         23    2    1    2    0    0 -0.30262290785E+02  0.77172404138E+02 -0.46295104225E+02  0.13071199498E+03  0.89838759741E+02 0.  0.
         23    2    1    2    0    0 -0.41811832487E+02 -0.27800598090E+02  0.35467799860E+02  0.10918928595E+03  0.90239862313E+02 0.  0.
        -11    1    4    4    0    0 -0.64204871711E+02 -0.17411795092E+02  0.67319291614E+00  0.66527357895E+02  0.00000000000E+00 0. -1.
         11    1    4    4    0    0  0.22393039224E+02 -0.10388802998E+02  0.34794606944E+02  0.42661928060E+02  0.00000000000E+00 0.  1.
        -11    1    3    3    0    0 -0.20562847046E+02 -0.17486133603E+02 -0.81412636342E+01  0.28193540405E+02  0.00000000000E+00 0.  1.
         11    1    3    3    0    0 -0.96994437396E+01  0.94658537742E+02 -0.38153840591E+02  0.10251845457E+03  0.00000000000E+00 0. -1.
         21    1    1    2  503  502  0.20151037693E+02 -0.12276131478E+02 -0.11701315770E+02  0.26337967175E+02  0.00000000000E+00 0. -1.
          2    1    1    2  501    0  0.51923085579E+02 -0.37095674571E+02  0.48206918583E+02  0.79975014143E+02  0.00000000000E+00 0. -1.
<scales pt_clust_5="13000.00000" pt_clust_6="13000.00000" pt_clust_7="13000.00000" pt_clust_8="13000.00000" pt_clust_9="23.59593" pt_clust_10="66.45963"></scales>
<clustering>
<clus scale="   23.596">  2  9  1 -1</clus>
<clus scale="   66.460">  1 10  2 -1</clus>
<clus scale="   89.839">  7  8 -1 -1</clus>
<clus scale="   90.240">  5  6 -1 -1</clus>
<clus scale="  105.614">  2  7  1 -1</clus>
<clus scale="   66.460">  1  5  2 -1</clus>
</clustering>
</event>
<event>
10    2  0.3984345E-006  0.1500320E+03  0.7546771E-02  0.1218078E+00
          2   -1    0    0  503    0 -0.00000000000E+00  0.00000000000E+00  0.23145897518E+03  0.23145897518E+03  0.00000000000E+00 0. -1.
         21   -1    0    0  501  502  0.00000000000E+00 -0.00000000000E+00 -0.32195250963E+03  0.32195250963E+03  0.00000000000E+00 0. -1.
         23    2    1    2    0    0  0.51832341831E+01  0.56573489543E+02  0.51030676873E+02  0.11890990751E+03  0.91148288446E+02 0.  0.
         23    2    1    2    0    0  0.90901499368E+02 -0.80566955659E+02 -0.21118614520E+03  0.26061455446E+03  0.92553990419E+02 0.  0.
        -11    1    4    4    0    0  0.32418633674E+01 -0.58440482142E+02 -0.55950374436E+02  0.80970636842E+02  0.00000000000E+00 0.  1.
         11    1    4    4    0    0  0.87659636000E+02 -0.22126473518E+02 -0.15523577076E+03  0.17964391762E+03  0.00000000000E+00 0. -1.
        -11    1    3    3    0    0 -0.33369225125E+02  0.53999613078E+02  0.13201615949E+02  0.64836302036E+02  0.00000000000E+00 0. -1.
         11    1    3    3    0    0  0.38552459309E+02  0.25738764652E+01  0.37829060924E+02  0.54073605476E+02  0.00000000000E+00 0.  1.
         21    1    1    2  503  502  0.87080692478E+01 -0.20099029845E+02  0.55066097017E+02  0.59262775091E+02  0.00000000000E+00 0. -1.
          2    1    1    2  501    0 -0.10479280280E+03  0.44092495962E+02  0.14595836856E+02  0.11462424775E+03  0.00000000000E+00 0. -1.
<scales pt_clust_5="13000.00000" pt_clust_6="13000.00000" pt_clust_7="13000.00000" pt_clust_8="13000.00000" pt_clust_9="21.90437" pt_clust_10="118.08206"></scales>
<clustering>
<clus scale="   21.904">  1  9  2 -1</clus>
<clus scale="   91.148">  7  8 -1 -1</clus>
<clus scale="   92.554">  5  6 -1 -1</clus>
<clus scale="  102.883">  1  7  2 -1</clus>
<clus scale="  118.082">  2 10  1 -1</clus>
<clus scale="  118.082">  2  5  1 -1</clus>
</clustering>
</event>
<event>
10    2  0.3984345E-006  0.9517478E+02  0.7546771E-02  0.1291190E+00
          1   -1    0    0  503    0 -0.00000000000E+00  0.00000000000E+00  0.18287483945E+03  0.18287483945E+03  0.00000000000E+00 0. -1.
         21   -1    0    0  501  502  0.00000000000E+00 -0.00000000000E+00 -0.18557350105E+03  0.18557350105E+03  0.00000000000E+00 0.  1.
         23    2    1    2    0    0  0.23115470801E+02  0.18975008736E+01  0.72602456398E+02  0.11804565673E+03  0.90142858272E+02 0.  0.
         23    2    1    2    0    0 -0.28597852331E+02  0.37866835552E+02 -0.10530925231E+03  0.14698383079E+03  0.90898149041E+02 0.  0.
        -13    1    3    3    0    0  0.49546740687E+02 -0.18684912745E+02  0.64735687436E+02  0.83634411008E+02  0.00000000000E+00 0. -1.
         13    1    3    3    0    0 -0.26431269885E+02  0.20582413618E+02  0.78667689622E+01  0.34411245720E+02  0.00000000000E+00 0.  1.
        -13    1    4    4    0    0 -0.16457714555E+01  0.62651877016E+02 -0.47858994619E+02  0.78857146939E+02  0.00000000000E+00 0.  1.
         13    1    4    4    0    0 -0.26952080875E+02 -0.24785041464E+02 -0.57450257693E+02  0.68126683854E+02  0.00000000000E+00 0. -1.
         21    1    1    2  503  502 -0.33199020289E+01 -0.20404700027E+02  0.61802048005E+02  0.65167988079E+02  0.00000000000E+00 0. -1.
          1    1    1    2  501    0  0.88022835581E+01 -0.19359636399E+02 -0.31793913693E+02  0.38250864896E+02  0.00000000000E+00 0. -1.
<scales pt_clust_5="13000.00000" pt_clust_6="13000.00000" pt_clust_7="13000.00000" pt_clust_8="13000.00000" pt_clust_9="20.67301" pt_clust_10="21.73412"></scales>
<clustering>
<clus scale="   20.673">  1  9  2 -1</clus>
<clus scale="   21.734">  2 10  1 -1</clus>
<clus scale="   90.143">  5  6 -1 -1</clus>
<clus scale="   90.898">  7  8 -1 -1</clus>
<clus scale="   94.454">  1  5  2 -1</clus>
<clus scale="   21.734">  2  5  1 -1</clus>
</clustering>
</event>
<event>
10    2  0.3984345E-006  0.2269164E+03  0.7546771E-02  0.1129294E+00
         21   -1    0    0  501  502  0.00000000000E+00  0.00000000000E+00  0.22764921127E+03  0.22764921127E+03  0.00000000000E+00 0. -1.
          1   -1    0    0  503    0 -0.00000000000E+00 -0.00000000000E+00 -0.49784434920E+03  0.49784434920E+03  0.00000000000E+00 0. -1.
         23    2    1    2    0    0  0.13144706296E+03  0.13957963163E+03 -0.13268326536E+03  0.25037970592E+03  0.91237844683E+02 0.  0.
         23    2    1    2    0    0 -0.31599838635E+02 -0.24323802839E+03 -0.16047028902E+03  0.30887369884E+03  0.97411292574E+02 0.  0.
        -11    1    3    3    0    0  0.31161209755E+02  0.96944239507E+02 -0.79122519969E+02  0.12895572780E+03  0.00000000000E+00 0.  1.
         11    1    3    3    0    0  0.10028585320E+03  0.42635392120E+02 -0.53560745395E+02  0.12142397811E+03  0.00000000000E+00 0. -1.
        -11    1    4    4    0    0 -0.33731863723E+02 -0.36223226791E+02 -0.45605676792E+01  0.49706735629E+02  0.00000000000E+00 0.  1.
         11    1    4    4    0    0  0.21320250872E+01 -0.20701480160E+03 -0.15590972134E+03  0.25916696321E+03  0.00000000000E+00 0. -1.
         21    1    1    2  503  502 -0.10716974986E+03  0.65503130028E+02  0.14100495386E+02  0.12639161087E+03  0.00000000000E+00 0. -1.
          1    1    1    2  501    0  0.73225255410E+01  0.38155266734E+02  0.88579210599E+01  0.39848544834E+02  0.00000000000E+00 0. -1.
<scales pt_clust_5="13000.00000" pt_clust_6="13000.00000" pt_clust_7="13000.00000" pt_clust_8="13000.00000" pt_clust_9="130.92403" pt_clust_10="38.85156"></scales>
<clustering>
<clus scale="   38.852">  1 10  2 -1</clus>
<clus scale="   91.238">  5  6 -1 -1</clus>
<clus scale="   97.411">  7  8 -1 -1</clus>
<clus scale="  130.924">  1  9  2 -1</clus>
<clus scale="  224.336">  2  5  1 -1</clus>
<clus scale="   38.852">  1  5  2 -1</clus>
</clustering>
</event>
<event>
10    2  0.3984345E-006  0.9278862E+02  0.7546771E-02  0.1297276E+00
         -2   -1    0    0    0  501 -0.00000000000E+00  0.00000000000E+00  0.13183140721E+03  0.13183140721E+03  0.00000000000E+00 0.  1.
         21   -1    0    0  503  502  0.00000000000E+00 -0.00000000000E+00 -0.19246070811E+03  0.19246070811E+03  0.00000000000E+00 0. -1.
         23    2    1    2    0    0  0.31315552710E+01  0.20088969353E+02  0.27774236349E+02  0.96616611059E+02  0.90277283962E+02 0.  0.
         23    2    1    2    0    0  0.12664673915E+02  0.22639040541E+02 -0.86707072389E+02  0.12909876602E+03  0.92062233649E+02 0.  0.
        -11    1    4    4    0    0 -0.74568055878E+01  0.22166320950E+02 -0.10147492355E+03  0.10413505578E+03  0.00000000000E+00 0. -1.
         11    1    4    4    0    0  0.20121479503E+02  0.47271959030E+00  0.14767851158E+02  0.24963710241E+02  0.00000000000E+00 0.  1.
        -13    1    3    3    0    0  0.73401124626E+01 -0.35747711237E+02  0.94120885863E+01  0.37687710480E+02  0.00000000000E+00 0.  1.
         13    1    3    3    0    0 -0.42085571916E+01  0.55836680590E+02  0.18362147762E+02  0.58928900579E+02  0.00000000000E+00 0. -1.
         21    1    1    2  503  501  0.85794904892E+01 -0.43774778431E+02  0.33475165321E+02  0.55771189488E+02  0.00000000000E+00 0.  1.
         -2    1    1    2    0  502 -0.24375719675E+02  0.10467685371E+01 -0.35171630181E+02  0.42805548748E+02  0.00000000000E+00 0.  1.
<scales pt_clust_5="13000.00000" pt_clust_6="13000.00000" pt_clust_7="13000.00000" pt_clust_8="13000.00000" pt_clust_9="44.22602" pt_clust_10="24.39819"></scales>
<clustering>
<clus scale="   24.398">  2 10  1 -1</clus>
<clus scale="   44.226">  1  9  2 -1</clus>
<clus scale="   90.277">  7  8 -1 -1</clus>
<clus scale="   91.018">  1  7  2 -1</clus>
<clus scale="   92.062">  5  6 -1 -1</clus>
<clus scale="   24.398">  2  5  1 -1</clus>
</clustering>
</event>
<event>
10    2  0.3984345E-006  0.1036997E+03  0.7546771E-02  0.1274046E+00
         -1   -1    0    0    0  501 -0.00000000000E+00  0.00000000000E+00  0.43524880658E+02  0.43524880658E+02  0.00000000000E+00 0.  1.
         21   -1    0    0  503  502  0.00000000000E+00 -0.00000000000E+00 -0.61107083295E+03  0.61107083295E+03  0.00000000000E+00 0.  1.
         23    2    1    2    0    0 -0.45265969585E+02  0.25477965814E+02 -0.15955421015E+03  0.19096508953E+03  0.91170086637E+02 0.  0.
         23    2    1    2    0    0  0.29399343351E+02 -0.81225323048E+01 -0.21531421873E+03  0.23694688164E+03  0.94092056057E+02 0.  0.
        -11    1    4    4    0    0  0.38493483970E+02 -0.42325911188E+02 -0.17049850188E+03  0.17984151414E+03  0.00000000000E+00 0. -1.
         11    1    4    4    0    0 -0.90941406184E+01  0.34203378883E+02 -0.44815716849E+02  0.57105367500E+02  0.00000000000E+00 0.  1.
        -13    1    3    3    0    0  0.31483946771E+01 -0.29244800984E+02 -0.28710268997E+02  0.41102923491E+02  0.00000000000E+00 0. -1.
         13    1    3    3    0    0 -0.48414364262E+02  0.54722766798E+02 -0.13084394116E+03  0.14986216604E+03  0.00000000000E+00 0.  1.
         21    1    1    2  503  501 -0.12079985322E+02  0.17932049214E+02  0.64253381163E+01  0.22555917279E+02  0.00000000000E+00 0.  1.
         -1    1    1    2    0  502  0.27946611555E+02 -0.35287482723E+02 -0.19910286152E+03  0.20412782515E+03  0.00000000000E+00 0.  1.
<scales pt_clust_5="13000.00000" pt_clust_6="13000.00000" pt_clust_7="13000.00000" pt_clust_8="13000.00000" pt_clust_9="21.62139" pt_clust_10="43.14832"></scales>
<clustering>
<clus scale="   21.621">  1  9  2 -1</clus>
<clus scale="   43.148">  2 10  1 -1</clus>
<clus scale="   91.170">  7  8 -1 -1</clus>
<clus scale="   94.092">  5  6 -1 -1</clus>
<clus scale="  101.056">  1  7  2 -1</clus>
<clus scale="   43.148">  2  5  1 -1</clus>
</clustering>
</event>
<event>
10    2  0.3984345E-006  0.9865816E+02  0.7546771E-02  0.1283313E+00
         21   -1    0    0  501  502  0.00000000000E+00  0.00000000000E+00  0.47973404077E+02  0.47973404077E+02  0.00000000000E+00 0.  1.
          1   -1    0    0  503    0 -0.00000000000E+00 -0.00000000000E+00 -0.55210146246E+03  0.55210146246E+03  0.00000000000E+00 0. -1.
         23    2    1    2    0    0 -0.89065701892E+01 -0.16642401900E+02 -0.18284685774E+03  0.20546745423E+03  0.91801987058E+02 0.  0.
         23    2    1    2    0    0  0.48319678482E+02  0.20403665279E+02 -0.14594221813E+03  0.18038856817E+03  0.92140130279E+02 0.  0.
        -13    1    3    3    0    0  0.20580533691E+01 -0.43832314879E+02 -0.16589833165E+03  0.17160350770E+03  0.00000000000E+00 0.  1.
         13    1    3    3    0    0 -0.10964623558E+02  0.27189912980E+02 -0.16948526088E+02  0.33863946524E+02  0.00000000000E+00 0. -1.
        -13    1    4    4    0    0 -0.10541260691E+02  0.17164440299E+02  0.28505591152E+01  0.20343595430E+02  0.00000000000E+00 0.  1.
         13    1    4    4    0    0  0.58860939173E+02  0.32392249795E+01 -0.14879277724E+03  0.16004497274E+03  0.00000000000E+00 0. -1.
         21    1    1    2  503  502 -0.10613757712E+02 -0.43328933877E+02 -0.15487865002E+03  0.16117519845E+03  0.00000000000E+00 0.  1.
          1    1    1    2  501    0 -0.28799350581E+02  0.39567670497E+02 -0.20460332495E+02  0.53043645692E+02  0.00000000000E+00 0. -1.
<scales pt_clust_5="13000.00000" pt_clust_6="13000.00000" pt_clust_7="13000.00000" pt_clust_8="13000.00000" pt_clust_9="44.60996" pt_clust_10="46.36320"></scales>
<clustering>
<clus scale="   44.610">  2  9  1 -1</clus>
<clus scale="   46.363">  1 10  2 -1</clus>
<clus scale="   91.802">  5  6 -1 -1</clus>
<clus scale="   92.140">  7  8 -1 -1</clus>
<clus scale="   98.342">  2  5  1 -1</clus>
<clus scale="   46.363">  1  5  2 -1</clus>
</clustering>
</event>
<event>
10    2  0.3984345E-006  0.9243458E+02  0.7546771E-02  0.1298786E+00
         21   -1    0    0  503  502  0.00000000000E+00  0.00000000000E+00  0.57962864878E+02  0.57962864878E+02  0.00000000000E+00 0. -1.
         -1   -1    0    0    0  501 -0.00000000000E+00 -0.00000000000E+00 -0.46100299860E+03  0.46100299860E+03  0.00000000000E+00 0.  1.
         23    2    1    2    0    0  0.21217901453E+01  0.14538672517E+02 -0.35672171448E+03  0.36845685275E+03  0.91072475338E+02 0.  0.
         23    2    1    2    0    0 -0.20432835445E+02 -0.18209644427E+02 -0.26939419634E+02  0.96128711944E+02  0.88124372426E+02 0.  0.
        -11    1    3    3    0    0 -0.40825234224E+02 -0.85140832769E+01 -0.12887198588E+03  0.13545175565E+03  0.00000000000E+00 0. -1.
         11    1    3    3    0    0  0.42947024370E+02  0.23052755794E+02 -0.22784972860E+03  0.23300509710E+03  0.00000000000E+00 0.  1.
        -13    1    4    4    0    0 -0.29229869703E+02  0.21976065961E+02 -0.38798067593E+02  0.53316252747E+02  0.00000000000E+00 0.  1.
         13    1    4    4    0    0  0.87970342579E+01 -0.40185710388E+02  0.11858647960E+02  0.42812459198E+02  0.00000000000E+00 0. -1.
         21    1    1    2  503  501  0.19755426816E+02 -0.17226786731E+02 -0.20687595003E+02  0.33391850155E+02  0.00000000000E+00 0.  1.
         -1    1    1    2    0  502 -0.14443815159E+01  0.20897758641E+02  0.13085953908E+01  0.20988448634E+02  0.00000000000E+00 0.  1.
<scales pt_clust_5="13000.00000" pt_clust_6="13000.00000" pt_clust_7="13000.00000" pt_clust_8="13000.00000" pt_clust_9="24.28331" pt_clust_10="20.94761"></scales>
<clustering>
<clus scale="   20.948">  1 10  2 -1</clus>
<clus scale="   24.283">  1  9  2 -1</clus>
<clus scale="   88.124">  7  8 -1 -1</clus>
<clus scale="   89.531">  1  7  2 -1</clus>
<clus scale="   91.072">  5  6 -1 -1</clus>
<clus scale="   20.948">  1  5  2 -1</clus>
</clustering>
</event>
<event>
10    2  0.3984345E-006  0.1180838E+03  0.7546771E-02  0.1246388E+00
          1   -1    0    0  503    0 -0.00000000000E+00  0.00000000000E+00  0.83269077079E+03  0.83269077079E+03  0.00000000000E+00 0. -1.
         21   -1    0    0  501  502  0.00000000000E+00 -0.00000000000E+00 -0.56593585407E+02  0.56593585407E+02  0.00000000000E+00 0. -1.
         23    2    1    2    0    0 -0.26476694955E+02 -0.78069969099E+02  0.28303374056E+03  0.30852016398E+03  0.90998119975E+02 0.  0.
         23    2    1    2    0    0 -0.96185005032E+01  0.10145438076E+03  0.90154507262E+02  0.16352538016E+03  0.90703957180E+02 0.  0.
        -11    1    4    4    0    0 -0.24386016296E+02  0.55130937653E+02  0.97221018701E+02  0.11439416311E+03  0.00000000000E+00 0. -1.
         11    1    4    4    0    0  0.14767515792E+02  0.46323443111E+02 -0.70665114396E+01  0.49131217044E+02  0.00000000000E+00 0.  1.
        -11    1    3    3    0    0  0.82153501301E+01 -0.86602460094E+02  0.20528793491E+03  0.22295877263E+03  0.00000000000E+00 0.  1.
         11    1    3    3    0    0 -0.34692045085E+02  0.85324909948E+01  0.77745805645E+02  0.85561391353E+02  0.00000000000E+00 0. -1.
         21    1    1    2  503  502 -0.25883406756E+01  0.36562803471E+02  0.15441463315E+03  0.15870544111E+03  0.00000000000E+00 0. -1.
          1    1    1    2  501    0  0.38683536134E+02 -0.59947215136E+02  0.24849430441E+03  0.25853337095E+03  0.00000000000E+00 0. -1.
<scales pt_clust_5="13000.00000" pt_clust_6="13000.00000" pt_clust_7="13000.00000" pt_clust_8="13000.00000" pt_clust_9="36.65431" pt_clust_10="59.66771"></scales>
<clustering>
<clus scale="   36.654">  1  9  2 -1</clus>
<clus scale="   59.668">  2 10  1 -1</clus>
<clus scale="   90.704">  5  6 -1 -1</clus>
<clus scale="   90.998">  7  8 -1 -1</clus>
<clus scale="  117.857">  2  5  1 -1</clus>
<clus scale="   59.668">  2  5  1 -1</clus>
</clustering>
</event>
<event>
10    2  0.3984345E-006  0.9595274E+02  0.7546771E-02  0.1290285E+00
         21   -1    0    0  501  502  0.00000000000E+00  0.00000000000E+00  0.33109617651E+03  0.33109617651E+03  0.00000000000E+00 0.  1.
          4   -1    0    0  503    0 -0.00000000000E+00 -0.00000000000E+00 -0.12217361221E+03  0.12217361221E+03  0.00000000000E+00 0. -1.
         23    2    1    2    0    0 -0.12450981202E+02  0.26033357329E+02 -0.33662919081E+02  0.99579727903E+02  0.89163711573E+02 0.  0.
         23    2    1    2    0    0  0.44732974813E+01 -0.16363262125E+02  0.14199831271E+03  0.16976339501E+03  0.91478537015E+02 0.  0.
        -11    1    3    3    0    0 -0.28106345609E+02  0.54061961448E+02 -0.27673147987E+02  0.66921337843E+02  0.00000000000E+00 0. -1.
         11    1    3    3    0    0  0.15655364407E+02 -0.28028604119E+02 -0.59897710940E+01  0.32658390060E+02  0.00000000000E+00 0.  1.
        -13    1    4    4    0    0 -0.31194855982E+02  0.12489780438E+02  0.19258451152E+02  0.38729854065E+02  0.00000000000E+00 0. -1.
         13    1    4    4    0    0  0.35668153464E+02 -0.28853042563E+02  0.12273986156E+03  0.13103354094E+03  0.00000000000E+00 0.  1.
         21    1    1    2  503  502 -0.18213835959E+02 -0.92306829965E+01 -0.37864120290E+02  0.43019076400E+02  0.00000000000E+00 0. -1.
          4    1    1    2  501    0  0.26191519680E+02 -0.43941220804E+00  0.13845129096E+03  0.14090758941E+03  0.00000000000E+00 0. -1.
<scales pt_clust_5="13000.00000" pt_clust_6="13000.00000" pt_clust_7="13000.00000" pt_clust_8="13000.00000" pt_clust_9="20.41934" pt_clust_10="25.92428"></scales>
<clustering>
<clus scale="   20.419">  2  9  1 -1</clus>
<clus scale="   25.924">  1 10  2 -1</clus>
<clus scale="   89.164">  5  6 -1 -1</clus>
<clus scale="   91.479">  7  8 -1 -1</clus>
<clus scale="   93.748">  2  5  1 -1</clus>
<clus scale="   25.924">  1  5  2 -1</clus>
</clustering>
</event>
<event>
10    2  0.3984345E-006  0.1506697E+03  0.7546771E-02  0.1221574E+00
         21   -1    0    0  503  502  0.00000000000E+00  0.00000000000E+00  0.32174614268E+03  0.32174614268E+03  0.00000000000E+00 0. -1.
         -4   -1    0    0    0  501 -0.00000000000E+00 -0.00000000000E+00 -0.64204569113E+03  0.64204569113E+03  0.00000000000E+00 0.  1.
         23    2    1    2    0    0  0.28944439202E+02  0.12693180656E+03  0.94395819214E+02  0.18544470380E+03  0.92356393415E+02 0.  0.
         23    2    1    2    0    0  0.23685982763E+02  0.12969538317E+02 -0.23526045963E+02  0.98100077917E+02  0.91328614054E+02 0.  0.
        -11    1    4    4    0    0  0.49782606503E+02 -0.18792625752E+02 -0.19981545419E+02  0.56839535978E+02  0.00000000000E+00 0.  1.
         11    1    4    4    0    0 -0.26096623740E+02  0.31762164069E+02 -0.35445005440E+01  0.41260541939E+02  0.00000000000E+00 0. -1.
        -11    1    3    3    0    0  0.36568503032E+02  0.79933526290E+02  0.10472366757E+03  0.13672479873E+03  0.00000000000E+00 0. -1.
         11    1    3    3    0    0 -0.76240638309E+01  0.46998280273E+02 -0.10327848359E+02  0.48719905066E+02  0.00000000000E+00 0.  1.
         21    1    1    2  503  501 -0.48942120205E+02 -0.10807156025E+03 -0.52725624151E+03  0.54043865284E+03  0.00000000000E+00 0.  1.
         -4    1    1    2    0  502 -0.36883017603E+01 -0.31829784628E+02  0.13608691981E+03  0.13980839926E+03  0.00000000000E+00 0.  1.
<scales pt_clust_5="13000.00000" pt_clust_6="13000.00000" pt_clust_7="13000.00000" pt_clust_8="13000.00000" pt_clust_9="119.04476" pt_clust_10="32.04276"></scales>
<clustering>
<clus scale="   32.043">  1 10  2 -1</clus>
<clus scale="   91.329">  5  6 -1 -1</clus>
<clus scale="   92.356">  7  8 -1 -1</clus>
<clus scale="   94.390">  1  5  2 -1</clus>
<clus scale="  119.045">  2  9  1 -1</clus>
<clus scale="   32.043">  1  5  2 -1</clus>
</clustering>
</event>
<event>
10    2  0.3984345E-006  0.1451882E+03  0.7546771E-02  0.1227365E+00
         -4   -1    0    0    0  501 -0.00000000000E+00  0.00000000000E+00  0.15437186409E+03  0.15437186409E+03  0.00000000000E+00 0.  1.
         21   -1    0    0  503  502  0.00000000000E+00 -0.00000000000E+00 -0.56083022491E+03  0.56083022491E+03  0.00000000000E+00 0. -1.
         23    2    1    2    0    0 -0.11110343062E+01 -0.79091846798E+01  0.44229354520E+02  0.99981973833E+02  0.89310523965E+02 0.  0.
         23    2    1    2    0    0  0.12463103016E+03  0.67847442756E+01 -0.35929001291E+03  0.39077622437E+03  0.89653877331E+02 0.  0.
        -13    1    3    3    0    0  0.37745171910E+02  0.19022051193E+02  0.18270720800E+02  0.46047319929E+02  0.00000000000E+00 0. -1.
         13    1    3    3    0    0 -0.38856206216E+02 -0.26931235873E+02  0.25958633721E+02  0.53934653904E+02  0.00000000000E+00 0.  1.
        -13    1    4    4    0    0  0.54346336573E+02 -0.41228337278E+02 -0.17290842396E+03  0.18587797925E+03  0.00000000000E+00 0. -1.
         13    1    4    4    0    0  0.70284693588E+02  0.48013081554E+02 -0.18638158895E+03  0.20489824512E+03  0.00000000000E+00 0.  1.
         21    1    1    2  503  501 -0.21586909686E+02 -0.21639147674E+02  0.43918764723E+02  0.53507992643E+02  0.00000000000E+00 0.  1.
         -4    1    1    2    0  502 -0.10193308617E+03  0.22763588078E+02 -0.13531646715E+03  0.17093589816E+03  0.00000000000E+00 0.  1.
<scales pt_clust_5="13000.00000" pt_clust_6="13000.00000" pt_clust_7="13000.00000" pt_clust_8="13000.00000" pt_clust_9="30.56546" pt_clust_10="114.20077"></scales>
<clustering>
<clus scale="   30.565">  1  9  2 -1</clus>
<clus scale="   89.311">  5  6 -1 -1</clus>
<clus scale="   89.654">  7  8 -1 -1</clus>
<clus scale="   93.496">  1  5  2 -1</clus>
<clus scale="  114.201">  2 10  1 -1</clus>
<clus scale="  114.201">  2  5  1 -1</clus>
</clustering>
</event>
<event>
10    2  0.3984345E-006  0.1710729E+03  0.7546771E-02  0.1197477E+00
         21   -1    0    0  501  502  0.00000000000E+00  0.00000000000E+00  0.17854650234E+03  0.17854650234E+03  0.00000000000E+00 0.  1.
          2   -1    0    0  503    0 -0.00000000000E+00 -0.00000000000E+00 -0.78923111172E+03  0.78923111172E+03  0.00000000000E+00 0. -1.
         23    2    1    2    0    0 -0.68013165507E+02  0.29402499302E+02  0.36172848441E+02  0.12056947868E+03  0.87967190343E+02 0.  0.
         23    2    1    2    0    0  0.13551297515E+03 -0.38471014352E+02 -0.10027992450E+03  0.19461213748E+03  0.89297454695E+02 0.  0.
        -11    1    3    3    0    0 -0.41747076942E+02  0.70342432692E+01  0.63664437893E+02  0.76455605837E+02  0.00000000000E+00 0.  1.
         11    1    3    3    0    0 -0.26266088564E+02  0.22368256033E+02 -0.27491589453E+02  0.44113872841E+02  0.00000000000E+00 0. -1.
        -11    1    4    4    0    0  0.10329772754E+03  0.10335587176E+02 -0.84990738178E+02  0.13416657726E+03  0.00000000000E+00 0.  1.
         11    1    4    4    0    0  0.32215247609E+02 -0.48806601528E+02 -0.15289186323E+02  0.60445560215E+02  0.00000000000E+00 0. -1.
         21    1    1    2  503  502  0.76360400383E+02 -0.32707153762E+02 -0.48260983902E+03  0.48970697909E+03  0.00000000000E+00 0.  1.
          2    1    1    2  501    0 -0.14386021003E+03  0.41775668812E+02 -0.63967694308E+02  0.16288901881E+03  0.00000000000E+00 0. -1.
<scales pt_clust_5="13000.00000" pt_clust_6="13000.00000" pt_clust_7="13000.00000" pt_clust_8="13000.00000" pt_clust_9="83.07026" pt_clust_10="145.91746"></scales>
<clustering>
<clus scale="   83.070">  2  9  1 -1</clus>
<clus scale="   87.967">  5  6 -1 -1</clus>
<clus scale="   89.297">  7  8 -1 -1</clus>
<clus scale="  107.927">  2  5  1 -1</clus>
<clus scale="  145.917">  1 10  2 -1</clus>
<clus scale="  145.917">  1  5  2 -1</clus>
</clustering>
</event>
<event>
10    2  0.3984345E-006  0.9400972E+02  0.7546771E-02  0.1294337E+00
         -1   -1    0    0    0  501 -0.00000000000E+00  0.00000000000E+00  0.40524568100E+03  0.40524568100E+03  0.00000000000E+00 0.  1.
         21   -1    0    0  503  502  0.00000000000E+00 -0.00000000000E+00 -0.48501557282E+03  0.48501557282E+03  0.00000000000E+00 0. -1.
         23    2    1    2    0    0  0.20886818192E+01  0.25083105555E+02 -0.55898063749E+01  0.95443263277E+02  0.91894753896E+02 0.  0.
         23    2    1    2    0    0 -0.13843684510E+02  0.42857002375E+02 -0.93465234496E+02  0.13752424307E+03  0.90270688046E+02 0.  0.
        -11    1    3    3    0    0 -0.10128168888E+02  0.57550236692E+02 -0.13249889220E+02  0.59918019933E+02  0.00000000000E+00 0. -1.
         11    1    3    3    0    0  0.12216850707E+02 -0.32467131137E+02  0.76600828455E+01  0.35525243344E+02  0.00000000000E+00 0.  1.
        -11    1    4    4    0    0 -0.25368348858E+02 -0.12166680916E+02 -0.72080156905E+02  0.77376548565E+02  0.00000000000E+00 0.  1.
         11    1    4    4    0    0  0.11524664348E+02  0.55023683291E+02 -0.21385077591E+02  0.60147694510E+02  0.00000000000E+00 0. -1.
         21    1    1    2  503  501  0.34293359312E+02 -0.36392086718E+02  0.33525014141E+03  0.33895881134E+03  0.00000000000E+00 0.  1.
         -1    1    1    2    0  502 -0.22538356622E+02 -0.31548021212E+02 -0.31596499236E+03  0.31833493613E+03  0.00000000000E+00 0.  1.
<scales pt_clust_5="13000.00000" pt_clust_6="13000.00000" pt_clust_7="13000.00000" pt_clust_8="13000.00000" pt_clust_9="50.08883" pt_clust_10="38.77183"></scales>
<clustering>
<clus scale="   38.772">  2 10  1 -1</clus>
<clus scale="   50.089">  1  9  2 -1</clus>
<clus scale="   90.271">  7  8 -1 -1</clus>
<clus scale="   91.895">  5  6 -1 -1</clus>
<clus scale="   92.423">  2  7  1 -1</clus>
<clus scale="   38.772">  2  5  1 -1</clus>
</clustering>
</event>
<event>
10    2  0.3984345E-006  0.9912738E+02  0.7546771E-02  0.1283347E+00
          1   -1    0    0  503    0 -0.00000000000E+00  0.00000000000E+00  0.14470620773E+03  0.14470620773E+03  0.00000000000E+00 0. -1.
         21   -1    0    0  501  502  0.00000000000E+00 -0.00000000000E+00 -0.12607040409E+03  0.12607040409E+03  0.00000000000E+00 0. -1.
         23    2    1    2    0    0 -0.36600405380E+02  0.14825808684E+01 -0.60664635682E+01  0.10039409426E+03  0.93275851437E+02 0.  0.
         23    2    1    2    0    0  0.31648939956E+02 -0.10306807410E+02 -0.59983180176E+01  0.96982166650E+02  0.90893757485E+02 0.  0.
        -13    1    3    3    0    0 -0.14725071541E+02  0.38353776333E+02 -0.30390768723E+02  0.51102237862E+02  0.00000000000E+00 0. -1.
         13    1    3    3    0    0 -0.21875333839E+02 -0.36871195465E+02  0.24324305155E+02  0.49291856395E+02  0.00000000000E+00 0.  1.
        -13    1    4    4    0    0  0.60439898308E+02 -0.19521532169E+02 -0.15342820613E+02  0.65341209586E+02  0.00000000000E+00 0. -1.
         13    1    4    4    0    0 -0.28790958352E+02  0.92147247589E+01  0.93445025957E+01  0.31640957064E+02  0.00000000000E+00 0.  1.
         21    1    1    2  503  502  0.33726738350E+02 -0.33587224498E+01  0.23756130098E+02  0.41389945802E+02  0.00000000000E+00 0.  1.
          1    1    1    2  501    0 -0.28775272926E+02  0.12182948992E+02  0.69444551247E+01  0.32010405107E+02  0.00000000000E+00 0. -1.
<scales pt_clust_5="13000.00000" pt_clust_6="13000.00000" pt_clust_7="13000.00000" pt_clust_8="13000.00000" pt_clust_9="31.58444" pt_clust_10="31.24806"></scales>
<clustering>
<clus scale="   31.248">  2 10  1 -1</clus>
<clus scale="   31.584">  1  9  2 -1</clus>
<clus scale="   90.894">  7  8 -1 -1</clus>
<clus scale="   93.276">  5  6 -1 -1</clus>
<clus scale="   96.889">  2  7  1 -1</clus>
<clus scale="   31.248">  2  5  1 -1</clus>
</clustering>
</event>
<event>
10    2  0.3984345E-006  0.1635536E+03  0.7546771E-02  0.1184843E+00
          2   -1    0    0  503    0 -0.00000000000E+00  0.00000000000E+00  0.14581974442E+03  0.14581974442E+03  0.00000000000E+00 0. -1.
         21   -1    0    0  501  502  0.00000000000E+00 -0.00000000000E+00 -0.54460171344E+03  0.54460171344E+03  0.00000000000E+00 0.  1.
         23    2    1    2    0    0  0.11024736882E+03 -0.73463225418E+02  0.29875631966E+02  0.16317071330E+03  0.90447777601E+02 0.  0.
         23    2    1    2    0    0 -0.15918964852E+03  0.49768849889E+02 -0.37905320180E+03  0.42374612047E+03  0.89783975211E+02 0.  0.
        -11    1    4    4    0    0 -0.82350127474E+02 -0.14185531190E+02 -0.22581620312E+03  0.24078149925E+03  0.00000000000E+00 0.  1.
         11    1    4    4    0    0 -0.76839521051E+02  0.63954381079E+02 -0.15323699868E+03  0.18296462122E+03  0.00000000000E+00 0. -1.
        -11    1    3    3    0    0  0.11810676458E+02 -0.52900652570E+02  0.31315495513E+02  0.62598972675E+02  0.00000000000E+00 0.  1.
         11    1    3    3    0    0  0.98436692363E+02 -0.20562572847E+02 -0.14398635464E+01  0.10057174063E+03  0.00000000000E+00 0. -1.
         21    1    1    2  503  502  0.14843207818E+02  0.35267904813E+02  0.44837908205E+01  0.38525969272E+02  0.00000000000E+00 0.  1.
          2    1    1    2  501    0  0.34099071885E+02 -0.11573529284E+02 -0.54088190003E+02  0.64978654813E+02  0.00000000000E+00 0. -1.
<scales pt_clust_5="13000.00000" pt_clust_6="13000.00000" pt_clust_7="13000.00000" pt_clust_8="13000.00000" pt_clust_9="38.37470" pt_clust_10="36.00963"></scales>
<clustering>
<clus scale="   36.010">  2 10  1 -1</clus>
<clus scale="   38.375">  1  9  2 -1</clus>
<clus scale="   89.784">  5  6 -1 -1</clus>
<clus scale="   90.448">  7  8 -1 -1</clus>
<clus scale="  163.187">  2  5  1 -1</clus>
<clus scale="   36.010">  2  5  1 -1</clus>
</clustering>
</event>
<event>
10    2  0.3984345E-006  0.1294159E+03  0.7546771E-02  0.1228952E+00
          1   -1    0    0  503    0 -0.00000000000E+00  0.00000000000E+00  0.93061790816E+02  0.93061790816E+02  0.00000000000E+00 0. -1.
         21   -1    0    0  501  502  0.00000000000E+00 -0.00000000000E+00 -0.55937936388E+03  0.55937936388E+03  0.00000000000E+00 0.  1.
         23    2    1    2    0    0 -0.55856823661E+02  0.37713652625E+02 -0.37674030708E+02  0.12023889819E+03  0.92172423772E+02 0.  0.
         23    2    1    2    0    0  0.58048119055E+02 -0.12421874196E+03 -0.14184451852E+03  0.21676364138E+03  0.89814969859E+02 0.  0.
        -13    1    4    4    0    0  0.30539478259E+02 -0.17919446475E+02  0.23918740056E+01  0.35489256904E+02  0.00000000000E+00 0. -1.
         13    1    4    4    0    0  0.27508640796E+02 -0.10629929549E+03 -0.14423639253E+03  0.18127438448E+03  0.00000000000E+00 0.  1.
        -13    1    3    3    0    0 -0.62868656207E+02 -0.38926780501E+01  0.10088749511E+01  0.62997132509E+02  0.00000000000E+00 0.  1.
         13    1    3    3    0    0  0.70118325462E+01  0.41606330675E+02 -0.38682905659E+02  0.57241765680E+02  0.00000000000E+00 0. -1.
         21    1    1    2  503  502 -0.21055952844E+02  0.87210377905E+00 -0.69762868047E+01  0.22198700249E+02  0.00000000000E+00 0.  1.
          1    1    1    2  501    0  0.18864657450E+02  0.85632985558E+02 -0.27982273703E+03  0.29323991488E+03  0.00000000000E+00 0. -1.
<scales pt_clust_5="13000.00000" pt_clust_6="13000.00000" pt_clust_7="13000.00000" pt_clust_8="13000.00000" pt_clust_9="21.07401" pt_clust_10="87.41269"></scales>
<clustering>
<clus scale="   21.074">  1  9  2 -1</clus>
<clus scale="   87.413">  2 10  1 -1</clus>
<clus scale="   89.815">  5  6 -1 -1</clus>
<clus scale="   92.172">  7  8 -1 -1</clus>
<clus scale="  127.748">  2  5  1 -1</clus>
<clus scale="   87.413">  2  5  1 -1</clus>
</clustering>
</event>
<event>
10    2  0.3984345E-006  0.2207786E+03  0.7546771E-02  0.1167396E+00
         21   -1    0    0  501  502  0.00000000000E+00  0.00000000000E+00  0.85471808146E+03  0.85471808146E+03  0.00000000000E+00 0. -1.
          2   -1    0    0  503    0 -0.00000000000E+00 -0.00000000000E+00 -0.53326721619E+03  0.53326721619E+03  0.00000000000E+00 0. -1.
         23    2    1    2    0    0  0.26824638952E+02 -0.25389697156E+02 -0.27788981315E+03  0.29481834992E+03  0.91273836433E+02 0.  0.
         23    2    1    2    0    0  0.68651506058E+02 -0.70600854301E+02 -0.12857194976E+02  0.13471068491E+03  0.91017312936E+02 0.  0.
        -11    1    4    4    0    0  0.83585390379E+01  0.20136669810E+02  0.90169287501E+01  0.23593551025E+02  0.00000000000E+00 0. -1.
         11    1    4    4    0    0  0.60292967020E+02 -0.90737524111E+02 -0.21874123726E+02  0.11111713388E+03  0.00000000000E+00 0.  1.
        -11    1    3    3    0    0 -0.28792534804E+02  0.81075505890E+01 -0.54312049375E+02  0.62004363913E+02  0.00000000000E+00 0. -1.
         11    1    3    3    0    0  0.55617173756E+02 -0.33497247745E+02 -0.22357776378E+03  0.23281398601E+03  0.00000000000E+00 0.  1.
         21    1    1    2  503  502 -0.30568617090E+03  0.10351500213E+03  0.12544750201E+02  0.32298105440E+03  0.00000000000E+00 0. -1.
          2    1    1    2  501    0  0.21021002589E+03 -0.75244506729E+01  0.59965312320E+03  0.63547520841E+03  0.00000000000E+00 0. -1.
<scales pt_clust_5="13000.00000" pt_clust_6="13000.00000" pt_clust_7="13000.00000" pt_clust_8="13000.00000" pt_clust_9="13000.00000" pt_clust_10="220.77859"></scales>
<clustering>
<clus scale="   91.017">  5  6 -1 -1</clus>
<clus scale="   91.274">  7  8 -1 -1</clus>
<clus scale="   98.464">  2  7  1 -1</clus>
<clus scale="  142.392">  2  5  1 -1</clus>
<clus scale="  220.779">  1 10  2 -1</clus>
<clus scale="  220.779">  1  5  2 -1</clus>
</clustering>
</event>
<event>
10    2  0.3984345E-006  0.1465787E+03  0.7546771E-02  0.1205409E+00
         -3   -1    0    0    0  501 -0.00000000000E+00  0.00000000000E+00  0.11316377386E+03  0.11316377386E+03  0.00000000000E+00 0.  1.
         21   -1    0    0  503  502  0.00000000000E+00 -0.00000000000E+00 -0.49059328045E+03  0.49059328045E+03  0.00000000000E+00 0.  1.
         23    2    1    2    0    0 -0.38776740520E+02  0.12535558729E+03 -0.55435491870E+02  0.16662224484E+03  0.86442002787E+02 0.  0.
         23    2    1    2    0    0  0.56381821686E+02 -0.82232257735E+02 -0.10231287329E+03  0.16879017137E+03  0.89895182749E+02 0.  0.
        -11    1    4    4    0    0  0.13077027803E+02  0.17094711465E+02 -0.28605078773E+01  0.21712215952E+02  0.00000000000E+00 0. -1.
         11    1    4    4    0    0  0.43304793883E+02 -0.99326969200E+02 -0.99452365414E+02  0.14707795542E+03  0.00000000000E+00 0.  1.
        -11    1    3    3    0    0 -0.16450584536E+02  0.12380984987E+03 -0.22662972371E+02  0.12693742936E+03  0.00000000000E+00 0.  1.
         11    1    3    3    0    0 -0.22326155984E+02  0.15457374222E+01 -0.32772519498E+02  0.39684815477E+02  0.00000000000E+00 0. -1.
         21    1    1    2  503  501 -0.51899126015E+02 -0.70655338437E+02 -0.69553113197E+02  0.11190769270E+03  0.00000000000E+00 0. -1.
         -3    1    1    2    0  502  0.34294044849E+02  0.27532008881E+02 -0.15012802823E+03  0.15643694540E+03  0.00000000000E+00 0.  1.
<scales pt_clust_5="13000.00000" pt_clust_6="13000.00000" pt_clust_7="13000.00000" pt_clust_8="13000.00000" pt_clust_9="76.29977" pt_clust_10="43.97832"></scales>
<clustering>
<clus scale="   43.978">  2 10  1 -1</clus>
<clus scale="   76.300">  2  9  1 -1</clus>
<clus scale="   86.442">  7  8 -1 -1</clus>
<clus scale="   89.895">  5  6 -1 -1</clus>
<clus scale="  144.487">  1  7  2 -1</clus>
<clus scale="   43.978">  2  5  1 -1</clus>
</clustering>
</event>
<event>
10    2  0.3984345E-006  0.1055404E+03  0.7546771E-02  0.1270193E+00
         21   -1    0    0  501  502  0.00000000000E+00  0.00000000000E+00  0.16029161302E+03  0.16029161302E+03  0.00000000000E+00 0. -1.
          1   -1    0    0  503    0 -0.00000000000E+00 -0.00000000000E+00 -0.14568401050E+03  0.14568401050E+03  0.00000000000E+00 0. -1.
         23    2    1    2    0    0 -0.42319968350E+02  0.34693077680E+01 -0.47517558426E+02  0.11361443618E+03  0.94060118715E+02 0.  0.
         23    2    1    2    0    0  0.60280628903E+02  0.50947307756E+01  0.12075277714E+02  0.11033837107E+03  0.91482420688E+02 0.  0.
        -11    1    4    4    0    0  0.33234444665E+02  0.29452617889E+02  0.43565626078E+02  0.62208912451E+02  0.00000000000E+00 0.  1.
         11    1    4    4    0    0  0.27046184237E+02 -0.24357887114E+02 -0.31490348364E+02  0.48129458615E+02  0.00000000000E+00 0. -1.
        -13    1    3    3    0    0 -0.81362715959E+01  0.33962140431E+02 -0.56988505360E+02  0.66837980530E+02  0.00000000000E+00 0.  1.
         13    1    3    3    0    0 -0.34183696754E+02 -0.30492832663E+02  0.94709469339E+01  0.46776455652E+02  0.00000000000E+00 0. -1.
         21    1    1    2  503  502  0.61898300780E+01 -0.22497253299E+02 -0.15365072094E+01  0.23383781918E+02  0.00000000000E+00 0. -1.
          1    1    1    2  501    0 -0.24150490630E+02  0.13933214756E+02  0.51586390447E+02  0.58639034358E+02  0.00000000000E+00 0. -1.
<scales pt_clust_5="13000.00000" pt_clust_6="13000.00000" pt_clust_7="13000.00000" pt_clust_8="13000.00000" pt_clust_9="23.33325" pt_clust_10="27.44548"></scales>
<clustering>
<clus scale="   23.333">  2  9  1 -1</clus>
<clus scale="   27.445">  1 10  2 -1</clus>
<clus scale="   91.482">  5  6 -1 -1</clus>
<clus scale="   94.060">  7  8 -1 -1</clus>
<clus scale="  103.250">  1  5  2 -1</clus>
<clus scale="   27.445">  1  5  2 -1</clus>
</clustering>
</event>
<event>
10    2  0.3984345E-006  0.2620814E+03  0.7546771E-02  0.1131852E+00
          4   -1    0    0  503    0 -0.00000000000E+00  0.00000000000E+00  0.48535861418E+03  0.48535861418E+03  0.00000000000E+00 0. -1.
         21   -1    0    0  501  502  0.00000000000E+00 -0.00000000000E+00 -0.75899607185E+03  0.75899607185E+03  0.00000000000E+00 0. -1.
         23    2    1    2    0    0  0.99376889320E+02 -0.62560509278E+01  0.11960967733E+03  0.17966210675E+03  0.89761313425E+02 0.  0.
         23    2    1    2    0    0 -0.24715271246E+03  0.21084409729E+03  0.68697388321E+02  0.34473620176E+03  0.92649991928E+02 0.  0.
        -13    1    4    4    0    0 -0.16683410491E+03  0.86802149256E+02  0.19907889829E+02  0.18911519176E+03  0.00000000000E+00 0.  1.
         13    1    4    4    0    0 -0.80318607549E+02  0.12404194803E+03  0.48789498492E+02  0.15562101000E+03  0.00000000000E+00 0. -1.
        -13    1    3    3    0    0  0.65060511650E+02 -0.45562656977E+02  0.54990423497E+02  0.96606276004E+02  0.00000000000E+00 0. -1.
         13    1    3    3    0    0  0.34316377669E+02  0.39306606049E+02  0.64619253833E+02  0.83055830749E+02  0.00000000000E+00 0.  1.
         21    1    1    2  503  502  0.12579377190E+03 -0.13974335950E+03  0.57033049429E+02  0.19648167421E+03  0.00000000000E+00 0. -1.
          4    1    1    2  501    0  0.21982051247E+02 -0.64844686864E+02 -0.51897757275E+03  0.52347470331E+03  0.00000000000E+00 0. -1.
<scales pt_clust_5="13000.00000" pt_clust_6="13000.00000" pt_clust_7="13000.00000" pt_clust_8="13000.00000" pt_clust_9="245.15842" pt_clust_10="68.46929"></scales>
<clustering>
<clus scale="   68.469">  2 10  1 -1</clus>
<clus scale="   89.761">  7  8 -1 -1</clus>
<clus scale="   92.650">  5  6 -1 -1</clus>
<clus scale="  136.751">  1  7  2 -1</clus>
<clus scale="  245.158">  2  9  1 -1</clus>
<clus scale="   68.469">  2  5  1 -1</clus>
</clustering>
</event>
<event>
10    2  0.3984345E-006  0.9884487E+02  0.7546771E-02  0.1295554E+00
          1   -1    0    0  503    0 -0.00000000000E+00  0.00000000000E+00  0.63183199783E+03  0.63183199783E+03  0.00000000000E+00 0. -1.
         21   -1    0    0  501  502  0.00000000000E+00 -0.00000000000E+00 -0.76835479553E+02  0.76835479553E+02  0.00000000000E+00 0. -1.
         23    2    1    2    0    0  0.44495391729E+01  0.12578085984E+02  0.11293251473E+03  0.14168896928E+03  0.84522212969E+02 0.  0.
         23    2    1    2    0    0 -0.27918822178E+02 -0.66343092192E+02  0.42805619406E+02  0.10212421411E+03  0.58447990051E+02 0.  0.
        -11    1    4    4    0    0 -0.40827797750E+02 -0.43749206859E+02  0.10687060201E+02  0.60787461089E+02  0.00000000000E+00 0.  1.
         11    1    4    4    0    0  0.12908975572E+02 -0.22593885333E+02  0.32118559205E+02  0.41336753019E+02  0.00000000000E+00 0. -1.
        -11    1    3    3    0    0  0.39763391639E+02 -0.94616976374E+01  0.37187338950E+02  0.55258928826E+02  0.00000000000E+00 0. -1.
         11    1    3    3    0    0 -0.35313852466E+02  0.22039783621E+02  0.75745175780E+02  0.86430040449E+02  0.00000000000E+00 0.  1.
         21    1    1    2  503  502  0.43723867170E+02  0.50959242831E+02  0.42596150460E+03  0.43122131718E+03  0.00000000000E+00 0. -1.
          1    1    1    2  501    0 -0.20254584165E+02  0.28057633766E+01 -0.26703120457E+02  0.33632976822E+02  0.00000000000E+00 0. -1.
<scales pt_clust_5="13000.00000" pt_clust_6="13000.00000" pt_clust_7="13000.00000" pt_clust_8="13000.00000" pt_clust_9="66.53006" pt_clust_10="20.44799"></scales>
<clustering>
<clus scale="   20.448">  2 10  1 -1</clus>
<clus scale="   58.448">  5  6 -1 -1</clus>
<clus scale="   66.530">  1  9  2 -1</clus>
<clus scale="   77.733">  2  5  1 -1</clus>
<clus scale="   84.522">  7  8 -1 -1</clus>
<clus scale="   20.448">  2  5  1 -1</clus>
</clustering>
</event>
<event>
10    2  0.3984345E-006  0.1292332E+03  0.7546771E-02  0.1230084E+00
         21   -1    0    0  501  502  0.00000000000E+00  0.00000000000E+00  0.12484049415E+03  0.12484049415E+03  0.00000000000E+00 0. -1.
          2   -1    0    0  503    0 -0.00000000000E+00 -0.00000000000E+00 -0.52509215329E+03  0.52509215329E+03  0.00000000000E+00 0. -1.
         23    2    1    2    0    0 -0.68557536809E+02  0.15633940534E+02 -0.34529483533E+03  0.36455964426E+03  0.93437973905E+02 0.  0.
         23    2    1    2    0    0  0.62876969680E+02 -0.10598355540E+02 -0.51178415496E+02  0.12008576930E+03  0.87951823852E+02 0.  0.
        -11    1    4    4    0    0  0.57412664718E+02  0.93080807636E+01  0.67845411896E+01  0.58556677132E+02  0.00000000000E+00 0. -1.
         11    1    4    4    0    0  0.54643049614E+01 -0.19906436304E+02 -0.57962956686E+02  0.61529092166E+02  0.00000000000E+00 0.  1.
        -11    1    3    3    0    0 -0.64403295495E+02  0.45504434890E+02 -0.29964438509E+03  0.30984705191E+03  0.00000000000E+00 0. -1.
         11    1    3    3    0    0 -0.41542413137E+01 -0.29870494356E+02 -0.45650450249E+02  0.54712592352E+02  0.00000000000E+00 0.  1.
         21    1    1    2  503  502 -0.56495481399E+02  0.12389840351E+02 -0.57301532464E+02  0.81416909700E+02  0.00000000000E+00 0. -1.
          2    1    1    2  501    0  0.62176048528E+02 -0.17425425345E+02  0.53523124155E+02  0.83870324181E+02  0.00000000000E+00 0. -1.
<scales pt_clust_5="13000.00000" pt_clust_6="13000.00000" pt_clust_7="13000.00000" pt_clust_8="13000.00000" pt_clust_9="57.83812" pt_clust_10="62.64926"></scales>
<clustering>
<clus scale="   57.838">  2  9  1 -1</clus>
<clus scale="   62.649">  1 10  2 -1</clus>
<clus scale="   87.952">  5  6 -1 -1</clus>
<clus scale="   93.438">  7  8 -1 -1</clus>
<clus scale="  125.324">  1  5  2 -1</clus>
<clus scale="   62.649">  1  5  2 -1</clus>
</clustering>
</event>
<event>
10    2  0.3984345E-006  0.2655550E+03  0.7546771E-02  0.1104614E+00
         21   -1    0    0  501  502  0.00000000000E+00  0.00000000000E+00  0.11476302225E+04  0.11476302225E+04  0.00000000000E+00 0. -1.
          4   -1    0    0  503    0 -0.00000000000E+00 -0.00000000000E+00 -0.19872008681E+03  0.19872008681E+03  0.00000000000E+00 0. -1.
         23    2    1    2    0    0 -0.48073003683E+02 -0.22414361677E+03 -0.36915256868E+02  0.24452014241E+03  0.76655001350E+02 0.  0.
         23    2    1    2    0    0  0.23080053886E+02  0.18438667457E+03  0.39878836343E+03  0.44961835184E+03  0.92700425314E+02 0.  0.
        -11    1    4    4    0    0 -0.40690218930E+01  0.42920289878E+02  0.19717084251E+03  0.20182925794E+03  0.00000000000E+00 0.  1.
         11    1    4    4    0    0  0.27149075779E+02  0.14146638470E+03  0.20161752092E+03  0.24778909390E+03  0.00000000000E+00 0. -1.
        -13    1    3    3    0    0 -0.12360319320E+02 -0.16953538998E+03 -0.51588989166E+02  0.17764135147E+03  0.00000000000E+00 0. -1.
         13    1    3    3    0    0 -0.35712684363E+02 -0.54608226785E+02  0.14673732298E+02  0.66878790932E+02  0.00000000000E+00 0.  1.
         21    1    1    2  503  502  0.41266184902E+02 -0.78000872189E+02  0.48466967532E+02  0.10067810596E+03  0.00000000000E+00 0. -1.
          4    1    1    2  501    0 -0.16273235105E+02  0.11775781438E+03  0.53857006156E+03  0.55153370907E+03  0.00000000000E+00 0. -1.
<scales pt_clust_5="13000.00000" pt_clust_6="13000.00000" pt_clust_7="13000.00000" pt_clust_8="13000.00000" pt_clust_9="88.24417" pt_clust_10="115.76892"></scales>
<clustering>
<clus scale="   76.655">  7  8 -1 -1</clus>
<clus scale="   88.244">  2  9  1 -1</clus>
<clus scale="   92.700">  5  6 -1 -1</clus>
<clus scale="  115.769">  1 10  2 -1</clus>
<clus scale="  260.388">  2  7  1 -1</clus>
<clus scale="  115.769">  1  5  2 -1</clus>
</clustering>
</event>
<event>
10    2  0.3984345E-006  0.9988659E+02  0.7546771E-02  0.1281160E+00
          2   -1    0    0  503    0 -0.00000000000E+00  0.00000000000E+00  0.71509878596E+03  0.71509878596E+03  0.00000000000E+00 0. -1.
         21   -1    0    0  501  502  0.00000000000E+00 -0.00000000000E+00 -0.56299300412E+02  0.56299300412E+02  0.00000000000E+00 0.  1.
         23    2    1    2    0    0 -0.53847704930E+01  0.37650568801E+02  0.40567672489E+03  0.41766988366E+03  0.91803951521E+02 0.  0.
         23    2    1    2    0    0 -0.16895974960E+02 -0.73723644088E+02  0.13929112852E+03  0.18252701080E+03  0.90517631001E+02 0.  0.
        -11    1    3    3    0    0  0.39340243063E+02  0.41990146237E+01  0.11336706295E+03  0.12007238404E+03  0.00000000000E+00 0.  1.
         11    1    3    3    0    0 -0.44725013556E+02  0.33451554177E+02  0.29230966194E+03  0.29759749961E+03  0.00000000000E+00 0. -1.
        -11    1    4    4    0    0 -0.53777531738E+02 -0.50310168644E+02  0.78124481960E+02  0.10736186786E+03  0.00000000000E+00 0.  1.
         11    1    4    4    0    0  0.36881556779E+02 -0.23413475444E+02  0.61166646558E+02  0.75165142945E+02  0.00000000000E+00 0. -1.
         21    1    1    2  503  502  0.14836973501E+02 -0.14255955052E+02  0.11834916889E+03  0.12012449298E+03  0.00000000000E+00 0. -1.
          2    1    1    2  501    0  0.74437719518E+01  0.50329030339E+02 -0.45175367419E+01  0.51076698934E+02  0.00000000000E+00 0. -1.
<scales pt_clust_5="13000.00000" pt_clust_6="13000.00000" pt_clust_7="13000.00000" pt_clust_8="13000.00000" pt_clust_9="20.57591" pt_clust_10="50.41462"></scales>
<clustering>
<clus scale="   20.576">  1  9  2 -1</clus>
<clus scale="   50.415">  2 10  1 -1</clus>
<clus scale="   90.518">  7  8 -1 -1</clus>
<clus scale="   91.804">  5  6 -1 -1</clus>
<clus scale="   98.706">  2  7  1 -1</clus>
<clus scale="   50.415">  2  5  1 -1</clus>
</clustering>
</event>
<event>
10    2  0.3984345E-006  0.2845461E+03  0.7546771E-02  0.1115922E+00
          1   -1    0    0  503    0 -0.00000000000E+00  0.00000000000E+00  0.99843511943E+03  0.99843511943E+03  0.00000000000E+00 0. -1.
         21   -1    0    0  501  502  0.00000000000E+00 -0.00000000000E+00 -0.21041559977E+03  0.21041559977E+03  0.00000000000E+00 0.  1.
         23    2    1    2    0    0  0.96386617469E+02 -0.95807640636E+02  0.24658267486E+03  0.29541820834E+03  0.89439466943E+02 0.  0.
         23    2    1    2    0    0 -0.18688409504E+03  0.29151313080E+03  0.39619764653E+03  0.53428992663E+03  0.92669197517E+02 0.  0.
        -11    1    4    4    0    0 -0.13894648454E+03  0.25130254643E+03  0.27351101639E+03  0.39656950399E+03  0.00000000000E+00 0. -1.
         11    1    4    4    0    0 -0.47937610500E+02  0.40210584372E+02  0.12268663014E+03  0.13772042263E+03  0.00000000000E+00 0.  1.
        -13    1    3    3    0    0  0.13520127596E+02 -0.33806697507E+02  0.14826066060E+03  0.15266600843E+03  0.00000000000E+00 0. -1.
         13    1    3    3    0    0  0.82866489873E+02 -0.62000943129E+02  0.98322014254E+02  0.14275219991E+03  0.00000000000E+00 0.  1.
         21    1    1    2  503  502  0.14133086738E+03 -0.18741736234E+03  0.19676118537E+03  0.30629176588E+03  0.00000000000E+00 0.  1.
          1    1    1    2  501    0 -0.50833389804E+02 -0.82881278284E+01 -0.51521987086E+02  0.72850818356E+02  0.00000000000E+00 0. -1.
<scales pt_clust_5="13000.00000" pt_clust_6="13000.00000" pt_clust_7="13000.00000" pt_clust_8="13000.00000" pt_clust_9="269.03333" pt_clust_10="51.50463"></scales>
<clustering>
<clus scale="   51.505">  2 10  1 -1</clus>
<clus scale="   89.439">  7  8 -1 -1</clus>
<clus scale="   92.669">  5  6 -1 -1</clus>
<clus scale="  158.708">  1  7  2 -1</clus>
<clus scale="  269.033">  2  9  1 -1</clus>
<clus scale="   51.505">  2  5  1 -1</clus>
</clustering>
</event>
<event>
10    2  0.3984345E-006  0.9789901E+02  0.7546771E-02  0.1285510E+00
          4   -1    0    0  503    0 -0.00000000000E+00  0.00000000000E+00  0.70133414647E+02  0.70133414647E+02  0.00000000000E+00 0. -1.
         21   -1    0    0  501  502  0.00000000000E+00 -0.00000000000E+00 -0.91652862853E+03  0.91652862853E+03  0.00000000000E+00 0. -1.
         23    2    1    2    0    0 -0.36467354944E+02  0.16668239543E+02 -0.40920776454E+02  0.10822693378E+03  0.91819720450E+02 0.  0.
         23    2    1    2    0    0  0.59177409623E+02 -0.50035680344E+02 -0.54013450555E+03  0.55357298932E+03  0.93232158041E+02 0.  0.
        -11    1    4    4    0    0  0.33390618883E+02 -0.76978167025E+02 -0.36800310445E+03  0.37744781959E+03  0.00000000000E+00 0. -1.
         11    1    4    4    0    0  0.25786790740E+02  0.26942486681E+02 -0.17213140110E+03  0.17612516972E+03  0.00000000000E+00 0.  1.
        -11    1    3    3    0    0 -0.43665587736E+01 -0.27850867244E+02  0.13215618996E+02  0.31135032154E+02  0.00000000000E+00 0.  1.
         11    1    3    3    0    0 -0.32100796170E+02  0.44519106787E+02 -0.54136395450E+02  0.77091901625E+02  0.00000000000E+00 0. -1.
         21    1    1    2  503  502  0.21625471967E+02 -0.51721754756E+01  0.22177554977E+02  0.31404719099E+02  0.00000000000E+00 0. -1.
          4    1    1    2  501    0 -0.44335526646E+02  0.38539616277E+02 -0.28751748685E+03  0.29345740098E+03  0.00000000000E+00 0. -1.
<scales pt_clust_5="13000.00000" pt_clust_6="13000.00000" pt_clust_7="13000.00000" pt_clust_8="13000.00000" pt_clust_9="22.23539" pt_clust_10="57.39815"></scales>
<clustering>
<clus scale="   22.235">  1  9  2 -1</clus>
<clus scale="   57.398">  2 10  1 -1</clus>
<clus scale="   91.820">  7  8 -1 -1</clus>
<clus scale="   93.232">  5  6 -1 -1</clus>
<clus scale="   96.555">  1  7  2 -1</clus>
<clus scale="   57.398">  2  5  1 -1</clus>
</clustering>
</event>
<event>
10    2  0.3984345E-006  0.1365233E+03  0.7546771E-02  0.1231684E+00
          2   -1    0    0  502    0 -0.00000000000E+00  0.00000000000E+00  0.28763639887E+03  0.28763639887E+03  0.00000000000E+00 0. -1.
         21   -1    0    0  503  502  0.00000000000E+00 -0.00000000000E+00 -0.38417007586E+03  0.38417007586E+03  0.00000000000E+00 0. -1.
         23    2    1    2    0    0  0.16916235418E+02 -0.44286479297E+02 -0.30178480541E+03  0.31882963775E+03  0.91273314098E+02 0.  0.
         23    2    1    2    0    0  0.85063175841E+02  0.11246233969E+01  0.19492597143E+03  0.23067328712E+03  0.89314177997E+02 0.  0.
        -11    1    4    4    0    0  0.90464628864E+02  0.28504359636E+02  0.14065257457E+03  0.16964520131E+03  0.00000000000E+00 0. -1.
         11    1    4    4    0    0 -0.54014530227E+01 -0.27379736239E+02  0.54273396856E+02  0.61028085809E+02  0.00000000000E+00 0.  1.
        -13    1    3    3    0    0  0.37386597486E+02 -0.28167209131E+02 -0.28265810793E+03  0.28650786258E+03  0.00000000000E+00 0. -1.
         13    1    3    3    0    0 -0.20470362068E+02 -0.16119270166E+02 -0.19126697472E+02  0.32321775169E+02  0.00000000000E+00 0.  1.
         21    1    1    2  503  501 -0.25980383950E+02  0.34063731625E+02 -0.80422451831E+01  0.43588942061E+02  0.00000000000E+00 0. -1.
          2    1    1    2  501    0 -0.75999027309E+02  0.90981242754E+01  0.18367402168E+02  0.78714607791E+02  0.00000000000E+00 0. -1.
<scales pt_clust_5="13000.00000" pt_clust_6="13000.00000" pt_clust_7="13000.00000" pt_clust_8="13000.00000" pt_clust_9="38.06522" pt_clust_10="115.11032"></scales>
<clustering>
<clus scale="   38.065">  9 10 -1 -1</clus>
<clus scale="   89.314">  5  6 -1 -1</clus>
<clus scale="   91.273">  7  8 -1 -1</clus>
<clus scale="  102.851">  1  7  2 -1</clus>
<clus scale="  115.110">  2  9  1 -1</clus>
<clus scale="  115.110">  2  5  1 -1</clus>
</clustering>
</event>
<event>
10    2  0.3984345E-006  0.9949575E+02  0.7546771E-02  0.1281996E+00
         21   -1    0    0  503  502  0.00000000000E+00  0.00000000000E+00  0.18254965817E+03  0.18254965817E+03  0.00000000000E+00 0.  1.
         -1   -1    0    0    0  501 -0.00000000000E+00 -0.00000000000E+00 -0.30845082042E+03  0.30845082042E+03  0.00000000000E+00 0.  1.
         23    2    1    2    0    0 -0.40040113887E+02  0.16772424320E+02 -0.16921575930E+03  0.19809307498E+03  0.93393619821E+02 0.  0.
         23    2    1    2    0    0  0.85561478517E+01 -0.15571496137E+02 -0.34234903790E+02  0.99869341757E+02  0.92120451732E+02 0.  0.
        -11    1    3    3    0    0 -0.54622307672E+02  0.44608608785E+02 -0.12940563881E+03  0.14737484123E+03  0.00000000000E+00 0.  1.
         11    1    3    3    0    0  0.14582193786E+02 -0.27836184464E+02 -0.39810120491E+02  0.50718233749E+02  0.00000000000E+00 0. -1.
        -11    1    4    4    0    0  0.32742815594E+02 -0.11822283309E+02  0.20155517888E+02  0.40225654215E+02  0.00000000000E+00 0.  1.
         11    1    4    4    0    0 -0.24186667742E+02 -0.37492128278E+01 -0.54390421678E+02  0.59643687542E+02  0.00000000000E+00 0. -1.
         21    1    1    2  503  501  0.21411950726E+02  0.29856193967E+02 -0.49621556546E+02  0.61742714762E+02  0.00000000000E+00 0.  1.
         -1    1    1    2    0  502  0.10072015309E+02 -0.31057122150E+02  0.12717105739E+03  0.13129534708E+03  0.00000000000E+00 0.  1.
<scales pt_clust_5="13000.00000" pt_clust_6="13000.00000" pt_clust_7="13000.00000" pt_clust_8="13000.00000" pt_clust_9="34.66790" pt_clust_10="32.64951"></scales>
<clustering>
<clus scale="   32.650">  1 10  2 -1</clus>
<clus scale="   34.668">  2  9  1 -1</clus>
<clus scale="   92.120">  7  8 -1 -1</clus>
<clus scale="   93.394">  5  6 -1 -1</clus>
<clus scale="   98.302">  1  7  2 -1</clus>
<clus scale="   32.650">  1  5  2 -1</clus>
</clustering>
</event>
<event>
10    2  0.3984345E-006  0.9505413E+02  0.7546771E-02  0.1293375E+00
         21   -1    0    0  501  502  0.00000000000E+00  0.00000000000E+00  0.36113140218E+03  0.36113140218E+03  0.00000000000E+00 0. -1.
          2   -1    0    0  503    0 -0.00000000000E+00 -0.00000000000E+00 -0.14023296257E+03  0.14023296257E+03  0.00000000000E+00 0. -1.
         23    2    1    2    0    0 -0.44604398444E+02  0.33047288133E+01 -0.35491184302E+02  0.10816780312E+03  0.91870429823E+02 0.  0.
         23    2    1    2    0    0  0.55577985010E+00  0.27100080026E+02 -0.16043257751E+02  0.93179292538E+02  0.87694191426E+02 0.  0.
        -11    1    3    3    0    0 -0.32000679284E+02 -0.38191122580E+02 -0.40902079921E+02  0.64463830637E+02  0.00000000000E+00 0.  1.
         11    1    3    3    0    0 -0.12603719160E+02  0.41495851393E+02  0.54108956187E+01  0.43703972484E+02  0.00000000000E+00 0. -1.
        -13    1    4    4    0    0  0.41457013310E+02  0.13508183212E+02  0.72285791195E+01  0.44197367822E+02  0.00000000000E+00 0.  1.
         13    1    4    4    0    0 -0.40901233460E+02  0.13591896814E+02 -0.23271836871E+02  0.48981924716E+02  0.00000000000E+00 0. -1.
         21    1    1    2  503  502  0.19524928983E+02  0.48627974091E+01 -0.37891973458E+01  0.20475049865E+02  0.00000000000E+00 0. -1.
          2    1    1    2  501    0  0.24523689611E+02 -0.35267606248E+02  0.27622207900E+03  0.27954221923E+03  0.00000000000E+00 0. -1.
<scales pt_clust_5="13000.00000" pt_clust_6="13000.00000" pt_clust_7="13000.00000" pt_clust_8="13000.00000" pt_clust_9="20.12137" pt_clust_10="43.04937"></scales>
<clustering>
<clus scale="   20.121">  2  9  1 -1</clus>
<clus scale="   43.049">  1 10  2 -1</clus>
<clus scale="   87.694">  7  8 -1 -1</clus>
<clus scale="   91.024">  1  7  2 -1</clus>
<clus scale="   91.870">  5  6 -1 -1</clus>
<clus scale="   43.049">  1  5  2 -1</clus>
</clustering>
</event>
<event>
10    2  0.3984345E-006  0.2885972E+03  0.7546771E-02  0.1135339E+00
          1   -1    0    0  503    0 -0.00000000000E+00  0.00000000000E+00  0.65623890951E+03  0.65623890951E+03  0.00000000000E+00 0. -1.
         21   -1    0    0  501  502  0.00000000000E+00 -0.00000000000E+00 -0.49674746288E+03  0.49674746288E+03  0.00000000000E+00 0. -1.
         23    2    1    2    0    0 -0.84151630894E+01 -0.22194614775E+02  0.12231664405E+03  0.15430221615E+03  0.91018660733E+02 0.  0.
         23    2    1    2    0    0  0.12219198900E+03  0.29807452782E+03 -0.31521855308E+03  0.46000405502E+03  0.91987434567E+02 0.  0.
        -11    1    4    4    0    0  0.51751287673E+00  0.69097535503E+02 -0.32428318474E+02  0.76330420353E+02  0.00000000000E+00 0.  1.
         11    1    4    4    0    0  0.12167447612E+03  0.22897699231E+03 -0.28279023460E+03  0.38367363466E+03  0.00000000000E+00 0. -1.
        -13    1    3    3    0    0 -0.45865881420E+02  0.32141254590E+01  0.80388244701E+02  0.92608204642E+02  0.00000000000E+00 0.  1.
         13    1    3    3    0    0  0.37450718330E+02 -0.25408740234E+02  0.41928399351E+02  0.61694011507E+02  0.00000000000E+00 0. -1.
         21    1    1    2  503  502  0.66389564430E+01 -0.11823464048E+03  0.31538444381E+03  0.33688403546E+03  0.00000000000E+00 0. -1.
          1    1    1    2  501    0 -0.12041578235E+03 -0.15764527256E+03  0.37008911836E+02  0.20179606576E+03  0.00000000000E+00 0. -1.
<scales pt_clust_5="13000.00000" pt_clust_6="13000.00000" pt_clust_7="13000.00000" pt_clust_8="13000.00000" pt_clust_9="132.21713" pt_clust_10="273.54480"></scales>
<clustering>
<clus scale="   91.019">  7  8 -1 -1</clus>
<clus scale="   91.987">  5  6 -1 -1</clus>
<clus scale="   94.063">  1  7  2 -1</clus>
<clus scale="  132.217">  1  9  2 -1</clus>
<clus scale="  273.545">  2 10  1 -1</clus>
<clus scale="  273.545">  2  5  1 -1</clus>
</clustering>
</event>
<event>
10    2  0.3984345E-006  0.1417181E+03  0.7546771E-02  0.1211522E+00
          1   -1    0    0  503    0 -0.00000000000E+00  0.00000000000E+00  0.32692360867E+03  0.32692360867E+03  0.00000000000E+00 0. -1.
         21   -1    0    0  501  502  0.00000000000E+00 -0.00000000000E+00 -0.26522750980E+03  0.26522750980E+03  0.00000000000E+00 0. -1.
         23    2    1    2    0    0 -0.74991494927E+02 -0.42794303063E+02  0.56507078497E+02  0.13682808291E+03  0.89854313569E+02 0.  0.
         23    2    1    2    0    0  0.77537743201E+02  0.11583019610E+03  0.57584906120E+02  0.17672239174E+03  0.92119739373E+02 0.  0.
        -11    1    3    3    0    0 -0.86354859702E+02 -0.24448738020E+02  0.67792585461E+02  0.11247549612E+03  0.00000000000E+00 0. -1.
         11    1    3    3    0    0  0.11363364776E+02 -0.18345565043E+02 -0.11285506964E+02  0.24352586787E+02  0.00000000000E+00 0.  1.
        -13    1    4    4    0    0  0.60196174124E+02  0.94213896113E+02  0.82902787456E+02  0.13918588207E+03  0.00000000000E+00 0. -1.
         13    1    4    4    0    0  0.17341569077E+02  0.21616299984E+02 -0.25317881336E+02  0.37536509673E+02  0.00000000000E+00 0.  1.
         21    1    1    2  503  502 -0.18123083346E+02 -0.14016784016E+02  0.10621072694E+03  0.10865373855E+03  0.00000000000E+00 0. -1.
          1    1    1    2  501    0  0.15576835071E+02 -0.59019109019E+02 -0.15860661269E+03  0.16994690526E+03  0.00000000000E+00 0. -1.
<scales pt_clust_5="13000.00000" pt_clust_6="13000.00000" pt_clust_7="13000.00000" pt_clust_8="13000.00000" pt_clust_9="22.91105" pt_clust_10="61.27315"></scales>
<clustering>
<clus scale="   22.911">  1  9  2 -1</clus>
<clus scale="   61.273">  2 10  1 -1</clus>
<clus scale="   89.854">  5  6 -1 -1</clus>
<clus scale="   92.120">  7  8 -1 -1</clus>
<clus scale="  140.256">  1  5  2 -1</clus>
<clus scale="   61.273">  2  5  1 -1</clus>
</clustering>
</event>
<event>
10    2  0.3984345E-006  0.9746955E+02  0.7546771E-02  0.1286171E+00
         21   -1    0    0  503  502  0.00000000000E+00  0.00000000000E+00  0.11411216750E+03  0.11411216750E+03  0.00000000000E+00 0. -1.
         -1   -1    0    0    0  501 -0.00000000000E+00 -0.00000000000E+00 -0.33279222484E+03  0.33279222484E+03  0.00000000000E+00 0.  1.
         23    2    1    2    0    0 -0.29535575594E+02  0.42833400514E+02 -0.50033258679E+02  0.11534532701E+03  0.89967588966E+02 0.  0.
         23    2    1    2    0    0 -0.45277839765E+00 -0.29676743185E+02  0.44061162562E+01  0.95700753284E+02  0.90875223379E+02 0.  0.
        -13    1    3    3    0    0 -0.61228492482E+02  0.37451743152E+02 -0.33895711818E+02  0.79375566999E+02  0.00000000000E+00 0.  1.
         13    1    3    3    0    0  0.31692916888E+02  0.53816573623E+01 -0.16137546861E+02  0.35969760014E+02  0.00000000000E+00 0. -1.
        -13    1    4    4    0    0  0.83258772989E+01 -0.51997726046E+02  0.30015192267E+02  0.60613492834E+02  0.00000000000E+00 0. -1.
         13    1    4    4    0    0 -0.87786556966E+01  0.22320982861E+02 -0.25609076011E+02  0.35087260449E+02  0.00000000000E+00 0.  1.
         21    1    1    2  503  501  0.80860800318E+01 -0.25519848167E+02 -0.19837224045E+03  0.20017041020E+03  0.00000000000E+00 0. -1.
         -1    1    1    2    0  502  0.21902273960E+02  0.12363190838E+02  0.25319325530E+02  0.35687901838E+02  0.00000000000E+00 0.  1.
<scales pt_clust_5="13000.00000" pt_clust_6="13000.00000" pt_clust_7="13000.00000" pt_clust_8="13000.00000" pt_clust_9="26.71598" pt_clust_10="25.15071"></scales>
<clustering>
<clus scale="   25.151">  1 10  2 -1</clus>
<clus scale="   26.716">  2  9  1 -1</clus>
<clus scale="   89.968">  5  6 -1 -1</clus>
<clus scale="   90.875">  7  8 -1 -1</clus>
<clus scale="   96.624">  2  5  1 -1</clus>
<clus scale="   25.151">  1  5  2 -1</clus>
</clustering>
</event>
<event>
10    2  0.3984345E-006  0.9882712E+02  0.7546771E-02  0.1284230E+00
          3   -1    0    0  503    0 -0.00000000000E+00  0.00000000000E+00  0.47451156230E+03  0.47451156230E+03  0.00000000000E+00 0. -1.
         21   -1    0    0  501  502  0.00000000000E+00 -0.00000000000E+00 -0.61674554105E+02  0.61674554105E+02  0.00000000000E+00 0. -1.
         23    2    1    2    0    0 -0.24349576176E+02 -0.17422044850E+02  0.30669242790E+03  0.32202544108E+03  0.93507806427E+02 0.  0.
         23    2    1    2    0    0  0.14277866538E+02  0.44941299806E+02  0.53274144907E+02  0.11525906909E+03  0.90680431131E+02 0.  0.
        -11    1    4    4    0    0 -0.29854572852E+02  0.18206333583E+02  0.53196457979E+02  0.63660264249E+02  0.00000000000E+00 0.  1.
         11    1    4    4    0    0  0.44132439390E+02  0.26734966223E+02  0.77686928051E-01  0.51598804838E+02  0.00000000000E+00 0. -1.
        -13    1    3    3    0    0  0.33659380015E+02 -0.19505769362E+02  0.98854151143E+02  0.10623357332E+03  0.00000000000E+00 0.  1.
         13    1    3    3    0    0 -0.58008956191E+02  0.20837245115E+01  0.20783827676E+03  0.21579186776E+03  0.00000000000E+00 0. -1.
         21    1    1    2  503  502  0.35549465260E+02 -0.41395131683E+02  0.35151869861E+02  0.64907436878E+02  0.00000000000E+00 0. -1.
          3    1    1    2  501    0 -0.25477755623E+02  0.13875876727E+02  0.17718565532E+02  0.33994169368E+02  0.00000000000E+00 0. -1.
<scales pt_clust_5="13000.00000" pt_clust_6="13000.00000" pt_clust_7="13000.00000" pt_clust_8="13000.00000" pt_clust_9="47.11345" pt_clust_10="29.01131"></scales>
<clustering>
<clus scale="   29.011">  2 10  1 -1</clus>
<clus scale="   47.113">  2  9  1 -1</clus>
<clus scale="   90.680">  5  6 -1 -1</clus>
<clus scale="   93.508">  7  8 -1 -1</clus>
<clus scale="   96.156">  2  5  1 -1</clus>
<clus scale="   29.011">  2  5  1 -1</clus>
</clustering>
</event>
<event>
10    2  0.3984345E-006  0.1431861E+03  0.7546771E-02  0.1223175E+00
          2   -1    0    0  503    0 -0.00000000000E+00  0.00000000000E+00  0.10282007057E+04  0.10282007057E+04  0.00000000000E+00 0. -1.
         21   -1    0    0  501  502  0.00000000000E+00 -0.00000000000E+00 -0.71543457977E+02  0.71543457977E+02  0.00000000000E+00 0.  1.
         23    2    1    2    0    0 -0.13511598096E+03 -0.14994594970E+02  0.22282090844E+03  0.27677463398E+03  0.92053650576E+02 0.  0.
         23    2    1    2    0    0  0.29032173772E+02  0.30832529413E+02  0.11803008571E+03  0.15648823968E+03  0.93616003116E+02 0.  0.
        -11    1    4    4    0    0  0.23991364964E+02  0.85895003159E+00 -0.91765332898E+01  0.25700820049E+02  0.00000000000E+00 0.  1.
         11    1    4    4    0    0  0.50408088087E+01  0.29973579381E+02  0.12720661900E+03  0.13078741963E+03  0.00000000000E+00 0. -1.
        -11    1    3    3    0    0 -0.13629535569E+03 -0.36444024919E+02  0.17851017694E+03  0.22753125985E+03  0.00000000000E+00 0.  1.
         11    1    3    3    0    0  0.11793747261E+01  0.21449429949E+02  0.44310731498E+02  0.49243374131E+02  0.00000000000E+00 0. -1.
         21    1    1    2  503  502  0.10009652554E+03 -0.38964627938E+02  0.62973371549E+03  0.63882870089E+03  0.00000000000E+00 0. -1.
          2    1    1    2  501    0  0.59872816516E+01  0.23126693495E+02 -0.13927461882E+02  0.27652589175E+02  0.00000000000E+00 0. -1.
<scales pt_clust_5="13000.00000" pt_clust_6="13000.00000" pt_clust_7="13000.00000" pt_clust_8="13000.00000" pt_clust_9="109.67401" pt_clust_10="23.88915"></scales>
<clustering>
<clus scale="   23.889">  2 10  1 -1</clus>
<clus scale="   92.054">  7  8 -1 -1</clus>
<clus scale="   93.616">  5  6 -1 -1</clus>
<clus scale="  106.355">  2  5  1 -1</clus>
<clus scale="  109.674">  1  9  2 -1</clus>
<clus scale="   23.889">  2  5  1 -1</clus>
</clustering>
</event>
<event>
10    2  0.3984345E-006  0.1001322E+03  0.7546771E-02  0.1280068E+00
          2   -1    0    0  503    0 -0.00000000000E+00  0.00000000000E+00  0.41232908769E+03  0.41232908769E+03  0.00000000000E+00 0. -1.
         21   -1    0    0  501  502  0.00000000000E+00 -0.00000000000E+00 -0.16559612083E+03  0.16559612083E+03  0.00000000000E+00 0. -1.
         23    2    1    2    0    0 -0.19867329579E+02  0.40640572182E+02  0.21520096041E+03  0.23763020110E+03  0.90057160849E+02 0.  0.
         23    2    1    2    0    0 -0.31205768783E+02 -0.44856176867E+02  0.13043137439E+02  0.10605264084E+03  0.89950889863E+02 0.  0.
        -11    1    4    4    0    0  0.29783431598E+02 -0.34101172361E+01  0.12043411462E+02  0.32306740117E+02  0.00000000000E+00 0.  1.
         11    1    4    4    0    0 -0.60989200381E+02 -0.41446059631E+02  0.99972597644E+00  0.73745900727E+02  0.00000000000E+00 0. -1.
        -13    1    3    3    0    0 -0.24308827294E+02  0.62339486766E+02  0.19965840497E+03  0.21057210017E+03  0.00000000000E+00 0. -1.
         13    1    3    3    0    0  0.44414977151E+01 -0.21698914584E+02  0.15542555433E+02  0.27058100921E+02  0.00000000000E+00 0.  1.
         21    1    1    2  503  502  0.31170260091E+02  0.21231410375E+01  0.12347478305E+03  0.12736606648E+03  0.00000000000E+00 0. -1.
          2    1    1    2  501    0  0.19902838270E+02  0.20924636470E+01 -0.10498591404E+03  0.10687630010E+03  0.00000000000E+00 0. -1.
<scales pt_clust_5="13000.00000" pt_clust_6="13000.00000" pt_clust_7="13000.00000" pt_clust_8="13000.00000" pt_clust_9="31.89465" pt_clust_10="20.01253"></scales>
<clustering>
<clus scale="   20.013">  2 10  1 -1</clus>
<clus scale="   31.895">  1  9  2 -1</clus>
<clus scale="   89.951">  5  6 -1 -1</clus>
<clus scale="   90.057">  7  8 -1 -1</clus>
<clus scale="  100.037">  2  5  1 -1</clus>
<clus scale="   20.013">  2  5  1 -1</clus>
</clustering>
</event>
<event>
10    2  0.3984345E-006  0.1195707E+03  0.7546771E-02  0.1244749E+00
         21   -1    0    0  501  502  0.00000000000E+00  0.00000000000E+00  0.16333803582E+03  0.16333803582E+03  0.00000000000E+00 0. -1.
          1   -1    0    0  503    0 -0.00000000000E+00 -0.00000000000E+00 -0.92492284748E+03  0.92492284748E+03  0.00000000000E+00 0. -1.
         23    2    1    2    0    0  0.19830478647E+02 -0.33345206551E+02 -0.15849253359E+03  0.18803838383E+03  0.93452661306E+02 0.  0.
         23    2    1    2    0    0 -0.67243527981E+02  0.10273192726E+03 -0.17761343469E+03  0.23414241609E+03  0.90557152650E+02 0.  0.
        -13    1    4    4    0    0 -0.38045195623E+02 -0.60724264895E+01 -0.32296164352E+02  0.50272790904E+02  0.00000000000E+00 0.  1.
         13    1    4    4    0    0 -0.29198332359E+02  0.10880435375E+03 -0.14531727034E+03  0.18386962519E+03  0.00000000000E+00 0. -1.
        -13    1    3    3    0    0  0.45897823980E+02 -0.18051232997E+01 -0.13079857356E+03  0.13862949023E+03  0.00000000000E+00 0.  1.
         13    1    3    3    0    0 -0.26067345333E+02 -0.31540083251E+02 -0.27693960027E+02  0.49408893594E+02  0.00000000000E+00 0. -1.
         21    1    1    2  503  502  0.67721515258E+02  0.16172377366E+02 -0.52710872778E+03  0.53168727681E+03  0.00000000000E+00 0.  1.
          1    1    1    2  501    0 -0.20308465925E+02 -0.85559098076E+02  0.10162988440E+03  0.13439280656E+03  0.00000000000E+00 0. -1.
<scales pt_clust_5="13000.00000" pt_clust_6="13000.00000" pt_clust_7="13000.00000" pt_clust_8="13000.00000" pt_clust_9="69.62578" pt_clust_10="86.67507"></scales>
<clustering>
<clus scale="   69.626">  2  9  1 -1</clus>
<clus scale="   86.675">  1 10  2 -1</clus>
<clus scale="   90.557">  5  6 -1 -1</clus>
<clus scale="   93.453">  7  8 -1 -1</clus>
<clus scale="  117.322">  1  5  2 -1</clus>
<clus scale="   86.675">  1  5  2 -1</clus>
</clustering>
</event>
<event>
10    2  0.3984345E-006  0.1037176E+03  0.7546771E-02  0.1273955E+00
         21   -1    0    0  501  502  0.00000000000E+00  0.00000000000E+00  0.23985979766E+02  0.23985979766E+02  0.00000000000E+00 0.  1.
          1   -1    0    0  503    0 -0.00000000000E+00 -0.00000000000E+00 -0.14897203658E+04  0.14897203658E+04  0.00000000000E+00 0. -1.
         23    2    1    2    0    0 -0.26663446854E+02 -0.48601473158E+01 -0.45863250638E+03  0.46861434658E+03  0.92309639149E+02 0.  0.
         23    2    1    2    0    0  0.79106561744E+02 -0.56855079516E+02 -0.50477139624E+03  0.52180977227E+03  0.89447905436E+02 0.  0.
        -11    1    3    3    0    0 -0.57488522437E+02 -0.21162732432E+02 -0.28324116850E+03  0.28979018443E+03  0.00000000000E+00 0. -1.
         11    1    3    3    0    0  0.30825075583E+02  0.16302585117E+02 -0.17539133788E+03  0.17882416215E+03  0.00000000000E+00 0.  1.
        -13    1    4    4    0    0 -0.72361449984E+01 -0.43920280438E+02 -0.15096098842E+03  0.15738669847E+03  0.00000000000E+00 0. -1.
         13    1    4    4    0    0  0.86342706743E+02 -0.12934799078E+02 -0.35381040782E+03  0.36442307380E+03  0.00000000000E+00 0.  1.
         21    1    1    2  503  502  0.31292231891E+02  0.22623039229E+02 -0.27791471792E+03  0.28058438324E+03  0.00000000000E+00 0. -1.
          1    1    1    2  501    0 -0.83735346781E+02  0.39092187603E+02 -0.22441576549E+03  0.24269784349E+03  0.00000000000E+00 0. -1.
<scales pt_clust_5="13000.00000" pt_clust_6="13000.00000" pt_clust_7="13000.00000" pt_clust_8="13000.00000" pt_clust_9="38.61354" pt_clust_10="89.02499"></scales>
<clustering>
<clus scale="   38.614">  2  9  1 -1</clus>
<clus scale="   89.025">  1 10  2 -1</clus>
<clus scale="   89.448">  7  8 -1 -1</clus>
<clus scale="   92.310">  5  6 -1 -1</clus>
<clus scale="  101.179">  1  7  2 -1</clus>
<clus scale="   89.025">  1  5  2 -1</clus>
</clustering>
</event>
<event>
10    2  0.3984345E-006  0.9617446E+02  0.7546771E-02  0.1288813E+00
         21   -1    0    0  501  502  0.00000000000E+00  0.00000000000E+00  0.11966541438E+03  0.11966541438E+03  0.00000000000E+00 0. -1.
          1   -1    0    0  503    0 -0.00000000000E+00 -0.00000000000E+00 -0.44791125443E+03  0.44791125443E+03  0.00000000000E+00 0. -1.
         23    2    1    2    0    0 -0.18013410420E+01  0.36892107422E+02 -0.14355395990E+03  0.17423865090E+03  0.91581087803E+02 0.  0.
         23    2    1    2    0    0  0.71998403991E+02  0.22762092346E+02 -0.93541357627E+02  0.15082736910E+03  0.91088015987E+02 0.  0.
        -11    1    3    3    0    0 -0.39982629463E+02 -0.66772884377E+01 -0.52706537969E+02  0.66491924204E+02  0.00000000000E+00 0.  1.
         11    1    3    3    0    0  0.38181288421E+02  0.43569395859E+02 -0.90847421934E+02  0.10774672669E+03  0.00000000000E+00 0. -1.
        -11    1    4    4    0    0  0.67083835169E+02 -0.16680102549E+02 -0.86055758098E+02  0.11038143079E+03  0.00000000000E+00 0. -1.
         11    1    4    4    0    0  0.49145688211E+01  0.39442194895E+02 -0.74855995288E+01  0.40445938302E+02  0.00000000000E+00 0.  1.
         21    1    1    2  503  502 -0.52371467142E+01 -0.29259789932E+02 -0.14802343349E+03  0.15097847487E+03  0.00000000000E+00 0.  1.
          1    1    1    2  501    0 -0.64959916234E+02 -0.30394409836E+02  0.56872910970E+02  0.91532173953E+02  0.00000000000E+00 0. -1.
<scales pt_clust_5="13000.00000" pt_clust_6="13000.00000" pt_clust_7="13000.00000" pt_clust_8="13000.00000" pt_clust_9="29.72479" pt_clust_10="72.72824"></scales>
<clustering>
<clus scale="   29.725">  2  9  1 -1</clus>
<clus scale="   72.728">  1 10  2 -1</clus>
<clus scale="   91.088">  7  8 -1 -1</clus>
<clus scale="   91.581">  5  6 -1 -1</clus>
<clus scale="   95.705">  1  7  2 -1</clus>
<clus scale="   72.728">  1  5  2 -1</clus>
</clustering>
</event>
<event>
10    2  0.3984345E-006  0.1232737E+03  0.7546771E-02  0.1238614E+00
         -2   -1    0    0    0  501 -0.00000000000E+00  0.00000000000E+00  0.14438537835E+03  0.14438537835E+03  0.00000000000E+00 0.  1.
         21   -1    0    0  503  502  0.00000000000E+00 -0.00000000000E+00 -0.26492406030E+03  0.26492406030E+03  0.00000000000E+00 0.  1.
         23    2    1    2    0    0 -0.12543757097E+02  0.78258520951E+02 -0.37114037617E+01  0.11852559450E+03  0.88049986310E+02 0.  0.
         23    2    1    2    0    0  0.73394349379E+02 -0.79996107075E+02 -0.25939768150E+02  0.14391796153E+03  0.90848227351E+02 0.  0.
        -11    1    4    4    0    0  0.79974480121E+02 -0.22047920471E+02 -0.19696311625E+02  0.85264136420E+02  0.00000000000E+00 0.  1.
         11    1    4    4    0    0 -0.65801307425E+01 -0.57948186604E+02 -0.62434565256E+01  0.58653825115E+02  0.00000000000E+00 0. -1.
        -13    1    3    3    0    0 -0.45737430398E+02  0.65939674492E+02 -0.14422502356E+02  0.81535034100E+02  0.00000000000E+00 0.  1.
         13    1    3    3    0    0  0.33193673301E+02  0.12318846460E+02  0.10711098594E+02  0.36990560396E+02  0.00000000000E+00 0. -1.
         21    1    1    2  503  501  0.78064914039E+01 -0.31263186034E+02 -0.59411334456E+01  0.32766220039E+02  0.00000000000E+00 0.  1.
         -2    1    1    2    0  502 -0.68657083686E+02  0.33000772158E+02 -0.84946376593E+02  0.11409966257E+03  0.00000000000E+00 0.  1.
<scales pt_clust_5="13000.00000" pt_clust_6="13000.00000" pt_clust_7="13000.00000" pt_clust_8="13000.00000" pt_clust_9="32.22310" pt_clust_10="73.93752"></scales>
<clustering>
<clus scale="   32.223">  1  9  2 -1</clus>
<clus scale="   73.938">  2 10  1 -1</clus>
<clus scale="   88.050">  7  8 -1 -1</clus>
<clus scale="   90.848">  5  6 -1 -1</clus>
<clus scale="  121.226">  1  7  2 -1</clus>
<clus scale="   73.938">  2  5  1 -1</clus>
</clustering>
</event>
<event>
10    2  0.3984345E-006  0.1356567E+03  0.7546771E-02  0.1219725E+00
         -1   -1    0    0    0  501 -0.00000000000E+00  0.00000000000E+00  0.29089987509E+03  0.29089987509E+03  0.00000000000E+00 0.  1.
         21   -1    0    0  503  502  0.00000000000E+00 -0.00000000000E+00 -0.14168213044E+03  0.14168213044E+03  0.00000000000E+00 0.  1.
         23    2    1    2    0    0 -0.10073176499E+03  0.60843577703E+02  0.10214782260E+03  0.18103385603E+03  0.92142552289E+02 0.  0.
         23    2    1    2    0    0  0.65150242420E+02 -0.52563799815E+02  0.76279115506E+02  0.14486813865E+03  0.90336963615E+02 0.  0.
        -11    1    3    3    0    0 -0.13581693744E+02 -0.23619155631E+02  0.26599837815E+02  0.38077267358E+02  0.00000000000E+00 0. -1.
         11    1    3    3    0    0 -0.87150071247E+02  0.84462733334E+02  0.75547984788E+02  0.14295658868E+03  0.00000000000E+00 0.  1.
        -13    1    4    4    0    0  0.83092680224E+02 -0.28925088155E+02  0.74242026527E+02  0.11512138261E+03  0.00000000000E+00 0. -1.
         13    1    4    4    0    0 -0.17942437804E+02 -0.23638711660E+02  0.20370889786E+01  0.29746756038E+02  0.00000000000E+00 0.  1.
         21    1    1    2  503  501  0.81951032921E+01 -0.20206017399E+02  0.31912161130E+02  0.38650082601E+02  0.00000000000E+00 0.  1.
         -1    1    1    2    0  502  0.27386419278E+02  0.11926239511E+02 -0.61121354590E+02  0.68029928243E+02  0.00000000000E+00 0.  1.
<scales pt_clust_5="13000.00000" pt_clust_6="13000.00000" pt_clust_7="13000.00000" pt_clust_8="13000.00000" pt_clust_9="21.80465" pt_clust_10="29.86454"></scales>
<clustering>
<clus scale="   21.805">  1  9  2 -1</clus>
<clus scale="   29.865">  2 10  1 -1</clus>
<clus scale="   90.337">  7  8 -1 -1</clus>
<clus scale="   92.143">  5  6 -1 -1</clus>
<clus scale="  134.437">  2  7  1 -1</clus>
<clus scale="   29.865">  2  5  1 -1</clus>
</clustering>
</event>
<event>
10    2  0.3984345E-006  0.1882834E+03  0.7546771E-02  0.1160350E+00
          2   -1    0    0  503    0 -0.00000000000E+00  0.00000000000E+00  0.28392445537E+03  0.28392445537E+03  0.00000000000E+00 0. -1.
         21   -1    0    0  501  502  0.00000000000E+00 -0.00000000000E+00 -0.38026666203E+03  0.38026666203E+03  0.00000000000E+00 0. -1.
         23    2    1    2    0    0 -0.12201519328E+03 -0.95500693893E+02  0.15901044582E+03  0.24084817484E+03  0.93356475510E+02 0.  0.
         23    2    1    2    0    0  0.11843813918E+03  0.79378132597E+02 -0.89570826624E+02  0.19111552901E+03  0.90408692600E+02 0.  0.
        -11    1    4    4    0    0  0.63282160057E+02  0.77751303827E+02 -0.19840946104E+02  0.10219373841E+03  0.00000000000E+00 0. -1.
         11    1    4    4    0    0  0.55155979127E+02  0.16268287691E+01 -0.69729880520E+02  0.88921790595E+02  0.00000000000E+00 0.  1.
        -11    1    3    3    0    0 -0.61651838609E+02 -0.52522299503E+02  0.20160152967E+02  0.83462404211E+02  0.00000000000E+00 0.  1.
         11    1    3    3    0    0 -0.60363354671E+02 -0.42978394390E+02  0.13885029286E+03  0.15738577063E+03  0.00000000000E+00 0. -1.
         21    1    1    2  503  502 -0.27254572031E+02 -0.27987125333E+01  0.25575999082E+02  0.37480344415E+02  0.00000000000E+00 0. -1.
          2    1    1    2  501    0  0.30831626127E+02  0.18921273829E+02 -0.19135782493E+03  0.19474706913E+03  0.00000000000E+00 0. -1.
<scales pt_clust_5="13000.00000" pt_clust_6="13000.00000" pt_clust_7="13000.00000" pt_clust_8="13000.00000" pt_clust_9="27.39789" pt_clust_10="36.00893"></scales>
<clustering>
<clus scale="   27.398">  1  9  2 -1</clus>
<clus scale="   36.009">  2 10  1 -1</clus>
<clus scale="   90.409">  5  6 -1 -1</clus>
<clus scale="   93.356">  7  8 -1 -1</clus>
<clus scale="  186.839">  2  5  1 -1</clus>
<clus scale="   36.009">  2  5  1 -1</clus>
</clustering>
</event>
<event>
10    2  0.3984345E-006  0.1391422E+03  0.7546771E-02  0.1214958E+00
          1   -1    0    0  503    0 -0.00000000000E+00  0.00000000000E+00  0.38503760038E+03  0.38503760038E+03  0.00000000000E+00 0. -1.
         21   -1    0    0  501  502  0.00000000000E+00 -0.00000000000E+00 -0.14693319867E+03  0.14693319867E+03  0.00000000000E+00 0. -1.
         23    2    1    2    0    0 -0.39599201277E+02  0.93507981261E+02  0.18705417655E+03  0.23249551552E+03  0.93557792149E+02 0.  0.
         23    2    1    2    0    0 -0.44970437411E+01 -0.11118158832E+03  0.12264770927E+03  0.18919732311E+03  0.91496434349E+02 0.  0.
        -11    1    3    3    0    0  0.25911212884E+02  0.18897430723E+02  0.81494038833E+02  0.87577292755E+02  0.00000000000E+00 0.  1.
         11    1    3    3    0    0 -0.65510414160E+02  0.74610550538E+02  0.10556013772E+03  0.14491822277E+03  0.00000000000E+00 0. -1.
        -11    1    4    4    0    0  0.36765843852E+02 -0.76617731243E+02  0.98811443056E+02  0.13032921888E+03  0.00000000000E+00 0.  1.
         11    1    4    4    0    0 -0.41262887593E+02 -0.34563857075E+02  0.23836266215E+02  0.58868104229E+02  0.00000000000E+00 0. -1.
         21    1    1    2  503  502  0.12460053476E+02  0.16676787861E+02  0.97514701083E+01  0.22988243849E+02  0.00000000000E+00 0. -1.
          1    1    1    2  501    0  0.31636191542E+02  0.99681919576E+00 -0.81348954225E+02  0.87289716561E+02  0.00000000000E+00 0. -1.
<scales pt_clust_5="13000.00000" pt_clust_6="13000.00000" pt_clust_7="13000.00000" pt_clust_8="13000.00000" pt_clust_9="20.81750" pt_clust_10="40.64575"></scales>
<clustering>
<clus scale="   20.817">  2  9  1 -1</clus>
<clus scale="   40.646">  2 10  1 -1</clus>
<clus scale="   91.496">  7  8 -1 -1</clus>
<clus scale="   93.558">  5  6 -1 -1</clus>
<clus scale="  137.765">  2  7  1 -1</clus>
<clus scale="   20.817">  2  5  1 -1</clus>
</clustering>
</event>
<event>
10    2  0.3984345E-006  0.1417146E+03  0.7546771E-02  0.1211366E+00
         -3   -1    0    0    0  501 -0.00000000000E+00  0.00000000000E+00  0.35623753880E+03  0.35623753880E+03  0.00000000000E+00 0.  1.
         21   -1    0    0  503  502  0.00000000000E+00 -0.00000000000E+00 -0.26124226194E+03  0.26124226194E+03  0.00000000000E+00 0.  1.
         23    2    1    2    0    0 -0.76275764820E+02 -0.93436680375E+02 -0.20992674422E+02  0.15171734367E+03  0.89604991231E+02 0.  0.
         23    2    1    2    0    0  0.77875495290E+02  0.57713501427E+02 -0.46455487481E+02  0.14092304373E+03  0.91135892623E+02 0.  0.
        -11    1    3    3    0    0 -0.52973231972E+02 -0.43700050738E+02  0.31671436942E+02  0.75623658057E+02  0.00000000000E+00 0.  1.
         11    1    3    3    0    0 -0.23302532848E+02 -0.49736629637E+02 -0.52664111365E+02  0.76093685616E+02  0.00000000000E+00 0. -1.
        -11    1    4    4    0    0  0.29954583051E+02 -0.44564286022E+01 -0.54158553446E+02  0.62050670528E+02  0.00000000000E+00 0. -1.
         11    1    4    4    0    0  0.47920912239E+02  0.62169930029E+02  0.77030659652E+01  0.78872373205E+02  0.00000000000E+00 0.  1.
         21    1    1    2  503  501 -0.38343492702E+02  0.33904745736E+02  0.23659251991E+03  0.24206564335E+03  0.00000000000E+00 0.  1.
         -3    1    1    2    0  502  0.36743762232E+02  0.18184332122E+01 -0.74149081142E+02  0.82773769979E+02  0.00000000000E+00 0.  1.
<scales pt_clust_5="13000.00000" pt_clust_6="13000.00000" pt_clust_7="13000.00000" pt_clust_8="13000.00000" pt_clust_9="50.79092" pt_clust_10="36.78873"></scales>
<clustering>
<clus scale="   36.789">  2 10  1 -1</clus>
<clus scale="   50.791">  1  9  2 -1</clus>
<clus scale="   89.605">  5  6 -1 -1</clus>
<clus scale="   91.136">  7  8 -1 -1</clus>
<clus scale="  140.735">  1  5  2 -1</clus>
<clus scale="   36.789">  2  5  1 -1</clus>
</clustering>
</event>
<event>
10    2  0.3984345E-006  0.1266507E+03  0.7546771E-02  0.1235991E+00
         21   -1    0    0  501  502  0.00000000000E+00  0.00000000000E+00  0.23263017427E+03  0.23263017427E+03  0.00000000000E+00 0.  1.
          2   -1    0    0  503    0 -0.00000000000E+00 -0.00000000000E+00 -0.30981874396E+03  0.30981874396E+03  0.00000000000E+00 0. -1.
         23    2    1    2    0    0  0.22171862582E+02  0.11514097548E+03 -0.15770318784E+03  0.22092014835E+03  0.10092760162E+03 0.  0.
         23    2    1    2    0    0 -0.33088234088E+02 -0.74357757719E+02  0.92355957147E+02  0.15233954800E+03  0.89743009185E+02 0.  0.
        -11    1    4    4    0    0 -0.26348367009E+02 -0.95371834598E+02  0.78261678960E+02  0.12615432483E+03  0.00000000000E+00 0.  1.
         11    1    4    4    0    0 -0.67398670791E+01  0.21014076879E+02  0.14094278186E+02  0.26185223178E+02  0.00000000000E+00 0. -1.
        -13    1    3    3    0    0  0.34719353420E+01  0.32893479934E+02  0.88390191515E+01  0.34236875102E+02  0.00000000000E+00 0.  1.
         13    1    3    3    0    0  0.18699927240E+02  0.82247495551E+02 -0.16654220699E+03  0.18668327325E+03  0.00000000000E+00 0. -1.
         21    1    1    2  503  502 -0.23883175731E+02 -0.47459301411E+02 -0.77861280294E+02  0.94261181524E+02  0.00000000000E+00 0.  1.
          2    1    1    2  501    0  0.34799547238E+02  0.66760836449E+01  0.66019941300E+02  0.74928040346E+02  0.00000000000E+00 0. -1.
<scales pt_clust_5="13000.00000" pt_clust_6="13000.00000" pt_clust_7="13000.00000" pt_clust_8="13000.00000" pt_clust_9="52.05671" pt_clust_10="35.43414"></scales>
<clustering>
<clus scale="   35.434">  1 10  2 -1</clus>
<clus scale="   52.057">  2  9  1 -1</clus>
<clus scale="   89.743">  5  6 -1 -1</clus>
<clus scale="  100.928">  7  8 -1 -1</clus>
<clus scale="  117.931">  1  5  2 -1</clus>
<clus scale="   35.434">  1  5  2 -1</clus>
</clustering>
</event>
<event>
10    2  0.3984345E-006  0.9600975E+02  0.7546771E-02  0.1297290E+00
          1   -1    0    0  503    0 -0.00000000000E+00  0.00000000000E+00  0.24063822119E+03  0.24063822119E+03  0.00000000000E+00 0. -1.
         21   -1    0    0  501  502  0.00000000000E+00 -0.00000000000E+00 -0.48061688446E+03  0.48061688446E+03  0.00000000000E+00 0. -1.
         23    2    1    2    0    0  0.18145002596E+02 -0.15430413087E+02  0.13021350601E+03  0.15948607264E+03  0.88954547123E+02 0.  0.
         23    2    1    2    0    0  0.30360120265E+02  0.25719622894E+02 -0.72313707333E+02  0.11069984518E+03  0.73769557069E+02 0.  0.
        -11    1    3    3    0    0  0.33411974910E+02  0.12069813431E+02  0.12527636605E+02  0.37669379376E+02  0.00000000000E+00 0.  1.
         11    1    3    3    0    0 -0.15266972314E+02 -0.27500226517E+02  0.11768586940E+03  0.12181669327E+03  0.00000000000E+00 0. -1.
        -11    1    4    4    0    0  0.36224807699E+02  0.27167848303E+01 -0.78214494275E+02  0.86238765804E+02  0.00000000000E+00 0. -1.
         11    1    4    4    0    0 -0.58646874343E+01  0.23002838064E+02  0.59007869418E+01  0.24461079375E+02  0.00000000000E+00 0.  1.
         21    1    1    2  503  502 -0.37579993819E+01 -0.26048962296E+02  0.72777157535E+02  0.77389829144E+02  0.00000000000E+00 0. -1.
          1    1    1    2  501    0 -0.44747123479E+02  0.15759752489E+02 -0.37065561948E+03  0.37367935869E+03  0.00000000000E+00 0. -1.
<scales pt_clust_5="13000.00000" pt_clust_6="13000.00000" pt_clust_7="13000.00000" pt_clust_8="13000.00000" pt_clust_9="26.31864" pt_clust_10="47.39521"></scales>
<clustering>
<clus scale="   26.319">  1  9  2 -1</clus>
<clus scale="   47.395">  2 10  1 -1</clus>
<clus scale="   73.770">  7  8 -1 -1</clus>
<clus scale="   82.140">  2  7  1 -1</clus>
<clus scale="   88.955">  5  6 -1 -1</clus>
<clus scale="   47.395">  2  5  1 -1</clus>
</clustering>
</event>
<event>
10    2  0.3984345E-006  0.1074638E+03  0.7546771E-02  0.1266036E+00
         21   -1    0    0  501  502  0.00000000000E+00  0.00000000000E+00  0.14098757148E+03  0.14098757148E+03  0.00000000000E+00 0.  1.
          1   -1    0    0  503    0 -0.00000000000E+00 -0.00000000000E+00 -0.37151438170E+03  0.37151438170E+03  0.00000000000E+00 0. -1.
         23    2    1    2    0    0 -0.41134077685E+02 -0.39463678532E+01 -0.19577267182E+03  0.22022771860E+03  0.92009362795E+02 0.  0.
         23    2    1    2    0    0  0.93918923476E+02  0.67714184688E+01  0.45823930086E+02  0.13828653611E+03  0.90314545920E+02 0.  0.
        -11    1    3    3    0    0 -0.25221315810E+02 -0.33541019523E+02 -0.17664907832E+03  0.18156544725E+03  0.00000000000E+00 0. -1.
         11    1    3    3    0    0 -0.15912761875E+02  0.29594651669E+02 -0.19123593499E+02  0.38662271354E+02  0.00000000000E+00 0.  1.
        -11    1    4    4    0    0  0.21519726340E+02 -0.37593379615E+02  0.36271732418E+01  0.43468577137E+02  0.00000000000E+00 0. -1.
         11    1    4    4    0    0  0.72399197137E+02  0.44364798083E+02  0.42196756844E+02  0.94817958969E+02  0.00000000000E+00 0.  1.
         21    1    1    2  503  502 -0.73879302885E+01 -0.18729848935E+02 -0.10007785366E+03  0.10208313058E+03  0.00000000000E+00 0. -1.
          1    1    1    2  501    0 -0.45396915502E+02  0.15904798319E+02  0.19499785177E+02  0.51904567898E+02  0.00000000000E+00 0. -1.
<scales pt_clust_5="13000.00000" pt_clust_6="13000.00000" pt_clust_7="13000.00000" pt_clust_8="13000.00000" pt_clust_9="20.13427" pt_clust_10="48.16420"></scales>
<clustering>
<clus scale="   20.134">  2  9  1 -1</clus>
<clus scale="   48.164">  1 10  2 -1</clus>
<clus scale="   90.315">  7  8 -1 -1</clus>
<clus scale="   92.009">  5  6 -1 -1</clus>
<clus scale="  106.016">  1  7  2 -1</clus>
<clus scale="   48.164">  1  5  2 -1</clus>
</clustering>
</event>
<event>
10    2  0.3984345E-006  0.2258929E+03  0.7546771E-02  0.1129752E+00
          3   -1    0    0  503    0 -0.00000000000E+00  0.00000000000E+00  0.80556817314E+03  0.80556817314E+03  0.00000000000E+00 0. -1.
         21   -1    0    0  501  502  0.00000000000E+00 -0.00000000000E+00 -0.22231750988E+03  0.22231750988E+03  0.00000000000E+00 0. -1.
         23    2    1    2    0    0  0.20471445442E+03  0.11516215236E+03  0.22129697257E+03  0.33492164474E+03  0.89609312365E+02 0.  0.
         23    2    1    2    0    0 -0.15049690035E+03 -0.18065449557E+03  0.15426967252E+03  0.29594393830E+03  0.92186327474E+02 0.  0.
        -11    1    4    4    0    0 -0.10347742799E+03 -0.12013945913E+03  0.15143452622E+03  0.21925666119E+03  0.00000000000E+00 0. -1.
         11    1    4    4    0    0 -0.47019472352E+02 -0.60515036445E+02  0.28351462982E+01  0.76687277111E+02  0.00000000000E+00 0.  1.
        -11    1    3    3    0    0  0.20183643300E+03  0.82208998298E+02  0.18563798566E+03  0.28628259955E+03  0.00000000000E+00 0.  1.
         11    1    3    3    0    0  0.28780214296E+01  0.32953154060E+02  0.35658986904E+02  0.48639045189E+02  0.00000000000E+00 0. -1.
         21    1    1    2  503  502 -0.13302190175E+03 -0.28182500759E+02  0.23508525658E+03  0.27157716685E+03  0.00000000000E+00 0. -1.
          3    1    1    2  501    0  0.78804347673E+02  0.93674843975E+02 -0.27401238404E+02  0.12544293313E+03  0.00000000000E+00 0. -1.
<scales pt_clust_5="13000.00000" pt_clust_6="13000.00000" pt_clust_7="13000.00000" pt_clust_8="13000.00000" pt_clust_9="124.26245" pt_clust_10="122.41365"></scales>
<clustering>
<clus scale="   89.609">  7  8 -1 -1</clus>
<clus scale="   92.186">  5  6 -1 -1</clus>
<clus scale="  122.414">  2 10  1 -1</clus>
<clus scale="  124.262">  1  9  2 -1</clus>
<clus scale="  224.854">  1  7  2 -1</clus>
<clus scale="  122.414">  2  5  1 -1</clus>
</clustering>
</event>
<event>
10    2  0.3984345E-006  0.1001701E+03  0.7546771E-02  0.1280972E+00
         21   -1    0    0  503  502  0.00000000000E+00  0.00000000000E+00  0.47386926070E+02  0.47386926070E+02  0.00000000000E+00 0. -1.
         -1   -1    0    0    0  501 -0.00000000000E+00 -0.00000000000E+00 -0.45106161402E+03  0.45106161402E+03  0.00000000000E+00 0.  1.
         23    2    1    2    0    0  0.18560339202E+02 -0.32243231835E+02 -0.24218564128E+03  0.26250610863E+03  0.94188428356E+02 0.  0.
         23    2    1    2    0    0 -0.10294219978E+02 -0.45084930921E+01 -0.54628756893E+02  0.11121489052E+03  0.96219298058E+02 0.  0.
        -13    1    4    4    0    0 -0.43127704133E+02  0.22029765493E+02 -0.93775007975E+01  0.49327953056E+02  0.00000000000E+00 0. -1.
         13    1    4    4    0    0  0.32833484155E+02 -0.26538258585E+02 -0.45251256095E+02  0.61886937464E+02  0.00000000000E+00 0.  1.
        -13    1    3    3    0    0 -0.25160451886E+02 -0.31477206177E+02 -0.44467034678E+02  0.60009832701E+02  0.00000000000E+00 0. -1.
         13    1    3    3    0    0  0.43720791088E+02 -0.76602565748E+00 -0.19771860660E+03  0.20249627593E+03  0.00000000000E+00 0.  1.
         21    1    1    2  503  501 -0.25777297710E+02  0.77913630717E+01 -0.27680702937E+02  0.38618593071E+02  0.00000000000E+00 0. -1.
         -1    1    1    2    0  502  0.17511178486E+02  0.28960361855E+02 -0.79179586839E+02  0.86108947867E+02  0.00000000000E+00 0.  1.
<scales pt_clust_5="13000.00000" pt_clust_6="13000.00000" pt_clust_7="13000.00000" pt_clust_8="13000.00000" pt_clust_9="26.92906" pt_clust_10="33.36137"></scales>
<clustering>
<clus scale="   26.929">  1  9  2 -1</clus>
<clus scale="   33.361">  1 10  2 -1</clus>
<clus scale="   94.188">  7  8 -1 -1</clus>
<clus scale="   96.219">  5  6 -1 -1</clus>
<clus scale="   98.221">  2  7  1 -1</clus>
<clus scale="   26.929">  1  5  2 -1</clus>
</clustering>
</event>
<event>
10    2  0.3984345E-006  0.1659710E+03  0.7546771E-02  0.1182678E+00
         -1   -1    0    0    0  501 -0.00000000000E+00  0.00000000000E+00  0.80985745735E+03  0.80985745735E+03  0.00000000000E+00 0.  1.
         21   -1    0    0  503  502  0.00000000000E+00 -0.00000000000E+00 -0.26626520810E+03  0.26626520810E+03  0.00000000000E+00 0.  1.
         23    2    1    2    0    0  0.95081033733E+02 -0.48352007056E+02  0.34341105417E+03  0.37196947771E+03  0.95141056651E+02 0.  0.
         23    2    1    2    0    0 -0.11948223027E+03  0.10055814817E+03 -0.61017640690E+02  0.19099215229E+03  0.91470789039E+02 0.  0.
        -11    1    4    4    0    0 -0.20979987727E+02 -0.16540687523E+02 -0.13466844792E+01  0.26750098839E+02  0.00000000000E+00 0. -1.
         11    1    4    4    0    0 -0.98502242545E+02  0.11709883570E+03 -0.59670956211E+02  0.16424205345E+03  0.00000000000E+00 0.  1.
        -13    1    3    3    0    0 -0.15201886675E+02 -0.26143708267E+02  0.65085465077E+02  0.71768437385E+02  0.00000000000E+00 0.  1.
         13    1    3    3    0    0  0.11028292041E+03 -0.22208298788E+02  0.27832558909E+03  0.30020104032E+03  0.00000000000E+00 0. -1.
         21    1    1    2  503  501  0.44251260425E+02  0.18381898297E+02  0.37485443778E+03  0.37790464109E+03  0.00000000000E+00 0.  1.
         -1    1    1    2    0  502 -0.19850063885E+02 -0.70588039414E+02 -0.11365560201E+03  0.13525639435E+03  0.00000000000E+00 0.  1.
<scales pt_clust_5="13000.00000" pt_clust_6="13000.00000" pt_clust_7="13000.00000" pt_clust_8="13000.00000" pt_clust_9="47.91731" pt_clust_10="72.59264"></scales>
<clustering>
<clus scale="   47.917">  1  9  2 -1</clus>
<clus scale="   72.593">  2 10  1 -1</clus>
<clus scale="   91.471">  5  6 -1 -1</clus>
<clus scale="   95.141">  7  8 -1 -1</clus>
<clus scale="  163.895">  2  5  1 -1</clus>
<clus scale="   72.593">  2  5  1 -1</clus>
</clustering>
</event>
<event>
10    2  0.3984345E-006  0.1045476E+03  0.7546771E-02  0.1276288E+00
          1   -1    0    0  503    0 -0.00000000000E+00  0.00000000000E+00  0.25223233510E+03  0.25223233510E+03  0.00000000000E+00 0. -1.
         21   -1    0    0  501  502  0.00000000000E+00 -0.00000000000E+00 -0.46422690707E+03  0.46422690707E+03  0.00000000000E+00 0.  1.
         23    2    1    2    0    0 -0.79906870065E+01  0.17496284828E+02  0.32429169995E+02  0.93352920123E+02  0.85399915499E+02 0.  0.
         23    2    1    2    0    0  0.71172181824E+02 -0.67635708731E+02 -0.56122558078E+02  0.14862562955E+03  0.96435303040E+02 0.  0.
        -11    1    3    3    0    0 -0.16297257728E+02 -0.27165296062E+02  0.35796169467E+02  0.47800833341E+02  0.00000000000E+00 0. -1.
         11    1    3    3    0    0  0.83065707220E+01  0.44661580890E+02 -0.33669994724E+01  0.45552086782E+02  0.00000000000E+00 0.  1.
        -13    1    4    4    0    0  0.84790976915E+02 -0.44498035105E+02 -0.69797080867E+02  0.11849564292E+03  0.00000000000E+00 0.  1.
         13    1    4    4    0    0 -0.13618795090E+02 -0.23137673626E+02  0.13674522789E+02  0.30129986626E+02  0.00000000000E+00 0. -1.
         21    1    1    2  503  502 -0.21340252665E+02 -0.99666522049E+01  0.13803387869E+03  0.14002889776E+03  0.00000000000E+00 0. -1.
          1    1    1    2  501    0 -0.41841242153E+02  0.60106076108E+02 -0.32633506258E+03  0.33445179473E+03  0.00000000000E+00 0. -1.
<scales pt_clust_5="13000.00000" pt_clust_6="13000.00000" pt_clust_7="13000.00000" pt_clust_8="13000.00000" pt_clust_9="23.55293" pt_clust_10="73.38401"></scales>
<clustering>
<clus scale="   23.553">  1  9  2 -1</clus>
<clus scale="   73.384">  2 10  1 -1</clus>
<clus scale="   85.400">  5  6 -1 -1</clus>
<clus scale="   94.465">  1  5  2 -1</clus>
<clus scale="   96.435">  7  8 -1 -1</clus>
<clus scale="   73.384">  2  5  1 -1</clus>
</clustering>
</event>
<event>
10    2  0.3984345E-006  0.1144492E+03  0.7546771E-02  0.1252550E+00
          1   -1    0    0  503    0 -0.00000000000E+00  0.00000000000E+00  0.47050925593E+03  0.47050925593E+03  0.00000000000E+00 0. -1.
         21   -1    0    0  501  502  0.00000000000E+00 -0.00000000000E+00 -0.10266082180E+03  0.10266082180E+03  0.00000000000E+00 0. -1.
         23    2    1    2    0    0 -0.22433045205E+02 -0.74199189265E+02  0.20645624360E+03  0.23850784753E+03  0.90846307604E+02 0.  0.
         23    2    1    2    0    0  0.51357229494E+02  0.67691419900E+02 -0.32096478371E+02  0.12847190786E+03  0.90857877124E+02 0.  0.
        -13    1    3    3    0    0 -0.61054635789E+01 -0.51116257480E+02  0.20369495696E+03  0.21009946205E+03  0.00000000000E+00 0. -1.
         13    1    3    3    0    0 -0.16327581626E+02 -0.23082931785E+02  0.27612866468E+01  0.28408385479E+02  0.00000000000E+00 0.  1.
        -13    1    4    4    0    0  0.67883024977E+02  0.38215572999E+02  0.52856734236E+01  0.78079917029E+02  0.00000000000E+00 0. -1.
         13    1    4    4    0    0 -0.16525795483E+02  0.29475846900E+02 -0.37382151794E+02  0.50391990828E+02  0.00000000000E+00 0.  1.
         21    1    1    2  503  502 -0.13548258897E+02  0.21471011501E+02  0.17781926796E+03  0.17962252562E+03  0.00000000000E+00 0. -1.
          1    1    1    2  501    0 -0.15375925392E+02 -0.14963242136E+02  0.15669400936E+02  0.26567796720E+02  0.00000000000E+00 0. -1.
<scales pt_clust_5="13000.00000" pt_clust_6="13000.00000" pt_clust_7="13000.00000" pt_clust_8="13000.00000" pt_clust_9="25.34766" pt_clust_10="21.45502"></scales>
<clustering>
<clus scale="   21.455">  2 10  1 -1</clus>
<clus scale="   25.348">  1  9  2 -1</clus>
<clus scale="   90.846">  5  6 -1 -1</clus>
<clus scale="   90.858">  7  8 -1 -1</clus>
<clus scale="  114.440">  1  5  2 -1</clus>
<clus scale="   21.455">  2  5  1 -1</clus>
</clustering>
</event>
<event>
10    2  0.3984345E-006  0.1217889E+03  0.7546771E-02  0.1253383E+00
         -1   -1    0    0    0  501 -0.00000000000E+00  0.00000000000E+00  0.28194017150E+03  0.28194017150E+03  0.00000000000E+00 0.  1.
         21   -1    0    0  503  502  0.00000000000E+00 -0.00000000000E+00 -0.15623932540E+03  0.15623932540E+03  0.00000000000E+00 0. -1.
         23    2    1    2    0    0 -0.59511936039E+01  0.43447848726E+02  0.12598949295E+03  0.17907927864E+03  0.11946925730E+03 0.  0.
         23    2    1    2    0    0  0.22904893648E+02 -0.76147129729E+01 -0.84865744132E+02  0.12629621929E+03  0.90365493819E+02 0.  0.
        -11    1    3    3    0    0 -0.35561132620E+02  0.67891679627E+02  0.11663175701E+03  0.13955945349E+03  0.00000000000E+00 0.  1.
         11    1    3    3    0    0  0.29609939016E+02 -0.24443830901E+02  0.93577359380E+01  0.39519825146E+02  0.00000000000E+00 0. -1.
        -13    1    4    4    0    0 -0.29800303830E+02  0.14266568536E+02 -0.15562186853E+02  0.36520880955E+02  0.00000000000E+00 0.  1.
         13    1    4    4    0    0  0.52705197477E+02 -0.21881281509E+02 -0.69303557279E+02  0.89775338334E+02  0.00000000000E+00 0. -1.
         21    1    1    2  503  501  0.26604263885E+01 -0.21215511603E+02  0.10106639101E+03  0.10330339390E+03  0.00000000000E+00 0.  1.
         -1    1    1    2    0  502 -0.19614126432E+02 -0.14617624150E+02 -0.16489293722E+02  0.29500605061E+02  0.00000000000E+00 0.  1.
<scales pt_clust_5="13000.00000" pt_clust_6="13000.00000" pt_clust_7="13000.00000" pt_clust_8="13000.00000" pt_clust_9="21.38167" pt_clust_10="24.85273"></scales>
<clustering>
<clus scale="   21.382">  1  9  2 -1</clus>
<clus scale="   24.853">  2 10  1 -1</clus>
<clus scale="   90.365">  7  8 -1 -1</clus>
<clus scale="   93.411">  2  7  1 -1</clus>
<clus scale="  119.469">  5  6 -1 -1</clus>
<clus scale="   24.853">  2  5  1 -1</clus>
</clustering>
</event>
<event>
10    2  0.3984345E-006  0.1305964E+03  0.7546771E-02  0.1226996E+00
         21   -1    0    0  501  502  0.00000000000E+00  0.00000000000E+00  0.50419098459E+02  0.50419098459E+02  0.00000000000E+00 0. -1.
          1   -1    0    0  503    0 -0.00000000000E+00 -0.00000000000E+00 -0.10433004570E+04  0.10433004570E+04  0.00000000000E+00 0. -1.
         23    2    1    2    0    0  0.23510939649E+02 -0.13718046244E+03 -0.52279189931E+03  0.54856257879E+03  0.90765022431E+02 0.  0.
         23    2    1    2    0    0  0.28597733755E+02  0.55694976604E+02 -0.87115009150E+02  0.14157589915E+03  0.92384790987E+02 0.  0.
        -11    1    4    4    0    0  0.60334808313E+02  0.47088878560E+02 -0.47441542471E+02  0.90046385437E+02  0.00000000000E+00 0.  1.
         11    1    4    4    0    0 -0.31737074558E+02  0.86060980438E+01 -0.39673466678E+02  0.51529513711E+02  0.00000000000E+00 0. -1.
        -11    1    3    3    0    0  0.35673025224E+02 -0.84145960755E+01 -0.10543426187E+03  0.11162326698E+03  0.00000000000E+00 0.  1.
         11    1    3    3    0    0 -0.12162085575E+02 -0.12876586636E+03 -0.41735763744E+03  0.43693931180E+03  0.00000000000E+00 0. -1.
         21    1    1    2  503  502 -0.49225919287E+02  0.45148870940E+02 -0.34316264979E+03  0.34960294033E+03  0.00000000000E+00 0. -1.
          1    1    1    2  501    0 -0.28827541170E+01  0.36336614895E+02 -0.39811800303E+02  0.53978137211E+02  0.00000000000E+00 0. -1.
<scales pt_clust_5="13000.00000" pt_clust_6="13000.00000" pt_clust_7="13000.00000" pt_clust_8="13000.00000" pt_clust_9="68.80295" pt_clust_10="36.45079"></scales>
<clustering>
<clus scale="   36.451">  1 10  2 -1</clus>
<clus scale="   68.803">  2  9  1 -1</clus>
<clus scale="   90.765">  7  8 -1 -1</clus>
<clus scale="   92.385">  5  6 -1 -1</clus>
<clus scale="  129.456">  2  7  1 -1</clus>
<clus scale="   36.451">  1  5  2 -1</clus>
</clustering>
</event>
<event>
10    2  0.3984345E-006  0.1319006E+03  0.7546771E-02  0.1225715E+00
         21   -1    0    0  501  502  0.00000000000E+00  0.00000000000E+00  0.92914564470E+02  0.92914564470E+02  0.00000000000E+00 0. -1.
          1   -1    0    0  503    0 -0.00000000000E+00 -0.00000000000E+00 -0.54310288372E+03  0.54310288372E+03  0.00000000000E+00 0. -1.
         23    2    1    2    0    0  0.24179450352E+02  0.10847674643E+03 -0.34861764984E+03  0.37747182349E+03  0.92730045902E+02 0.  0.
         23    2    1    2    0    0  0.39332513186E+02 -0.64639510889E+02 -0.87997192056E+02  0.14601976641E+03  0.88616891229E+02 0.  0.
        -13    1    3    3    0    0  0.77331223752E+01  0.53370479280E+02 -0.29140053442E+03  0.29634857971E+03  0.00000000000E+00 0. -1.
         13    1    3    3    0    0  0.16446327977E+02  0.55106267153E+02 -0.57217115426E+02  0.81123243779E+02  0.00000000000E+00 0.  1.
        -13    1    4    4    0    0  0.30783094755E+02  0.10796310981E+02 -0.53431257695E+02  0.62602384558E+02  0.00000000000E+00 0. -1.
         13    1    4    4    0    0  0.85494184309E+01 -0.75435821870E+02 -0.34565934361E+02  0.83417381852E+02  0.00000000000E+00 0.  1.
         21    1    1    2  503  502 -0.26843263012E+02  0.30539376077E+01 -0.39289910563E+02  0.47682117991E+02  0.00000000000E+00 0.  1.
          1    1    1    2  501    0 -0.36668700526E+02 -0.46891173152E+02  0.25716433216E+02  0.64843740293E+02  0.00000000000E+00 0. -1.
<scales pt_clust_5="13000.00000" pt_clust_6="13000.00000" pt_clust_7="13000.00000" pt_clust_8="13000.00000" pt_clust_9="27.01643" pt_clust_10="60.08632"></scales>
<clustering>
<clus scale="   27.016">  2  9  1 -1</clus>
<clus scale="   60.086">  1 10  2 -1</clus>
<clus scale="   88.617">  7  8 -1 -1</clus>
<clus scale="   92.730">  5  6 -1 -1</clus>
<clus scale="  129.042">  1  7  2 -1</clus>
<clus scale="   60.086">  1  5  2 -1</clus>
</clustering>
</event>
<event>
10    2  0.3984345E-006  0.1087698E+03  0.7546771E-02  0.1264934E+00
         21   -1    0    0  501  502  0.00000000000E+00  0.00000000000E+00  0.54493927748E+02  0.54493927748E+02  0.00000000000E+00 0. -1.
          1   -1    0    0  503    0 -0.00000000000E+00 -0.00000000000E+00 -0.52020520935E+03  0.52020520935E+03  0.00000000000E+00 0. -1.
         23    2    1    2    0    0  0.13757836123E+02  0.53364362242E+02 -0.22834990311E+03  0.25569650496E+03  0.10099500576E+03 0.  0.
         23    2    1    2    0    0  0.26969640162E+02 -0.31476279099E+02 -0.14101925581E+03  0.17574465113E+03  0.96341238601E+02 0.  0.
        -11    1    3    3    0    0 -0.31653550661E+02  0.10693128839E+02 -0.21660378751E+02  0.39817863848E+02  0.00000000000E+00 0.  1.
         11    1    3    3    0    0  0.45411386783E+02  0.42671233403E+02 -0.20668952436E+03  0.21587864112E+03  0.00000000000E+00 0. -1.
        -11    1    4    4    0    0  0.51063931085E+02  0.18857852939E+01 -0.34776490984E+02  0.61810076599E+02  0.00000000000E+00 0.  1.
         11    1    4    4    0    0 -0.24094290923E+02 -0.33362064393E+02 -0.10624276483E+03  0.11393457453E+03  0.00000000000E+00 0. -1.
         21    1    1    2  503  502 -0.18693694342E+02 -0.23955437109E+02 -0.11206453289E+03  0.11611105334E+03  0.00000000000E+00 0. -1.
          1    1    1    2  501    0 -0.22033781943E+02  0.20673539665E+01  0.15722410208E+02  0.27146927669E+02  0.00000000000E+00 0. -1.
<scales pt_clust_5="13000.00000" pt_clust_6="13000.00000" pt_clust_7="13000.00000" pt_clust_8="13000.00000" pt_clust_9="31.13690" pt_clust_10="22.13056"></scales>
<clustering>
<clus scale="   22.131">  1 10  2 -1</clus>
<clus scale="   31.137">  2  9  1 -1</clus>
<clus scale="   96.341">  7  8 -1 -1</clus>
<clus scale="  100.995">  5  6 -1 -1</clus>
<clus scale="  104.463">  1  7  2 -1</clus>
<clus scale="   22.131">  1  5  2 -1</clus>
</clustering>
</event>
<event>
10    2  0.3984345E-006  0.1187896E+03  0.7546771E-02  0.1246466E+00
          2   -1    0    0  503    0 -0.00000000000E+00  0.00000000000E+00  0.32538233900E+03  0.32538233900E+03  0.00000000000E+00 0. -1.
         21   -1    0    0  501  502  0.00000000000E+00 -0.00000000000E+00 -0.29812704276E+03  0.29812704276E+03  0.00000000000E+00 0. -1.
         23    2    1    2    0    0 -0.75891110675E+02 -0.53285022123E+02  0.17038996709E+03  0.21370533687E+03  0.89657547711E+02 0.  0.
         23    2    1    2    0    0  0.27140347378E+02  0.36038742266E+02 -0.35038396254E+02  0.10271655354E+03  0.85367509971E+02 0.  0.
        -13    1    4    4    0    0  0.20523756729E+02  0.63977419979E+02 -0.29932227604E+02  0.73554558708E+02  0.00000000000E+00 0.  1.
         13    1    4    4    0    0  0.66165906494E+01 -0.27938677713E+02 -0.51061686506E+01  0.29161994830E+02  0.00000000000E+00 0. -1.
        -13    1    3    3    0    0 -0.31891979297E+02  0.21453788030E+02  0.30306645409E+02  0.48947483288E+02  0.00000000000E+00 0.  1.
         13    1    3    3    0    0 -0.43999131377E+02 -0.74738810153E+02  0.14008332168E+03  0.16475785359E+03  0.00000000000E+00 0. -1.
         21    1    1    2  503  502  0.24603534309E+02 -0.19657884992E+02  0.94571268788E+02  0.99676934258E+02  0.00000000000E+00 0. -1.
          2    1    1    2  501    0  0.24147228987E+02  0.36904164849E+02 -0.20266754339E+03  0.20741055709E+03  0.00000000000E+00 0. -1.
<scales pt_clust_5="13000.00000" pt_clust_6="13000.00000" pt_clust_7="13000.00000" pt_clust_8="13000.00000" pt_clust_9="31.49232" pt_clust_10="44.07248"></scales>
<clustering>
<clus scale="   31.492">  1  9  2 -1</clus>
<clus scale="   44.072">  2 10  1 -1</clus>
<clus scale="   85.368">  5  6 -1 -1</clus>
<clus scale="   89.658">  7  8 -1 -1</clus>
<clus scale="  115.586">  2  5  1 -1</clus>
<clus scale="   44.072">  2  5  1 -1</clus>
</clustering>
</event>
<event>
10    2  0.3984345E-006  0.1776804E+03  0.7546771E-02  0.1170366E+00
         21   -1    0    0  501  502  0.00000000000E+00  0.00000000000E+00  0.34523784315E+03  0.34523784315E+03  0.00000000000E+00 0. -1.
          2   -1    0    0  503    0 -0.00000000000E+00 -0.00000000000E+00 -0.87348895199E+03  0.87348895199E+03  0.00000000000E+00 0. -1.
         23    2    1    2    0    0  0.10864159648E+03  0.76657599557E+02 -0.71003111161E+03  0.72807945032E+03  0.90973196398E+02 0.  0.
         23    2    1    2    0    0 -0.12475733948E+03 -0.10008191573E+02  0.21876658540E+03  0.26875395656E+03  0.93302264872E+02 0.  0.
        -13    1    3    3    0    0  0.49366879086E+02 -0.73223841133E+01 -0.13492200170E+03  0.14385636101E+03  0.00000000000E+00 0. -1.
         13    1    3    3    0    0  0.59274717398E+02  0.83979983671E+02 -0.57510910991E+03  0.58422308931E+03  0.00000000000E+00 0.  1.
        -13    1    4    4    0    0 -0.10439934053E+03 -0.24787953865E+02  0.97751851579E+02  0.14515195296E+03  0.00000000000E+00 0.  1.
         13    1    4    4    0    0 -0.20357998946E+02  0.14779762292E+02  0.12101473382E+03  0.12360200361E+03  0.00000000000E+00 0. -1.
         21    1    1    2  503  502  0.26677473876E+02 -0.26168118442E+01 -0.11633619234E+03  0.11938444188E+03  0.00000000000E+00 0. -1.
          2    1    1    2  501    0 -0.10561730885E+02 -0.64032596140E+02  0.79349609704E+02  0.10250894638E+03  0.00000000000E+00 0. -1.
<scales pt_clust_5="13000.00000" pt_clust_6="13000.00000" pt_clust_7="13000.00000" pt_clust_8="13000.00000" pt_clust_9="26.80551" pt_clust_10="64.87212"></scales>
<clustering>
<clus scale="   26.806">  2  9  1 -1</clus>
<clus scale="   64.872">  1 10  2 -1</clus>
<clus scale="   90.973">  5  6 -1 -1</clus>
<clus scale="   93.302">  7  8 -1 -1</clus>
<clus scale="  176.469">  2  5  1 -1</clus>
<clus scale="   64.872">  1  5  2 -1</clus>
</clustering>
</event>
<event>
10    2  0.3984345E-006  0.1060984E+03  0.7546771E-02  0.1272210E+00
         21   -1    0    0  501  502  0.00000000000E+00  0.00000000000E+00  0.10087144086E+03  0.10087144086E+03  0.00000000000E+00 0. -1.
          2   -1    0    0  503    0 -0.00000000000E+00 -0.00000000000E+00 -0.59094443643E+03  0.59094443643E+03  0.00000000000E+00 0. -1.
         23    2    1    2    0    0  0.43181853527E+02  0.20671148701E+02 -0.96642653059E+02  0.14118033986E+03  0.91104978510E+02 0.  0.
         23    2    1    2    0    0 -0.27258724124E+02  0.20199074934E+02 -0.11063721397E+03  0.15295139979E+03  0.10001248380E+03 0.  0.
        -11    1    3    3    0    0  0.30124086190E+02 -0.34526959198E+02 -0.37233736197E+02  0.59041702139E+02  0.00000000000E+00 0.  1.
         11    1    3    3    0    0  0.13057767337E+02  0.55198107899E+02 -0.59408916862E+02  0.82138637718E+02  0.00000000000E+00 0. -1.
        -11    1    4    4    0    0 -0.61919294752E+02 -0.48204179092E+01 -0.74368020805E+02  0.96890856173E+02  0.00000000000E+00 0. -1.
         11    1    4    4    0    0  0.34660570628E+02  0.25019492844E+02 -0.36269193160E+02  0.56060543619E+02  0.00000000000E+00 0.  1.
         21    1    1    2  503  502 -0.36998872833E+02  0.16180525590E+02 -0.32252099699E+03  0.32503925840E+03  0.00000000000E+00 0. -1.
          2    1    1    2  501    0  0.21075743430E+02 -0.57050749226E+02  0.39727868445E+02  0.72644879238E+02  0.00000000000E+00 0. -1.
<scales pt_clust_5="13000.00000" pt_clust_6="13000.00000" pt_clust_7="13000.00000" pt_clust_8="13000.00000" pt_clust_9="40.38225" pt_clust_10="59.12151"></scales>
<clustering>
<clus scale="   40.382">  2  9  1 -1</clus>
<clus scale="   59.122">  1 10  2 -1</clus>
<clus scale="   91.105">  5  6 -1 -1</clus>
<clus scale="   97.747">  2  5  1 -1</clus>
<clus scale="  100.012">  7  8 -1 -1</clus>
<clus scale="   59.122">  1  5  2 -1</clus>
</clustering>
</event>
<event>
10    2  0.3984345E-006  0.9544294E+02  0.7546771E-02  0.1290327E+00
          3   -1    0    0  503    0 -0.00000000000E+00  0.00000000000E+00  0.49928751111E+02  0.49928751111E+02  0.00000000000E+00 0. -1.
         21   -1    0    0  501  502  0.00000000000E+00 -0.00000000000E+00 -0.58286933102E+03  0.58286933102E+03  0.00000000000E+00 0.  1.
         23    2    1    2    0    0 -0.45156531092E+02 -0.82384347810E+01 -0.58783530454E+02  0.11873880830E+03  0.92392732592E+02 0.  0.
         23    2    1    2    0    0  0.72252198700E+01  0.14440095184E+02 -0.30745087979E+03  0.32136206881E+03  0.92123914561E+02 0.  0.
        -11    1    4    4    0    0  0.41956788161E+02 -0.97217214686E+01 -0.22046605472E+03  0.22463340184E+03  0.00000000000E+00 0.  1.
         11    1    4    4    0    0 -0.34731568291E+02  0.24161816653E+02 -0.86984825071E+02  0.96728666964E+02  0.00000000000E+00 0. -1.
        -13    1    3    3    0    0 -0.11406630522E+02 -0.21583151483E+02 -0.75084746578E+02  0.78953548473E+02  0.00000000000E+00 0.  1.
         13    1    3    3    0    0 -0.33749900569E+02  0.13344716702E+02  0.16301216124E+02  0.39785259826E+02  0.00000000000E+00 0. -1.
         21    1    1    2  503  502  0.22495543850E+02  0.12221439687E+02 -0.13854567645E+01  0.25638497842E+02  0.00000000000E+00 0. -1.
          3    1    1    2  501    0  0.15435767371E+02 -0.18423100090E+02 -0.16532071290E+03  0.16705870718E+03  0.00000000000E+00 0. -1.
<scales pt_clust_5="13000.00000" pt_clust_6="13000.00000" pt_clust_7="13000.00000" pt_clust_8="13000.00000" pt_clust_9="25.76700" pt_clust_10="24.03484"></scales>
<clustering>
<clus scale="   24.035">  2 10  1 -1</clus>
<clus scale="   25.767">  1  9  2 -1</clus>
<clus scale="   92.124">  5  6 -1 -1</clus>
<clus scale="   92.393">  7  8 -1 -1</clus>
<clus scale="   95.183">  2  5  1 -1</clus>
<clus scale="   24.035">  2  5  1 -1</clus>
</clustering>
</event>
<event>
10    2  0.3984345E-006  0.1051345E+03  0.7546771E-02  0.1269988E+00
         -4   -1    0    0    0  501 -0.00000000000E+00  0.00000000000E+00  0.13312239528E+03  0.13312239528E+03  0.00000000000E+00 0.  1.
         21   -1    0    0  503  502  0.00000000000E+00 -0.00000000000E+00 -0.37161969063E+03  0.37161969063E+03  0.00000000000E+00 0.  1.
         23    2    1    2    0    0  0.15583709076E+02  0.31250493022E+02  0.66590336835E+02  0.11787313170E+03  0.90776411657E+02 0.  0.
         23    2    1    2    0    0 -0.16458822219E+02 -0.39859897062E+02 -0.97503953158E+02  0.13982269922E+03  0.90463595517E+02 0.  0.
        -13    1    4    4    0    0 -0.65564013629E+01  0.19684552091E+02  0.45620171749E+01  0.21243351679E+02  0.00000000000E+00 0.  1.
         13    1    4    4    0    0 -0.99024208560E+01 -0.59544449153E+02 -0.10206597033E+03  0.11857934754E+03  0.00000000000E+00 0. -1.
        -13    1    3    3    0    0 -0.30813481194E+02 -0.11990598667E+02  0.15934832509E+02  0.36703732327E+02  0.00000000000E+00 0. -1.
         13    1    3    3    0    0  0.46397190269E+02  0.43241091689E+02  0.50655504326E+02  0.81169399368E+02  0.00000000000E+00 0.  1.
         21    1    1    2  503  501  0.31560055794E+02  0.15953536949E+02  0.16938208895E+01  0.35403693198E+02  0.00000000000E+00 0.  1.
         -4    1    1    2    0  502 -0.30684942650E+02 -0.73441329088E+01 -0.20927749991E+03  0.21164256180E+03  0.00000000000E+00 0.  1.
<scales pt_clust_5="13000.00000" pt_clust_6="13000.00000" pt_clust_7="13000.00000" pt_clust_8="13000.00000" pt_clust_9="32.16161" pt_clust_10="31.55158"></scales>
<clustering>
<clus scale="   31.552">  2 10  1 -1</clus>
<clus scale="   32.162">  1  9  2 -1</clus>
<clus scale="   90.464">  5  6 -1 -1</clus>
<clus scale="   90.776">  7  8 -1 -1</clus>
<clus scale="  104.865">  2  5  1 -1</clus>
<clus scale="   31.552">  2  5  1 -1</clus>
</clustering>
</event>
<event>
10    2  0.3984345E-006  0.1364158E+03  0.7546771E-02  0.1218472E+00
         -1   -1    0    0    0  501 -0.00000000000E+00  0.00000000000E+00  0.35503332434E+03  0.35503332434E+03  0.00000000000E+00 0.  1.
         21   -1    0    0  503  502  0.00000000000E+00 -0.00000000000E+00 -0.41840978649E+03  0.41840978649E+03  0.00000000000E+00 0.  1.
         23    2    1    2    0    0 -0.11443354490E+03  0.58648908867E+02  0.22497004197E+03  0.27451416114E+03  0.90618840073E+02 0.  0.
         23    2    1    2    0    0  0.13030111206E+03  0.23743011788E+02 -0.19903685108E+03  0.25603610061E+03  0.91633543600E+02 0.  0.
        -11    1    4    4    0    0  0.25064421692E+02 -0.37756096661E+01 -0.11721082744E+03  0.11992021736E+03  0.00000000000E+00 0. -1.
         11    1    4    4    0    0  0.10523669037E+03  0.27518621454E+02 -0.81826023641E+02  0.13611588324E+03  0.00000000000E+00 0.  1.
        -13    1    3    3    0    0  0.13836071690E+01  0.38635351469E+02  0.70610355655E+02  0.80501099853E+02  0.00000000000E+00 0. -1.
         13    1    3    3    0    0 -0.11581715207E+03  0.20013557398E+02  0.15435968631E+03  0.19401306129E+03  0.00000000000E+00 0.  1.
         21    1    1    2  503  501  0.26610036951E+02 -0.21389741041E+02  0.63986258468E+02  0.72524867191E+02  0.00000000000E+00 0.  1.
         -1    1    1    2    0  502 -0.42477604113E+02 -0.61002179614E+02 -0.15329591150E+03  0.17036798189E+03  0.00000000000E+00 0.  1.
<scales pt_clust_5="13000.00000" pt_clust_6="13000.00000" pt_clust_7="13000.00000" pt_clust_8="13000.00000" pt_clust_9="34.14111" pt_clust_10="74.41124"></scales>
<clustering>
<clus scale="   34.141">  1  9  2 -1</clus>
<clus scale="   74.411">  2 10  1 -1</clus>
<clus scale="   90.619">  7  8 -1 -1</clus>
<clus scale="   91.634">  5  6 -1 -1</clus>
<clus scale="  135.736">  1  7  2 -1</clus>
<clus scale="   74.411">  2  5  1 -1</clus>
</clustering>
</event>
<event>
10    2  0.3984345E-006  0.2267451E+03  0.7546771E-02  0.1128976E+00
         21   -1    0    0  501  502  0.00000000000E+00  0.00000000000E+00  0.14242860674E+03  0.14242860674E+03  0.00000000000E+00 0. -1.
          2   -1    0    0  503    0 -0.00000000000E+00 -0.00000000000E+00 -0.70397405626E+03  0.70397405626E+03  0.00000000000E+00 0.  1.
         23    2    1    2    0    0  0.32051506206E+02  0.22193112326E+03 -0.46360529968E+03  0.52310249510E+03  0.91791197663E+02 0.  0.
         23    2    1    2    0    0 -0.59018037703E+02 -0.18586517514E+03 -0.82463858206E+02  0.23064050216E+03  0.91464535319E+02 0.  0.
        -11    1    3    3    0    0 -0.10807773272E+02  0.10570230504E+03 -0.29739196840E+03  0.31580336940E+03  0.00000000000E+00 0.  1.
         11    1    3    3    0    0  0.42859279477E+02  0.11622881822E+03 -0.16621333127E+03  0.20729912570E+03  0.00000000000E+00 0. -1.
        -13    1    4    4    0    0 -0.76206851828E+02 -0.93429893520E+02 -0.36400226047E+02  0.12594286691E+03  0.00000000000E+00 0. -1.
         13    1    4    4    0    0  0.17188814125E+02 -0.92435281619E+02 -0.46063632159E+02  0.10469763525E+03  0.00000000000E+00 0.  1.
         21    1    1    2  503  502  0.89230809368E+01 -0.19551310833E+02 -0.47633251529E+02  0.52257073970E+02  0.00000000000E+00 0.  1.
          2    1    1    2  501    0  0.18043450560E+02 -0.16514637292E+02  0.32156959887E+02  0.40402591776E+02  0.00000000000E+00 0.  1.
<scales pt_clust_5="13000.00000" pt_clust_6="13000.00000" pt_clust_7="13000.00000" pt_clust_8="13000.00000" pt_clust_9="21.49128" pt_clust_10="24.58492"></scales>
<clustering>
<clus scale="   21.491">  2  9  1 -1</clus>
<clus scale="   24.585">  1 10  2 -1</clus>
<clus scale="   91.465">  7  8 -1 -1</clus>
<clus scale="   91.791">  5  6 -1 -1</clus>
<clus scale="  226.613">  1  7  2 -1</clus>
<clus scale="   24.585">  1  5  2 -1</clus>
</clustering>
</event>
<event>
10    2  0.3984345E-006  0.1004035E+03  0.7546771E-02  0.1280604E+00
         21   -1    0    0  503  502  0.00000000000E+00  0.00000000000E+00  0.69943966227E+02  0.69943966227E+02  0.00000000000E+00 0.  1.
         -1   -1    0    0    0  501 -0.00000000000E+00 -0.00000000000E+00 -0.40111260784E+03  0.40111260784E+03  0.00000000000E+00 0.  1.
         23    2    1    2    0    0 -0.52590954520E+02 -0.25495326058E+02 -0.17920326362E+03  0.21000197133E+03  0.92580765417E+02 0.  0.
         23    2    1    2    0    0 -0.24176575234E+02  0.31329069453E+02 -0.66816663398E+02  0.11903171608E+03  0.90211227362E+02 0.  0.
        -11    1    4    4    0    0  0.34534398227E+02  0.12627568512E+02 -0.22137410757E+02  0.42920217875E+02  0.00000000000E+00 0. -1.
         11    1    4    4    0    0 -0.58710973461E+02  0.18701500941E+02 -0.44679252641E+02  0.76111498204E+02  0.00000000000E+00 0.  1.
        -13    1    3    3    0    0 -0.78536769569E+02 -0.20658595994E+02 -0.15047977584E+03  0.17099404872E+03  0.00000000000E+00 0.  1.
         13    1    3    3    0    0  0.25945815048E+02 -0.48367300635E+01 -0.28723487780E+02  0.39007922612E+02  0.00000000000E+00 0. -1.
         21    1    1    2  503  501  0.50970675604E+01 -0.21428553688E+02 -0.60916138932E+02  0.64776068060E+02  0.00000000000E+00 0.  1.
         -1    1    1    2    0  502  0.71670462194E+02  0.15594810292E+02 -0.24232575661E+02  0.77246818590E+02  0.00000000000E+00 0.  1.
<scales pt_clust_5="13000.00000" pt_clust_6="13000.00000" pt_clust_7="13000.00000" pt_clust_8="13000.00000" pt_clust_9="22.02642" pt_clust_10="73.48544"></scales>
<clustering>
<clus scale="   22.026">  2  9  1 -1</clus>
<clus scale="   73.485">  1 10  2 -1</clus>
<clus scale="   90.211">  5  6 -1 -1</clus>
<clus scale="   92.581">  7  8 -1 -1</clus>
<clus scale="   98.223">  1  5  2 -1</clus>
<clus scale="   73.485">  1  5  2 -1</clus>
</clustering>
</event>
<event>
10    2  0.3984345E-006  0.1820307E+03  0.7546771E-02  0.1165995E+00
         21   -1    0    0  503  502  0.00000000000E+00  0.00000000000E+00  0.13087555139E+03  0.13087555139E+03  0.00000000000E+00 0. -1.
         -3   -1    0    0    0  501 -0.00000000000E+00 -0.00000000000E+00 -0.56209435163E+03  0.56209435163E+03  0.00000000000E+00 0.  1.
         23    2    1    2    0    0  0.35316917441E+02 -0.13251964159E+03 -0.34033294613E+03  0.37794373458E+03  0.90588146144E+02 0.  0.
         23    2    1    2    0    0 -0.57399345333E+02  0.16374270367E+03 -0.67527740036E+02  0.20653223654E+03  0.89382387566E+02 0.  0.
        -13    1    4    4    0    0 -0.21340796775E+02  0.15622536747E+03 -0.61313852466E+02  0.16917796414E+03  0.00000000000E+00 0.  1.
         13    1    4    4    0    0 -0.36058548559E+02  0.75173362011E+01 -0.62138875704E+01  0.37354272399E+02  0.00000000000E+00 0. -1.
        -13    1    3    3    0    0  0.64444553005E+01 -0.56571323168E+02 -0.47815848293E+02  0.74351872587E+02  0.00000000000E+00 0. -1.
         13    1    3    3    0    0  0.28872462141E+02 -0.75948318418E+02 -0.29251709784E+03  0.30359186199E+03  0.00000000000E+00 0.  1.
         21    1    1    2  503  501 -0.51955455734E+01 -0.26756143102E+02 -0.58053802349E+02  0.64133679566E+02  0.00000000000E+00 0. -1.
         -3    1    1    2    0  502  0.27277973465E+02 -0.44669189784E+01  0.34695688280E+02  0.44360252330E+02  0.00000000000E+00 0.  1.
<scales pt_clust_5="13000.00000" pt_clust_6="13000.00000" pt_clust_7="13000.00000" pt_clust_8="13000.00000" pt_clust_9="27.25591" pt_clust_10="27.63480"></scales>
<clustering>
<clus scale="   27.256">  2  9  1 -1</clus>
<clus scale="   27.635">  1 10  2 -1</clus>
<clus scale="   89.382">  5  6 -1 -1</clus>
<clus scale="   90.588">  7  8 -1 -1</clus>
<clus scale="  181.434">  1  5  2 -1</clus>
<clus scale="   27.635">  1  5  2 -1</clus>
</clustering>
</event>
<event>
10    2  0.3984345E-006  0.9683010E+02  0.7546771E-02  0.1290299E+00
          3   -1    0    0  503    0 -0.00000000000E+00  0.00000000000E+00  0.67876349995E+03  0.67876349995E+03  0.00000000000E+00 0. -1.
         21   -1    0    0  501  502  0.00000000000E+00 -0.00000000000E+00 -0.52652855366E+02  0.52652855366E+02  0.00000000000E+00 0.  1.
         23    2    1    2    0    0 -0.22534821568E+02  0.95699605499E+01  0.15478332674E+03  0.18010542678E+03  0.88773217754E+02 0.  0.
         23    2    1    2    0    0 -0.66982285547E+02 -0.80919728711E+01  0.18970182529E+03  0.22243728790E+03  0.94548706639E+02 0.  0.
        -11    1    4    4    0    0  0.92963043781E+01 -0.27110726537E+02  0.18674579468E+02  0.34207494599E+02  0.00000000000E+00 0. -1.
         11    1    4    4    0    0 -0.76278589926E+02  0.19018753666E+02  0.17102724582E+03  0.18822979330E+03  0.00000000000E+00 0.  1.
        -13    1    3    3    0    0  0.17069858240E+01  0.45654808030E+02  0.10171926739E+03  0.11150822685E+03  0.00000000000E+00 0. -1.
         13    1    3    3    0    0 -0.24241807392E+02 -0.36084847480E+02  0.53064059348E+02  0.68597199926E+02  0.00000000000E+00 0.  1.
         21    1    1    2  503  502  0.49950200157E+02 -0.10835646066E+01  0.28482672674E+03  0.28917548456E+03  0.00000000000E+00 0.  1.
          3    1    1    2  501    0  0.39566906958E+02 -0.39442307218E+00 -0.32012341807E+01  0.39698156079E+02  0.00000000000E+00 0. -1.
<scales pt_clust_5="13000.00000" pt_clust_6="13000.00000" pt_clust_7="13000.00000" pt_clust_8="13000.00000" pt_clust_9="52.71911" pt_clust_10="39.56887"></scales>
<clustering>
<clus scale="   39.569">  2 10  1 -1</clus>
<clus scale="   52.719">  1  9  2 -1</clus>
<clus scale="   88.773">  7  8 -1 -1</clus>
<clus scale="   91.199">  1  7  2 -1</clus>
<clus scale="   94.549">  5  6 -1 -1</clus>
<clus scale="   39.569">  2  5  1 -1</clus>
</clustering>
</event>
<event>
10    2  0.3984345E-006  0.1040904E+03  0.7546771E-02  0.1273084E+00
         -2   -1    0    0    0  501 -0.00000000000E+00  0.00000000000E+00  0.42282343167E+03  0.42282343167E+03  0.00000000000E+00 0.  1.
         21   -1    0    0  503  502  0.00000000000E+00 -0.00000000000E+00 -0.46513701076E+02  0.46513701076E+02  0.00000000000E+00 0.  1.
         23    2    1    2    0    0 -0.37572318390E+01  0.50819340203E+02  0.16403822308E+03  0.19237173913E+03  0.86611923292E+02 0.  0.
         23    2    1    2    0    0 -0.62298645368E+01 -0.55413235228E+02  0.14711442599E+03  0.18090843376E+03  0.89307162203E+02 0.  0.
        -11    1    3    3    0    0  0.24972823585E+02  0.23231436755E+02  0.14361560039E+03  0.14761023761E+03  0.00000000000E+00 0.  1.
         11    1    3    3    0    0 -0.28730055424E+02  0.27587903448E+02  0.20422622692E+02  0.44761501527E+02  0.00000000000E+00 0. -1.
        -13    1    4    4    0    0  0.11371854644E+02 -0.30568626370E+02  0.20463319790E+01  0.32679465582E+02  0.00000000000E+00 0.  1.
         13    1    4    4    0    0 -0.17601719180E+02 -0.24844608858E+02  0.14506809401E+03  0.14822896818E+03  0.00000000000E+00 0. -1.
         21    1    1    2  503  501 -0.23952382842E+02  0.13521246969E+02  0.51527737846E+02  0.58409318871E+02  0.00000000000E+00 0.  1.
         -2    1    1    2    0  502  0.33939479218E+02 -0.89273519449E+01  0.13629343680E+02  0.37647640981E+02  0.00000000000E+00 0.  1.
<scales pt_clust_5="13000.00000" pt_clust_6="13000.00000" pt_clust_7="13000.00000" pt_clust_8="13000.00000" pt_clust_9="27.50529" pt_clust_10="33.24329"></scales>
<clustering>
<clus scale="   27.505">  1  9  2 -1</clus>
<clus scale="   33.243">  2 10  1 -1</clus>
<clus scale="   86.612">  5  6 -1 -1</clus>
<clus scale="   89.307">  7  8 -1 -1</clus>
<clus scale="  101.787">  1  5  2 -1</clus>
<clus scale="   33.243">  2  5  1 -1</clus>
</clustering>
</event>
<event>
10    2  0.3984345E-006  0.2076438E+03  0.7546771E-02  0.1143569E+00
          1   -1    0    0  503    0 -0.00000000000E+00  0.00000000000E+00  0.66332539697E+03  0.66332539697E+03  0.00000000000E+00 0. -1.
         21   -1    0    0  501  502  0.00000000000E+00 -0.00000000000E+00 -0.13218803738E+03  0.13218803738E+03  0.00000000000E+00 0. -1.
         23    2    1    2    0    0 -0.72451518302E+02  0.16504635281E+03  0.27080530844E+03  0.33783493954E+03  0.91144995557E+02 0.  0.
         23    2    1    2    0    0  0.14949080656E+03 -0.14784481762E+03  0.22643885157E+03  0.32255487304E+03  0.92528380931E+02 0.  0.
        -13    1    4    4    0    0  0.71367870592E+02 -0.24985508301E+02  0.12140942248E+03  0.14303110306E+03  0.00000000000E+00 0.  1.
         13    1    4    4    0    0  0.78122935970E+02 -0.12285930931E+03  0.10502942910E+03  0.17952376998E+03  0.00000000000E+00 0. -1.
        -13    1    3    3    0    0  0.20399392552E+02  0.34549184284E+02  0.38014289598E+02  0.55270856378E+02  0.00000000000E+00 0.  1.
         13    1    3    3    0    0 -0.92850910854E+02  0.13049716852E+03  0.23279101884E+03  0.28256408316E+03  0.00000000000E+00 0. -1.
         21    1    1    2  503  502 -0.71029246391E+01 -0.27597157127E+02  0.54480011408E+02  0.61482731420E+02  0.00000000000E+00 0. -1.
          1    1    1    2  501    0 -0.69936363621E+02  0.10395621938E+02 -0.20586811829E+02  0.73640890362E+02  0.00000000000E+00 0. -1.
<scales pt_clust_5="13000.00000" pt_clust_6="13000.00000" pt_clust_7="13000.00000" pt_clust_8="13000.00000" pt_clust_9="28.49657" pt_clust_10="70.84572"></scales>
<clustering>
<clus scale="   28.497">  1  9  2 -1</clus>
<clus scale="   70.846">  2 10  1 -1</clus>
<clus scale="   91.145">  7  8 -1 -1</clus>
<clus scale="   92.528">  5  6 -1 -1</clus>
<clus scale="  207.031">  1  7  2 -1</clus>
<clus scale="   70.846">  2  5  1 -1</clus>
</clustering>
</event>
<event>
10    2  0.3984345E-006  0.1129332E+03  0.7546771E-02  0.1257034E+00
         21   -1    0    0  501  502  0.00000000000E+00  0.00000000000E+00  0.22583196787E+03  0.22583196787E+03  0.00000000000E+00 0. -1.
          1   -1    0    0  503    0 -0.00000000000E+00 -0.00000000000E+00 -0.18440493950E+03  0.18440493950E+03  0.00000000000E+00 0. -1.
         23    2    1    2    0    0  0.57672755782E+02  0.40636353917E+02  0.49880268954E+01  0.11232464367E+03  0.87261017326E+02 0.  0.
         23    2    1    2    0    0 -0.70033118827E+02 -0.21034503498E+02  0.75000166141E+02  0.13951261576E+03  0.92150187010E+02 0.  0.
        -11    1    4    4    0    0  0.22757447868E+02 -0.53786456087E+01  0.17816492728E+02  0.29398276739E+02  0.00000000000E+00 0.  1.
         11    1    4    4    0    0 -0.92790566695E+02 -0.15655857889E+02  0.57183673413E+02  0.11011433902E+03  0.00000000000E+00 0. -1.
        -11    1    3    3    0    0  0.58234854185E+02 -0.84268996927E+01  0.18053022697E+02  0.61548537829E+02  0.00000000000E+00 0. -1.
         11    1    3    3    0    0 -0.56209840242E+00  0.49063253610E+02 -0.13064995801E+02  0.50776105844E+02  0.00000000000E+00 0.  1.
         21    1    1    2  503  502 -0.23168079578E+00 -0.45920808459E+02 -0.88989445554E+02  0.10013938159E+03  0.00000000000E+00 0. -1.
          1    1    1    2  501    0  0.12592043840E+02  0.26318958040E+02  0.50428280885E+02  0.58260266335E+02  0.00000000000E+00 0. -1.
<scales pt_clust_5="13000.00000" pt_clust_6="13000.00000" pt_clust_7="13000.00000" pt_clust_8="13000.00000" pt_clust_9="45.06554" pt_clust_10="29.17614"></scales>
<clustering>
<clus scale="   29.176">  1 10  2 -1</clus>
<clus scale="   45.066">  2  9  1 -1</clus>
<clus scale="   87.261">  7  8 -1 -1</clus>
<clus scale="   92.150">  5  6 -1 -1</clus>
<clus scale="  108.980">  2  7  1 -1</clus>
<clus scale="   29.176">  1  5  2 -1</clus>
</clustering>
</event>
<event>
10    2  0.3984345E-006  0.1811060E+03  0.7546771E-02  0.1166895E+00
         21   -1    0    0  501  502  0.00000000000E+00  0.00000000000E+00  0.20419211119E+03  0.20419211119E+03  0.00000000000E+00 0. -1.
          1   -1    0    0  503    0 -0.00000000000E+00 -0.00000000000E+00 -0.50678347734E+03  0.50678347734E+03  0.00000000000E+00 0. -1.
         23    2    1    2    0    0 -0.63116251092E+02  0.13864317065E+03 -0.31711261422E+03  0.36290035547E+03  0.89054297958E+02 0.  0.
         23    2    1    2    0    0  0.95343641141E+02 -0.17556829955E+03  0.34582741452E+01  0.21930584064E+03  0.90379501929E+02 0.  0.
        -11    1    3    3    0    0 -0.24858493835E+01  0.89953429313E+02 -0.11284454653E+03  0.14433187650E+03  0.00000000000E+00 0.  1.
         11    1    3    3    0    0 -0.60630401708E+02  0.48689741341E+02 -0.20426806769E+03  0.21856847898E+03  0.00000000000E+00 0. -1.
        -13    1    4    4    0    0  0.82307250434E+02 -0.12725210123E+03 -0.35775300801E+02  0.15571593653E+03  0.00000000000E+00 0. -1.
         13    1    4    4    0    0  0.13036390707E+02 -0.48316198321E+02  0.39233574946E+02  0.63589904119E+02  0.00000000000E+00 0.  1.
         21    1    1    2  503  502  0.31987011204E+02  0.42478078486E+01 -0.31493461908E+02  0.45089365711E+02  0.00000000000E+00 0.  1.
          1    1    1    2  501    0 -0.64214401254E+02  0.32677321045E+02  0.42556435832E+02  0.83680026708E+02  0.00000000000E+00 0. -1.
<scales pt_clust_5="13000.00000" pt_clust_6="13000.00000" pt_clust_7="13000.00000" pt_clust_8="13000.00000" pt_clust_9="32.26783" pt_clust_10="70.88855"></scales>
<clustering>
<clus scale="   32.268">  2  9  1 -1</clus>
<clus scale="   70.889">  1 10  2 -1</clus>
<clus scale="   89.054">  5  6 -1 -1</clus>
<clus scale="   90.380">  7  8 -1 -1</clus>
<clus scale="  180.448">  2  5  1 -1</clus>
<clus scale="   70.889">  1  5  2 -1</clus>
</clustering>
</event>
<event>
10    2  0.3984345E-006  0.1278537E+03  0.7546771E-02  0.1231372E+00
          1   -1    0    0  503    0 -0.00000000000E+00  0.00000000000E+00  0.24375839365E+03  0.24375839365E+03  0.00000000000E+00 0. -1.
         21   -1    0    0  501  502  0.00000000000E+00 -0.00000000000E+00 -0.29610902482E+03  0.29610902482E+03  0.00000000000E+00 0.  1.
         23    2    1    2    0    0 -0.36275624130E+02 -0.71133068763E+02  0.80053752003E+02  0.14811367322E+03  0.95672475698E+02 0.  0.
         23    2    1    2    0    0  0.30337731639E+01  0.74101600701E+02 -0.77971496628E+02  0.14237356938E+03  0.93222464919E+02 0.  0.
        -11    1    4    4    0    0 -0.30788308449E+02  0.73101724521E+02 -0.73687718372E+02  0.10826662415E+03  0.00000000000E+00 0.  1.
         11    1    4    4    0    0  0.33822081613E+02  0.99987617947E+00 -0.42837782553E+01  0.34106945234E+02  0.00000000000E+00 0. -1.
        -13    1    3    3    0    0 -0.55404538442E+02 -0.83204786394E+02  0.74909709895E+02  0.12491662818E+03  0.00000000000E+00 0. -1.
         13    1    3    3    0    0  0.19128914311E+02  0.12071717631E+02  0.51440421079E+01  0.23197045038E+02  0.00000000000E+00 0.  1.
         21    1    1    2  503  502  0.19548927187E+02 -0.22218039032E+02  0.94273386960E+02  0.98809277406E+02  0.00000000000E+00 0. -1.
          1    1    1    2  501    0  0.13692923780E+02  0.19249507095E+02 -0.14870627351E+03  0.15057089847E+03  0.00000000000E+00 0. -1.
<scales pt_clust_5="13000.00000" pt_clust_6="13000.00000" pt_clust_7="13000.00000" pt_clust_8="13000.00000" pt_clust_9="29.51238" pt_clust_10="23.62286"></scales>
<clustering>
<clus scale="   23.623">  2 10  1 -1</clus>
<clus scale="   29.512">  1  9  2 -1</clus>
<clus scale="   93.222">  5  6 -1 -1</clus>
<clus scale="   95.672">  7  8 -1 -1</clus>
<clus scale="  126.031">  2  5  1 -1</clus>
<clus scale="   23.623">  2  5  1 -1</clus>
</clustering>
</event>
<event>
10    2  0.3984345E-006  0.9570548E+02  0.7546771E-02  0.1290203E+00
         21   -1    0    0  501  502  0.00000000000E+00  0.00000000000E+00  0.86435954823E+03  0.86435954823E+03  0.00000000000E+00 0. -1.
          3   -1    0    0  503    0 -0.00000000000E+00 -0.00000000000E+00 -0.98319130689E+02  0.98319130689E+02  0.00000000000E+00 0. -1.
         23    2    1    2    0    0 -0.20243852826E+02 -0.71488037276E+00  0.85150664143E+02  0.12782220764E+03  0.93153403216E+02 0.  0.
         23    2    1    2    0    0 -0.34979801467E+02 -0.43910991407E+02  0.10317696372E+03  0.14922652197E+03  0.92039705233E+02 0.  0.
        -11    1    4    4    0    0 -0.57119703696E+02  0.16391413609E+01  0.56180560805E+02  0.80134903426E+02  0.00000000000E+00 0. -1.
         11    1    4    4    0    0  0.22139902229E+02 -0.45550132768E+02  0.46996402911E+02  0.69091618540E+02  0.00000000000E+00 0.  1.
        -11    1    3    3    0    0  0.28221241823E+02 -0.20661559212E+02  0.60550910140E+02  0.69926756237E+02  0.00000000000E+00 0.  1.
         11    1    3    3    0    0 -0.48465094649E+02  0.19946678840E+02  0.24599754004E+02  0.57895451403E+02  0.00000000000E+00 0. -1.
         21    1    1    2  503  502 -0.34929645993E+02  0.42139782163E+02 -0.35878884027E+02  0.65445670055E+02  0.00000000000E+00 0. -1.
          3    1    1    2  501    0  0.90153300287E+02  0.24860896166E+01  0.61359167370E+03  0.62018427925E+03  0.00000000000E+00 0. -1.
<scales pt_clust_5="13000.00000" pt_clust_6="13000.00000" pt_clust_7="13000.00000" pt_clust_8="13000.00000" pt_clust_9="54.73428" pt_clust_10="87.90338"></scales>
<clustering>
<clus scale="   54.734">  2  9  1 -1</clus>
<clus scale="   87.903">  1 10  2 -1</clus>
<clus scale="   92.040">  5  6 -1 -1</clus>
<clus scale="   93.153">  7  8 -1 -1</clus>
<clus scale="   94.622">  1  5  2 -1</clus>
<clus scale="   87.903">  1  5  2 -1</clus>
</clustering>
</event>
<event>
10    2  0.3984345E-006  0.1177551E+03  0.7546771E-02  0.1246961E+00
         21   -1    0    0  501  502  0.00000000000E+00  0.00000000000E+00  0.67112350295E+03  0.67112350295E+03  0.00000000000E+00 0.  1.
          2   -1    0    0  503    0 -0.00000000000E+00 -0.00000000000E+00 -0.32530826990E+03  0.32530826990E+03  0.00000000000E+00 0. -1.
         23    2    1    2    0    0 -0.49208663144E+02  0.56059828652E+02 -0.28226780519E+03  0.30585560987E+03  0.91150114238E+02 0.  0.
         23    2    1    2    0    0  0.72831235582E+02 -0.32295224380E+02  0.57922617906E+03  0.59168866414E+03  0.90802744325E+02 0.  0.
        -11    1    3    3    0    0 -0.41212042761E+02 -0.90345275661E+01 -0.17594283978E+03  0.18093075478E+03  0.00000000000E+00 0. -1.
         11    1    3    3    0    0 -0.79966203824E+01  0.65094356218E+02 -0.10632496541E+03  0.12492485509E+03  0.00000000000E+00 0.  1.
        -13    1    4    4    0    0 -0.87754368416E+01 -0.33830058754E+02  0.11007036400E+03  0.11548578353E+03  0.00000000000E+00 0. -1.
         13    1    4    4    0    0  0.81606672423E+02  0.15348343740E+01  0.46915581506E+03  0.47620288061E+03  0.00000000000E+00 0.  1.
         21    1    1    2  503  502 -0.31624542929E+02  0.22291076315E+02  0.16653474846E+02  0.42122939393E+02  0.00000000000E+00 0.  1.
          2    1    1    2  501    0  0.80019704905E+01 -0.46055680587E+02  0.32203384338E+02  0.56764559444E+02  0.00000000000E+00 0. -1.
<scales pt_clust_5="13000.00000" pt_clust_6="13000.00000" pt_clust_7="13000.00000" pt_clust_8="13000.00000" pt_clust_9="38.69113" pt_clust_10="44.88807"></scales>
<clustering>
<clus scale="   38.691">  1  9  2 -1</clus>
<clus scale="   44.888">  1 10  2 -1</clus>
<clus scale="   90.803">  7  8 -1 -1</clus>
<clus scale="   91.150">  5  6 -1 -1</clus>
<clus scale="  117.486">  1  7  2 -1</clus>
<clus scale="   38.691">  1  5  2 -1</clus>
</clustering>
</event>
<event>
10    2  0.3984345E-006  0.1397260E+03  0.7546771E-02  0.1214477E+00
         21   -1    0    0  501  502  0.00000000000E+00  0.00000000000E+00  0.91403874354E+02  0.91403874354E+02  0.00000000000E+00 0. -1.
          2   -1    0    0  503    0 -0.00000000000E+00 -0.00000000000E+00 -0.11819327207E+04  0.11819327207E+04  0.00000000000E+00 0. -1.
         23    2    1    2    0    0  0.46409437541E+02 -0.28458895289E+02 -0.27516459274E+03  0.29473907652E+03  0.90508704102E+02 0.  0.
         23    2    1    2    0    0 -0.19133673506E+03 -0.25883573118E+02 -0.46110870299E+03  0.50740363011E+03  0.86933896341E+02 0.  0.
        -13    1    3    3    0    0  0.70241216659E+02 -0.17260318711E+02 -0.14620343080E+03  0.16311710609E+03  0.00000000000E+00 0.  1.
         13    1    3    3    0    0 -0.23831779118E+02 -0.11198576578E+02 -0.12896116194E+03  0.13162197044E+03  0.00000000000E+00 0. -1.
        -13    1    4    4    0    0 -0.17468959505E+03  0.67109167173E+01 -0.37008908695E+03  0.40930114012E+03  0.00000000000E+00 0. -1.
         13    1    4    4    0    0 -0.16647140008E+02 -0.32594489835E+02 -0.91019616049E+02  0.98102489998E+02  0.00000000000E+00 0.  1.
         21    1    1    2  503  502  0.67834716032E+02  0.22192542357E+02 -0.37774306198E+03  0.38442668808E+03  0.00000000000E+00 0.  1.
          2    1    1    2  501    0  0.77092581490E+02  0.32149926049E+02  0.23487511360E+02  0.86767200344E+02  0.00000000000E+00 0. -1.
<scales pt_clust_5="13000.00000" pt_clust_6="13000.00000" pt_clust_7="13000.00000" pt_clust_8="13000.00000" pt_clust_9="71.37267" pt_clust_10="86.33904"></scales>
<clustering>
<clus scale="   71.373">  2  9  1 -1</clus>
<clus scale="   86.339">  1 10  2 -1</clus>
<clus scale="   86.934">  7  8 -1 -1</clus>
<clus scale="   90.509">  5  6 -1 -1</clus>
<clus scale="  137.437">  1  7  2 -1</clus>
<clus scale="   86.339">  1  5  2 -1</clus>
</clustering>
</event>
<event>
10    2  0.3984345E-006  0.1079093E+03  0.7546771E-02  0.1264946E+00
          4   -1    0    0  503    0 -0.00000000000E+00  0.00000000000E+00  0.65146207245E+03  0.65146207245E+03  0.00000000000E+00 0. -1.
         21   -1    0    0  501  502  0.00000000000E+00 -0.00000000000E+00 -0.60118248576E+02  0.60118248576E+02  0.00000000000E+00 0.  1.
         23    2    1    2    0    0 -0.23820979771E+02 -0.50710218294E+02  0.45504879596E+03  0.46764027067E+03  0.92081761123E+02 0.  0.
         23    2    1    2    0    0  0.93026048992E+01  0.34630948624E+02  0.38692291516E+02  0.10515275254E+03  0.90962447653E+02 0.  0.
        -11    1    4    4    0    0 -0.18978011153E+02  0.54491095515E+02  0.40582720697E+02  0.70543614998E+02  0.00000000000E+00 0.  1.
         11    1    4    4    0    0  0.28280616052E+02 -0.19860146891E+02 -0.18904291808E+01  0.34609137541E+02  0.00000000000E+00 0. -1.
        -13    1    3    3    0    0 -0.54962342483E+02 -0.16337713131E+02  0.18649498184E+03  0.19511063070E+03  0.00000000000E+00 0.  1.
         13    1    3    3    0    0  0.31141362712E+02 -0.34372505163E+02  0.26855381412E+03  0.27252963997E+03  0.00000000000E+00 0. -1.
         21    1    1    2  503  502 -0.25419963003E+02  0.81614989177E+01  0.94222119578E+02  0.97931569993E+02  0.00000000000E+00 0. -1.
          4    1    1    2  501    0  0.39938337875E+02  0.79177707526E+01  0.33806168199E+01  0.40855727824E+02  0.00000000000E+00 0. -1.
<scales pt_clust_5="13000.00000" pt_clust_6="13000.00000" pt_clust_7="13000.00000" pt_clust_8="13000.00000" pt_clust_9="26.69803" pt_clust_10="39.78915"></scales>
<clustering>
<clus scale="   26.698">  1  9  2 -1</clus>
<clus scale="   39.789">  2 10  1 -1</clus>
<clus scale="   90.962">  5  6 -1 -1</clus>
<clus scale="   92.082">  7  8 -1 -1</clus>
<clus scale="  106.956">  2  5  1 -1</clus>
<clus scale="   39.789">  2  5  1 -1</clus>
</clustering>
</event>
<event>
10    2  0.3984345E-006  0.1122000E+03  0.7546771E-02  0.1261907E+00
         21   -1    0    0  501  502  0.00000000000E+00  0.00000000000E+00  0.62202135712E+03  0.62202135712E+03  0.00000000000E+00 0. -1.
          2   -1    0    0  503    0 -0.00000000000E+00 -0.00000000000E+00 -0.82111552895E+02  0.82111552895E+02  0.00000000000E+00 0. -1.
         23    2    1    2    0    0 -0.32525147434E+02  0.24257326604E+02  0.25913392392E+01  0.11155641205E+03  0.10388366051E+03 0.  0.
         23    2    1    2    0    0  0.24534622665E+02 -0.13669080329E+02  0.18988989182E+03  0.21270910464E+03  0.91641697469E+02 0.  0.
        -11    1    3    3    0    0 -0.22926688646E+02  0.20795669963E+00  0.51412586223E+02  0.56293252885E+02  0.00000000000E+00 0.  1.
         11    1    3    3    0    0 -0.95984587879E+01  0.24049369904E+02 -0.48821246984E+02  0.55263159165E+02  0.00000000000E+00 0. -1.
        -13    1    4    4    0    0 -0.15372048574E+02  0.24851264705E+02  0.24068065975E+02  0.37857060564E+02  0.00000000000E+00 0. -1.
         13    1    4    4    0    0  0.39906671239E+02 -0.38520345034E+02  0.16582182584E+03  0.17485204408E+03  0.00000000000E+00 0.  1.
         21    1    1    2  503  502  0.39181464161E+02  0.46519089938E+02  0.61000348701E+02  0.86140904361E+02  0.00000000000E+00 0. -1.
          2    1    1    2  501    0 -0.31190939391E+02 -0.57107336212E+02  0.28642822446E+03  0.29372648896E+03  0.00000000000E+00 0. -1.
<scales pt_clust_5="13000.00000" pt_clust_6="13000.00000" pt_clust_7="13000.00000" pt_clust_8="13000.00000" pt_clust_9="60.82115" pt_clust_10="61.94550"></scales>
<clustering>
<clus scale="   60.821">  2  9  1 -1</clus>
<clus scale="   61.946">  1 10  2 -1</clus>
<clus scale="   91.642">  7  8 -1 -1</clus>
<clus scale="  100.971">  1  7  2 -1</clus>
<clus scale="  103.884">  5  6 -1 -1</clus>
<clus scale="   61.946">  1  5  2 -1</clus>
</clustering>
</event>
<event>
10    2  0.3984345E-006  0.9949860E+02  0.7546771E-02  0.1283765E+00
         -1   -1    0    0    0  501 -0.00000000000E+00  0.00000000000E+00  0.24236097584E+03  0.24236097584E+03  0.00000000000E+00 0.  1.
         21   -1    0    0  503  502  0.00000000000E+00 -0.00000000000E+00 -0.11218439336E+03  0.11218439336E+03  0.00000000000E+00 0.  1.
         23    2    1    2    0    0 -0.22887616169E+02  0.59391320411E+00  0.16708970522E+03  0.19336595501E+03  0.94589784106E+02 0.  0.
         23    2    1    2    0    0  0.12485167829E+02  0.81430909424E+01 -0.42272754743E+02  0.10045758178E+03  0.89903006616E+02 0.  0.
        -13    1    3    3    0    0 -0.57930239502E+02 -0.12908799984E+02  0.93472474584E+02  0.11072331855E+03  0.00000000000E+00 0.  1.
         13    1    3    3    0    0  0.35042623334E+02  0.13502713188E+02  0.73617230639E+02  0.82642636457E+02  0.00000000000E+00 0. -1.
        -13    1    4    4    0    0 -0.24228673808E+02  0.64620633911E+01 -0.55894925754E+02  0.61261975342E+02  0.00000000000E+00 0.  1.
         13    1    4    4    0    0  0.36713841637E+02  0.16810275513E+01  0.13622171011E+02  0.39195606443E+02  0.00000000000E+00 0. -1.
         21    1    1    2  503  501 -0.10819315071E+02 -0.19691028461E+02  0.22132721622E+02  0.31538096754E+02  0.00000000000E+00 0.  1.
         -1    1    1    2    0  502  0.21221763410E+02  0.10954024315E+02 -0.16773089620E+02  0.29183735647E+02  0.00000000000E+00 0.  1.
<scales pt_clust_5="13000.00000" pt_clust_6="13000.00000" pt_clust_7="13000.00000" pt_clust_8="13000.00000" pt_clust_9="22.46763" pt_clust_10="23.34803"></scales>
<clustering>
<clus scale="   22.468">  1  9  2 -1</clus>
<clus scale="   23.348">  2 10  1 -1</clus>
<clus scale="   89.903">  7  8 -1 -1</clus>
<clus scale="   94.590">  5  6 -1 -1</clus>
<clus scale="   95.054">  2  7  1 -1</clus>
<clus scale="   23.348">  2  5  1 -1</clus>
</clustering>
</event>
<event>
10    2  0.3984345E-006  0.2559043E+03  0.7546771E-02  0.1110583E+00
          1   -1    0    0  503    0 -0.00000000000E+00  0.00000000000E+00  0.84061551505E+03  0.84061551505E+03  0.00000000000E+00 0. -1.
         21   -1    0    0  501  502  0.00000000000E+00 -0.00000000000E+00 -0.18303765348E+03  0.18303765348E+03  0.00000000000E+00 0. -1.
         23    2    1    2    0    0 -0.14963125514E+03 -0.19244808300E+03  0.62696565693E+03  0.68113387487E+03  0.10691886343E+03 0.  0.
         23    2    1    2    0    0  0.10172790889E+03  0.16803138287E+03  0.42234516829E+02  0.22066225714E+03  0.91241241980E+02 0.  0.
        -11    1    3    3    0    0 -0.94918492328E+02 -0.10583202244E+03  0.48928181898E+03  0.50951607977E+03  0.00000000000E+00 0. -1.
         11    1    3    3    0    0 -0.54712762814E+02 -0.86616060562E+02  0.13768383796E+03  0.17161779511E+03  0.00000000000E+00 0.  1.
        -13    1    4    4    0    0  0.69056905221E+02  0.13816217835E+03  0.68742275111E+02  0.16906550232E+03  0.00000000000E+00 0. -1.
         13    1    4    4    0    0  0.32671003668E+02  0.29869204513E+02 -0.26507758282E+02  0.51596754821E+02  0.00000000000E+00 0.  1.
         21    1    1    2  503  502  0.45010154170E+02 -0.43739271136E+01  0.41491635038E+02  0.61372640443E+02  0.00000000000E+00 0.  1.
          1    1    1    2  501    0  0.28931920846E+01  0.28790627249E+02 -0.53113947235E+02  0.60484396076E+02  0.00000000000E+00 0. -1.
<scales pt_clust_5="13000.00000" pt_clust_6="13000.00000" pt_clust_7="13000.00000" pt_clust_8="13000.00000" pt_clust_9="45.28701" pt_clust_10="28.93563"></scales>
<clustering>
<clus scale="   28.936">  2 10  1 -1</clus>
<clus scale="   45.287">  2  9  1 -1</clus>
<clus scale="   91.241">  7  8 -1 -1</clus>
<clus scale="  106.919">  5  6 -1 -1</clus>
<clus scale="  249.761">  2  7  1 -1</clus>
<clus scale="   28.936">  2  5  1 -1</clus>
</clustering>
</event>
<event>
10    2  0.3984345E-006  0.1090986E+03  0.7546771E-02  0.1269982E+00
          2   -1    0    0  503    0 -0.00000000000E+00  0.00000000000E+00  0.36067434731E+03  0.36067434731E+03  0.00000000000E+00 0. -1.
         21   -1    0    0  501  502  0.00000000000E+00 -0.00000000000E+00 -0.20301590536E+03  0.20301590536E+03  0.00000000000E+00 0.  1.
         23    2    1    2    0    0 -0.63574255109E+02  0.14422183312E+02  0.13647666847E+03  0.17616939845E+03  0.90333219962E+02 0.  0.
         23    2    1    2    0    0 -0.22659275093E+02  0.10592733849E+02 -0.12834266399E+03  0.16837853664E+03  0.10608413380E+03 0.  0.
        -11    1    4    4    0    0 -0.30133410140E+02 -0.44287547692E+02 -0.65361100424E+02  0.84507293980E+02  0.00000000000E+00 0. -1.
         11    1    4    4    0    0  0.74741350477E+01  0.54880281540E+02 -0.62981563563E+02  0.83871242661E+02  0.00000000000E+00 0.  1.
        -11    1    3    3    0    0 -0.66363143432E+02 -0.23809140675E+02  0.10547229652E+03  0.12686743995E+03  0.00000000000E+00 0. -1.
         11    1    3    3    0    0  0.27888883232E+01  0.38231323987E+02  0.31004371950E+02  0.49301958500E+02  0.00000000000E+00 0.  1.
         21    1    1    2  503  502  0.44440952143E+02 -0.35760601763E+02  0.16399216592E+03  0.17362963270E+03  0.00000000000E+00 0. -1.
          2    1    1    2  501    0  0.41792578058E+02  0.10745684602E+02 -0.14467728458E+02  0.45512684881E+02  0.00000000000E+00 0. -1.
<scales pt_clust_5="13000.00000" pt_clust_6="13000.00000" pt_clust_7="13000.00000" pt_clust_8="13000.00000" pt_clust_9="57.76946" pt_clust_10="43.15193"></scales>
<clustering>
<clus scale="   43.152">  2 10  1 -1</clus>
<clus scale="   57.769">  1  9  2 -1</clus>
<clus scale="   90.333">  7  8 -1 -1</clus>
<clus scale="   93.855">  1  7  2 -1</clus>
<clus scale="  106.084">  5  6 -1 -1</clus>
<clus scale="   43.152">  2  5  1 -1</clus>
</clustering>
</event>
<event>
10    2  0.3984345E-006  0.1482273E+03  0.7546771E-02  0.1203048E+00
         21   -1    0    0  501  502  0.00000000000E+00  0.00000000000E+00  0.79141083020E+02  0.79141083020E+02  0.00000000000E+00 0.  1.
          2   -1    0    0  503    0 -0.00000000000E+00 -0.00000000000E+00 -0.52681074797E+03  0.52681074797E+03  0.00000000000E+00 0. -1.
         23    2    1    2    0    0  0.37207055244E+02 -0.10346653252E+03 -0.24879366415E+03  0.28636846347E+03  0.89548429579E+02 0.  0.
         23    2    1    2    0    0 -0.48953260533E+02  0.10556152792E+03 -0.13073332707E+03  0.19750370168E+03  0.91525141230E+02 0.  0.
        -11    1    4    4    0    0 -0.65610016366E+02  0.40016228174E+02 -0.90834498519E+02  0.11898268313E+03  0.00000000000E+00 0.  1.
         11    1    4    4    0    0  0.16656755833E+02  0.65545299748E+02 -0.39898828555E+02  0.78521018549E+02  0.00000000000E+00 0. -1.
        -13    1    3    3    0    0  0.37385154471E+02 -0.33263825172E+02 -0.18452556499E+03  0.19119052271E+03  0.00000000000E+00 0. -1.
         13    1    3    3    0    0 -0.17809922682E+00 -0.70202707345E+02 -0.64268099156E+02  0.95177940759E+02  0.00000000000E+00 0.  1.
         21    1    1    2  503  502 -0.17554776643E+01 -0.22579594475E+02 -0.87779988208E+02  0.90654542734E+02  0.00000000000E+00 0. -1.
          2    1    1    2  501    0  0.13501682953E+02  0.20484599071E+02  0.19637314481E+02  0.31425123098E+02  0.00000000000E+00 0. -1.
<scales pt_clust_5="13000.00000" pt_clust_6="13000.00000" pt_clust_7="13000.00000" pt_clust_8="13000.00000" pt_clust_9="22.64773" pt_clust_10="24.26745"></scales>
<clustering>
<clus scale="   22.648">  2  9  1 -1</clus>
<clus scale="   24.267">  1 10  2 -1</clus>
<clus scale="   89.548">  7  8 -1 -1</clus>
<clus scale="   91.525">  5  6 -1 -1</clus>
<clus scale="  147.015">  2  7  1 -1</clus>
<clus scale="   24.267">  1  5  2 -1</clus>
</clustering>
</event>
<event>
10    2  0.3984345E-006  0.1054278E+03  0.7546771E-02  0.1272724E+00
         -4   -1    0    0    0  501 -0.00000000000E+00  0.00000000000E+00  0.90922758357E+02  0.90922758357E+02  0.00000000000E+00 0.  1.
         21   -1    0    0  503  502  0.00000000000E+00 -0.00000000000E+00 -0.29510976857E+03  0.29510976857E+03  0.00000000000E+00 0. -1.
         23    2    1    2    0    0 -0.65718687443E+02  0.23259192423E+02 -0.23152776909E+02  0.12211332476E+03  0.97548332093E+02 0.  0.
         23    2    1    2    0    0 -0.21958201968E+01 -0.31181969755E+02 -0.14203835184E+03  0.17112361435E+03  0.90173505700E+02 0.  0.
        -11    1    3    3    0    0 -0.29567848882E+02  0.34606351308E+02  0.31684251881E+02  0.55459436128E+02  0.00000000000E+00 0.  1.
         11    1    3    3    0    0 -0.36150838561E+02 -0.11347158885E+02 -0.54837028789E+02  0.66653888633E+02  0.00000000000E+00 0. -1.
        -13    1    4    4    0    0  0.38370922894E+02  0.78121969314E+01 -0.57023550992E+02  0.69174008937E+02  0.00000000000E+00 0.  1.
         13    1    4    4    0    0 -0.40566743090E+02 -0.38994166686E+02 -0.85014800849E+02  0.10194960541E+03  0.00000000000E+00 0. -1.
         21    1    1    2  503  501  0.37060910658E+02  0.53128435623E+01  0.62613217774E+01  0.37959735983E+02  0.00000000000E+00 0. -1.
         -4    1    1    2    0  502  0.30853596982E+02  0.26099337698E+01 -0.45257203237E+02  0.54835851829E+02  0.00000000000E+00 0.  1.
<scales pt_clust_5="13000.00000" pt_clust_6="13000.00000" pt_clust_7="13000.00000" pt_clust_8="13000.00000" pt_clust_9="39.43914" pt_clust_10="30.96379"></scales>
<clustering>
<clus scale="   30.964">  2 10  1 -1</clus>
<clus scale="   39.439">  1  9  2 -1</clus>
<clus scale="   90.174">  7  8 -1 -1</clus>
<clus scale="   97.548">  5  6 -1 -1</clus>
<clus scale="   98.644">  2  7  1 -1</clus>
<clus scale="   30.964">  2  5  1 -1</clus>
</clustering>
</event>
<event>
10    2  0.3984345E-006  0.9448021E+02  0.7546771E-02  0.1292891E+00
         21   -1    0    0  501  502  0.00000000000E+00  0.00000000000E+00  0.15657922680E+03  0.15657922680E+03  0.00000000000E+00 0. -1.
          2   -1    0    0  503    0 -0.00000000000E+00 -0.00000000000E+00 -0.28872926175E+03  0.28872926175E+03  0.00000000000E+00 0. -1.
         23    2    1    2    0    0 -0.37833572467E+01 -0.48096304063E+01 -0.11973126797E+03  0.15048322917E+03  0.90951522233E+02 0.  0.
         23    2    1    2    0    0  0.45100825055E+02  0.84980120489E+01 -0.99448076769E+02  0.14299084470E+03  0.91924757626E+02 0.  0.
        -13    1    4    4    0    0  0.12433758473E+01 -0.26648080427E+02 -0.78670669313E+02  0.83070695098E+02  0.00000000000E+00 0.  1.
         13    1    4    4    0    0  0.43857449208E+02  0.35146092476E+02 -0.20777407457E+02  0.59920149599E+02  0.00000000000E+00 0. -1.
        -13    1    3    3    0    0  0.41994698485E+02 -0.10072787533E+02 -0.73245872980E+02  0.85029251779E+02  0.00000000000E+00 0. -1.
         13    1    3    3    0    0 -0.45778055732E+02  0.52631571271E+01 -0.46485394990E+02  0.65453977395E+02  0.00000000000E+00 0.  1.
         21    1    1    2  503  502 -0.61786490742E+02 -0.10862682655E+02  0.61241041830E+00  0.62737097153E+02  0.00000000000E+00 0.  1.
          2    1    1    2  501    0  0.20469022933E+02  0.71743010125E+01  0.86416899362E+02  0.89097317525E+02  0.00000000000E+00 0. -1.
<scales pt_clust_5="13000.00000" pt_clust_6="13000.00000" pt_clust_7="13000.00000" pt_clust_8="13000.00000" pt_clust_9="52.90882" pt_clust_10="21.68989"></scales>
<clustering>
<clus scale="   21.690">  1 10  2 -1</clus>
<clus scale="   52.909">  1  9  2 -1</clus>
<clus scale="   90.952">  7  8 -1 -1</clus>
<clus scale="   91.925">  5  6 -1 -1</clus>
<clus scale="   93.534">  2  7  1 -1</clus>
<clus scale="   21.690">  1  5  2 -1</clus>
</clustering>
</event>
<event>
10    2  0.3984345E-006  0.2145829E+03  0.7546771E-02  0.1139097E+00
         -2   -1    0    0    0  501 -0.00000000000E+00  0.00000000000E+00  0.13490914412E+03  0.13490914412E+03  0.00000000000E+00 0.  1.
         21   -1    0    0  503  502  0.00000000000E+00 -0.00000000000E+00 -0.79412440776E+03  0.79412440776E+03  0.00000000000E+00 0.  1.
         23    2    1    2    0    0  0.17782751396E+03 -0.23626916931E+02 -0.26470974263E+03  0.33316315334E+03  0.93517821695E+02 0.  0.
         23    2    1    2    0    0 -0.20177622442E+03 -0.48504701442E+01 -0.29225986683E+03  0.37054701574E+03  0.10560345313E+03 0.  0.
        -11    1    3    3    0    0  0.15488046653E+03  0.69396725526E+01 -0.16514881181E+03  0.22651765497E+03  0.00000000000E+00 0.  1.
         11    1    3    3    0    0  0.22947047431E+02 -0.30566589484E+02 -0.99560930813E+02  0.10664549837E+03  0.00000000000E+00 0. -1.
        -13    1    4    4    0    0 -0.14095722454E+03  0.33827425069E+02 -0.13737307744E+03  0.19971128221E+03  0.00000000000E+00 0.  1.
         13    1    4    4    0    0 -0.60818999889E+02 -0.38677895213E+02 -0.15488678939E+03  0.17083573353E+03  0.00000000000E+00 0. -1.
         21    1    1    2  503  501 -0.29787216507E+02  0.15388841317E+02  0.51769986174E+02  0.61678409292E+02  0.00000000000E+00 0.  1.
         -2    1    1    2    0  502  0.53735926972E+02  0.13088545758E+02 -0.15401564037E+03  0.16364497351E+03  0.00000000000E+00 0.  1.
<scales pt_clust_5="13000.00000" pt_clust_6="13000.00000" pt_clust_7="13000.00000" pt_clust_8="13000.00000" pt_clust_9="33.52752" pt_clust_10="53.76609"></scales>
<clustering>
<clus scale="   33.528">  1  9  2 -1</clus>
<clus scale="   53.766">  2 10  1 -1</clus>
<clus scale="   93.518">  5  6 -1 -1</clus>
<clus scale="  105.603">  7  8 -1 -1</clus>
<clus scale="  208.900">  1  5  2 -1</clus>
<clus scale="   53.766">  2  5  1 -1</clus>
</clustering>
</event>
<event>
10    2  0.3984345E-006  0.1265617E+03  0.7546771E-02  0.1233705E+00
         21   -1    0    0  501  502  0.00000000000E+00  0.00000000000E+00  0.21825394638E+03  0.21825394638E+03  0.00000000000E+00 0.  1.
          3   -1    0    0  503    0 -0.00000000000E+00 -0.00000000000E+00 -0.18766801507E+03  0.18766801507E+03  0.00000000000E+00 0. -1.
         23    2    1    2    0    0 -0.10064837422E+03 -0.35457325461E+02 -0.46383551794E+02  0.14867619049E+03  0.92551923698E+02 0.  0.
         23    2    1    2    0    0  0.70194208286E+02  0.70402338482E+00 -0.26626583300E+02  0.11628410590E+03  0.88799188174E+02 0.  0.
        -11    1    3    3    0    0 -0.46751658982E+02  0.22058302947E+02 -0.46978839038E+02  0.69851969649E+02  0.00000000000E+00 0.  1.
         11    1    3    3    0    0 -0.53896715238E+02 -0.57515628408E+02  0.59528724454E+00  0.78824220843E+02  0.00000000000E+00 0. -1.
        -13    1    4    4    0    0  0.23447679984E+02  0.27692475290E+02 -0.46307043547E+02  0.58830342225E+02  0.00000000000E+00 0. -1.
         13    1    4    4    0    0  0.46746528302E+02 -0.26988451906E+02  0.19680460246E+02  0.57453763672E+02  0.00000000000E+00 0.  1.
         21    1    1    2  503  502  0.81629526936E+01  0.22960408273E+02 -0.86954115931E+01  0.25873235737E+02  0.00000000000E+00 0. -1.
          3    1    1    2  501    0  0.22291213241E+02  0.11792893803E+02  0.11229147800E+03  0.11508842932E+03  0.00000000000E+00 0. -1.
<scales pt_clust_5="13000.00000" pt_clust_6="13000.00000" pt_clust_7="13000.00000" pt_clust_8="13000.00000" pt_clust_9="24.36830" pt_clust_10="25.36617"></scales>
<clustering>
<clus scale="   24.368">  2  9  1 -1</clus>
<clus scale="   25.366">  1 10  2 -1</clus>
<clus scale="   88.799">  7  8 -1 -1</clus>
<clus scale="   92.552">  5  6 -1 -1</clus>
<clus scale="  123.844">  1  7  2 -1</clus>
<clus scale="   25.366">  1  5  2 -1</clus>
</clustering>
</event>
<event>
10    2  0.3984345E-006  0.1209910E+03  0.7546771E-02  0.1241956E+00
         -1   -1    0    0    0  501 -0.00000000000E+00  0.00000000000E+00  0.34094106608E+03  0.34094106608E+03  0.00000000000E+00 0.  1.
         21   -1    0    0  503  502  0.00000000000E+00 -0.00000000000E+00 -0.17186536535E+03  0.17186536535E+03  0.00000000000E+00 0.  1.
         23    2    1    2    0    0 -0.35368188847E+02  0.52292245391E+02  0.17573125000E+03  0.20798594123E+03  0.91603994513E+02 0.  0.
         23    2    1    2    0    0  0.16409821227E+02 -0.14520851532E+02 -0.68683828636E+02  0.11778664958E+03  0.93145526679E+02 0.  0.
        -11    1    3    3    0    0  0.19260876849E+02 -0.12706584056E+02  0.61268643346E+02  0.65469728217E+02  0.00000000000E+00 0. -1.
         11    1    3    3    0    0 -0.54629065696E+02  0.64998829447E+02  0.11446260666E+03  0.14251621301E+03  0.00000000000E+00 0.  1.
        -13    1    4    4    0    0 -0.10752506837E+02 -0.49693870618E+02 -0.31235788726E+02  0.59672201884E+02  0.00000000000E+00 0.  1.
         13    1    4    4    0    0  0.27162328063E+02  0.35173019086E+02 -0.37448039909E+02  0.58114447692E+02  0.00000000000E+00 0. -1.
         21    1    1    2  503  501 -0.61586450145E+02  0.46452789281E+01  0.72684961987E+02  0.95381199180E+02  0.00000000000E+00 0. -1.
         -1    1    1    2    0  502  0.80544817766E+02 -0.42416672787E+02 -0.10656682619E+02  0.91652641444E+02  0.00000000000E+00 0.  1.
<scales pt_clust_5="13000.00000" pt_clust_6="13000.00000" pt_clust_7="13000.00000" pt_clust_8="13000.00000" pt_clust_9="61.76139" pt_clust_10="82.19130"></scales>
<clustering>
<clus scale="   61.761">  1  9  2 -1</clus>
<clus scale="   82.191">  2 10  1 -1</clus>
<clus scale="   91.604">  5  6 -1 -1</clus>
<clus scale="   93.146">  7  8 -1 -1</clus>
<clus scale="  119.808">  1  5  2 -1</clus>
<clus scale="   82.191">  2  5  1 -1</clus>
</clustering>
</event>
<event>
10    2  0.3984345E-006  0.1379945E+03  0.7546771E-02  0.1228162E+00
         21   -1    0    0  503  502  0.00000000000E+00  0.00000000000E+00  0.51647767538E+03  0.51647767538E+03  0.00000000000E+00 0.  1.
         -1   -1    0    0    0  501 -0.00000000000E+00 -0.00000000000E+00 -0.36230724246E+03  0.36230724246E+03  0.00000000000E+00 0.  1.
         23    2    1    2    0    0  0.11261941400E+02 -0.46404518229E+02  0.71226996507E+02  0.12556934949E+03  0.91728762462E+02 0.  0.
         23    2    1    2    0    0 -0.54424392343E+02 -0.43353865260E+02  0.33788560419E+03  0.35660043736E+03  0.90308461927E+02 0.  0.
        -11    1    3    3    0    0  0.51394558497E+02 -0.33109104715E+02  0.42105807923E+02  0.74232826425E+02  0.00000000000E+00 0. -1.
         11    1    3    3    0    0 -0.40132617097E+02 -0.13295413514E+02  0.29121188583E+02  0.51336523061E+02  0.00000000000E+00 0.  1.
        -11    1    4    4    0    0  0.40911310567E+01 -0.50840990793E+02  0.11078008461E+03  0.12195807003E+03  0.00000000000E+00 0. -1.
         11    1    4    4    0    0 -0.58515523399E+02  0.74871255331E+01  0.22710551957E+03  0.23464236733E+03  0.00000000000E+00 0.  1.
         21    1    1    2  503  501 -0.15410261956E+02  0.10733742107E+03 -0.30107782917E+03  0.32001040195E+03  0.00000000000E+00 0.  1.
         -1    1    1    2    0  502  0.58572712899E+02 -0.17579037585E+02  0.46135661405E+02  0.76604729044E+02  0.00000000000E+00 0.  1.
<scales pt_clust_5="13000.00000" pt_clust_6="13000.00000" pt_clust_7="13000.00000" pt_clust_8="13000.00000" pt_clust_9="103.09377" pt_clust_10="61.15378"></scales>
<clustering>
<clus scale="   61.154">  1 10  2 -1</clus>
<clus scale="   90.308">  7  8 -1 -1</clus>
<clus scale="   91.729">  5  6 -1 -1</clus>
<clus scale="  107.111">  1  7  2 -1</clus>
<clus scale="  103.094">  2  9  1 -1</clus>
<clus scale="   61.154">  1  5  2 -1</clus>
</clustering>
</event>
<event>
10    2  0.3984345E-006  0.4786897E+03  0.7546771E-02  0.1019514E+00
         -2   -1    0    0    0  501 -0.00000000000E+00  0.00000000000E+00  0.47944471935E+03  0.47944471935E+03  0.00000000000E+00 0.  1.
         21   -1    0    0  503  502  0.00000000000E+00 -0.00000000000E+00 -0.76183952152E+03  0.76183952152E+03  0.00000000000E+00 0.  1.
         23    2    1    2    0    0 -0.13951782590E+02  0.55563505284E+03 -0.41755675556E+02  0.56525900429E+03  0.94070406088E+02 0.  0.
         23    2    1    2    0    0 -0.56542728785E+02 -0.38699649448E+03 -0.14465862105E+03  0.42719360070E+03  0.92762540467E+02 0.  0.
        -11    1    3    3    0    0 -0.19132920966E+02  0.44118724633E+02  0.15493107929E+02  0.50522934606E+02  0.00000000000E+00 0. -1.
         11    1    3    3    0    0  0.51811383759E+01  0.51151632821E+03 -0.57248783485E+02  0.51473606968E+03  0.00000000000E+00 0.  1.
        -13    1    4    4    0    0 -0.47228208894E+02 -0.32307566789E+03 -0.80794502068E+02  0.33635716503E+03  0.00000000000E+00 0. -1.
         13    1    4    4    0    0 -0.93145198908E+01 -0.63920826590E+02 -0.63864118978E+02  0.90836435672E+02  0.00000000000E+00 0.  1.
         21    1    1    2  503  501 -0.25145003168E+02 -0.28382062845E+02  0.20352413292E+02  0.43035257667E+02  0.00000000000E+00 0.  1.
         -2    1    1    2    0  502  0.95639514543E+02 -0.14025649551E+03 -0.11633291886E+03  0.20579637821E+03  0.00000000000E+00 0.  1.
<scales pt_clust_5="13000.00000" pt_clust_6="13000.00000" pt_clust_7="13000.00000" pt_clust_8="13000.00000" pt_clust_9="37.91850" pt_clust_10="170.72794"></scales>
<clustering>
<clus scale="   37.919">  1  9  2 -1</clus>
<clus scale="   92.763">  7  8 -1 -1</clus>
<clus scale="   94.070">  5  6 -1 -1</clus>
<clus scale="  170.728">  2 10  1 -1</clus>
<clus scale="  478.434">  2  7  1 -1</clus>
<clus scale="  170.728">  2  5  1 -1</clus>
</clustering>
</event>
<event>
10    2  0.3984345E-006  0.1378727E+03  0.7546771E-02  0.1216245E+00
         21   -1    0    0  503  502  0.00000000000E+00  0.00000000000E+00  0.23189187251E+03  0.23189187251E+03  0.00000000000E+00 0. -1.
         -3   -1    0    0    0  501 -0.00000000000E+00 -0.00000000000E+00 -0.19716504003E+03  0.19716504003E+03  0.00000000000E+00 0.  1.
         23    2    1    2    0    0  0.28065119346E+02 -0.99483445758E+02  0.32690707470E+02  0.14269205186E+03  0.92777865927E+02 0.  0.
         23    2    1    2    0    0  0.64061615246E+01  0.98753532367E+02  0.80246081745E+02  0.15754568389E+03  0.92670976134E+02 0.  0.
        -11    1    4    4    0    0  0.13338998242E+02  0.35325558480E+02  0.85557188075E+02  0.93519283505E+02  0.00000000000E+00 0. -1.
         11    1    4    4    0    0 -0.69328367178E+01  0.63427973886E+02 -0.53111063294E+01  0.64026400389E+02  0.00000000000E+00 0.  1.
        -11    1    3    3    0    0 -0.32256410007E+02 -0.42410788408E+02 -0.43870870313E+00  0.53285489819E+02  0.00000000000E+00 0. -1.
         11    1    3    3    0    0  0.60321529353E+02 -0.57072657350E+02  0.33129416173E+02  0.89406562043E+02  0.00000000000E+00 0.  1.
         21    1    1    2  503  501 -0.25124672854E+02 -0.24158551100E+02 -0.92348880860E+02  0.98707652051E+02  0.00000000000E+00 0.  1.
         -3    1    1    2    0  502 -0.93466080173E+01  0.24888464492E+02  0.14138924132E+02  0.30111524734E+02  0.00000000000E+00 0.  1.
<scales pt_clust_5="13000.00000" pt_clust_6="13000.00000" pt_clust_7="13000.00000" pt_clust_8="13000.00000" pt_clust_9="34.69783" pt_clust_10="26.58561"></scales>
<clustering>
<clus scale="   26.586">  1 10  2 -1</clus>
<clus scale="   34.698">  2  9  1 -1</clus>
<clus scale="   92.671">  5  6 -1 -1</clus>
<clus scale="   92.778">  7  8 -1 -1</clus>
<clus scale="  137.801">  1  5  2 -1</clus>
<clus scale="   26.586">  1  5  2 -1</clus>
</clustering>
</event>
<event>
10    2  0.3984345E-006  0.1023140E+03  0.7546771E-02  0.1277505E+00
         21   -1    0    0  501  502  0.00000000000E+00  0.00000000000E+00  0.62053597561E+02  0.62053597561E+02  0.00000000000E+00 0. -1.
          2   -1    0    0  503    0 -0.00000000000E+00 -0.00000000000E+00 -0.72280316534E+03  0.72280316534E+03  0.00000000000E+00 0. -1.
         23    2    1    2    0    0 -0.33660008753E+02  0.47589733238E+00 -0.36894640937E+03  0.38040362448E+03  0.86326368256E+02 0.  0.
         23    2    1    2    0    0  0.39927977353E+02 -0.58976529571E+02 -0.18559724201E+03  0.21850195340E+03  0.90687887734E+02 0.  0.
        -11    1    4    4    0    0  0.18569804975E+02  0.22376742172E+02 -0.30988839526E+02  0.42495463549E+02  0.00000000000E+00 0.  1.
         11    1    4    4    0    0  0.21358172378E+02 -0.81353271743E+02 -0.15460840249E+03  0.17600648985E+03  0.00000000000E+00 0. -1.
        -13    1    3    3    0    0 -0.19817875103E+02 -0.41399827911E+02 -0.14274830740E+03  0.14994590088E+03  0.00000000000E+00 0. -1.
         13    1    3    3    0    0 -0.13842133650E+02  0.41875725244E+02 -0.22619810198E+03  0.23045772360E+03  0.00000000000E+00 0.  1.
         21    1    1    2  503  502  0.95745313425E+01  0.43206937156E+02 -0.13932230827E+03  0.14618213519E+03  0.00000000000E+00 0. -1.
          2    1    1    2  501    0 -0.15842499943E+02  0.15293695083E+02  0.33116391875E+02  0.39769049832E+02  0.00000000000E+00 0. -1.
<scales pt_clust_5="13000.00000" pt_clust_6="13000.00000" pt_clust_7="13000.00000" pt_clust_8="13000.00000" pt_clust_9="45.86471" pt_clust_10="22.02003"></scales>
<clustering>
<clus scale="   22.020">  1 10  2 -1</clus>
<clus scale="   45.865">  2  9  1 -1</clus>
<clus scale="   86.326">  7  8 -1 -1</clus>
<clus scale="   90.688">  5  6 -1 -1</clus>
<clus scale="   98.469">  2  7  1 -1</clus>
<clus scale="   22.020">  1  5  2 -1</clus>
</clustering>
</event>
<event>
10    2  0.3984345E-006  0.1251268E+03  0.7546771E-02  0.1234971E+00
          1   -1    0    0  503    0 -0.00000000000E+00  0.00000000000E+00  0.62176267406E+02  0.62176267406E+02  0.00000000000E+00 0. -1.
         21   -1    0    0  501  502  0.00000000000E+00 -0.00000000000E+00 -0.71780110719E+03  0.71780110719E+03  0.00000000000E+00 0. -1.
         23    2    1    2    0    0 -0.45256508623E+02  0.58284190728E+02 -0.15492127705E+03  0.19439718541E+03  0.91348044044E+02 0.  0.
         23    2    1    2    0    0  0.11633636240E+03 -0.57147261385E+01 -0.28308856338E+03  0.31935377310E+03  0.90999397594E+02 0.  0.
        -13    1    3    3    0    0 -0.12122354998E+02  0.75830796174E+02 -0.81643516861E+02  0.11208445470E+03  0.00000000000E+00 0. -1.
         13    1    3    3    0    0 -0.33134153625E+02 -0.17546605446E+02 -0.73277760188E+02  0.82312730712E+02  0.00000000000E+00 0.  1.
        -13    1    4    4    0    0  0.76538518403E+01 -0.34533241011E+02 -0.67741182595E+02  0.76419853455E+02  0.00000000000E+00 0.  1.
         13    1    4    4    0    0  0.10868251056E+03  0.28818514873E+02 -0.21534738079E+03  0.24293391964E+03  0.00000000000E+00 0. -1.
         21    1    1    2  503  502 -0.26049853829E+02  0.10861297054E+01  0.10115843228E+02  0.27966137496E+02  0.00000000000E+00 0. -1.
          1    1    1    2  501    0 -0.45029999945E+02 -0.53655594295E+02 -0.22773084258E+03  0.23826027860E+03  0.00000000000E+00 0. -1.
<scales pt_clust_5="13000.00000" pt_clust_6="13000.00000" pt_clust_7="13000.00000" pt_clust_8="13000.00000" pt_clust_9="26.07249" pt_clust_10="72.03376"></scales>
<clustering>
<clus scale="   26.072">  1  9  2 -1</clus>
<clus scale="   72.034">  2 10  1 -1</clus>
<clus scale="   90.999">  7  8 -1 -1</clus>
<clus scale="   91.348">  5  6 -1 -1</clus>
<clus scale="  124.872">  2  7  1 -1</clus>
<clus scale="   72.034">  2  5  1 -1</clus>
</clustering>
</event>
<event>
10    2  0.3984345E-006  0.1372566E+03  0.7546771E-02  0.1217777E+00
         -4   -1    0    0    0  501 -0.00000000000E+00  0.00000000000E+00  0.19231791025E+03  0.19231791025E+03  0.00000000000E+00 0.  1.
         21   -1    0    0  503  502  0.00000000000E+00 -0.00000000000E+00 -0.36252498488E+03  0.36252498488E+03  0.00000000000E+00 0.  1.
         23    2    1    2    0    0 -0.71752971896E+02  0.54053622200E+02  0.12484978668E+03  0.17921174441E+03  0.91973349694E+02 0.  0.
         23    2    1    2    0    0  0.19714174975E+02 -0.71407795086E+02 -0.18827079620E+03  0.22099361456E+03  0.88907609810E+02 0.  0.
        -11    1    4    4    0    0  0.12425494418E+01 -0.54223955708E+02 -0.18810080249E+03  0.19576438184E+03  0.00000000000E+00 0.  1.
         11    1    4    4    0    0  0.18471625533E+02 -0.17183839377E+02 -0.16999370701E+00  0.25229232716E+02  0.00000000000E+00 0. -1.
        -13    1    3    3    0    0 -0.62105035873E+02 -0.10137406727E+02  0.70985302549E+02  0.94861560570E+02  0.00000000000E+00 0. -1.
         13    1    3    3    0    0 -0.96479360234E+01  0.64191028927E+02  0.53864484128E+02  0.84350183844E+02  0.00000000000E+00 0.  1.
         21    1    1    2  503  501 -0.24971221740E+01  0.32942941368E+02  0.76509004523E+00  0.33046306419E+02  0.00000000000E+00 0.  1.
         -4    1    1    2    0  502  0.54535919095E+02 -0.15588768483E+02 -0.10755115516E+03  0.12159122974E+03  0.00000000000E+00 0.  1.
<scales pt_clust_5="13000.00000" pt_clust_6="13000.00000" pt_clust_7="13000.00000" pt_clust_8="13000.00000" pt_clust_9="33.03745" pt_clust_10="56.27540"></scales>
<clustering>
<clus scale="   33.037">  1  9  2 -1</clus>
<clus scale="   56.275">  2 10  1 -1</clus>
<clus scale="   88.908">  5  6 -1 -1</clus>
<clus scale="   91.973">  7  8 -1 -1</clus>
<clus scale="  135.221">  2  5  1 -1</clus>
<clus scale="   56.275">  2  5  1 -1</clus>
</clustering>
</event>
<event>
10    2  0.3984345E-006  0.1130955E+03  0.7546771E-02  0.1264560E+00
          3   -1    0    0  503    0 -0.00000000000E+00  0.00000000000E+00  0.39111478885E+03  0.39111478885E+03  0.00000000000E+00 0. -1.
         21   -1    0    0  501  502  0.00000000000E+00 -0.00000000000E+00 -0.23888232105E+03  0.23888232105E+03  0.00000000000E+00 0. -1.
         23    2    1    2    0    0 -0.75663596574E+01  0.49658275823E+02  0.10352741730E+03  0.13109765676E+03  0.62813018700E+02 0.  0.
         23    2    1    2    0    0 -0.55008650056E+02 -0.11892267735E+03 -0.16783290604E+03  0.23088922316E+03  0.89293864583E+02 0.  0.
        -11    1    3    3    0    0 -0.15943747273E+02  0.25056602462E+02  0.61727421131E+01  0.30333795497E+02  0.00000000000E+00 0. -1.
         11    1    3    3    0    0  0.83773876155E+01  0.24601673361E+02  0.97354675187E+02  0.10076386126E+03  0.00000000000E+00 0.  1.
        -13    1    4    4    0    0 -0.75476499987E+02 -0.10292812424E+03 -0.11407403186E+03  0.17118348505E+03  0.00000000000E+00 0. -1.
         13    1    4    4    0    0  0.20467849930E+02 -0.15994553115E+02 -0.53758874181E+02  0.59705738111E+02  0.00000000000E+00 0.  1.
         21    1    1    2  503  502 -0.11438851527E+02  0.28154593635E+02  0.16736544755E+03  0.17010209141E+03  0.00000000000E+00 0. -1.
          3    1    1    2  501    0  0.74013861241E+02  0.41109807894E+02  0.49172508983E+02  0.97908138582E+02  0.00000000000E+00 0. -1.
<scales pt_clust_5="13000.00000" pt_clust_6="13000.00000" pt_clust_7="13000.00000" pt_clust_8="13000.00000" pt_clust_9="30.38961" pt_clust_10="86.45594"></scales>
<clustering>
<clus scale="   30.390">  1  9  2 -1</clus>
<clus scale="   62.813">  5  6 -1 -1</clus>
<clus scale="   86.456">  2 10  1 -1</clus>
<clus scale="   89.294">  7  8 -1 -1</clus>
<clus scale="   93.609">  1  5  2 -1</clus>
<clus scale="   86.456">  2  5  1 -1</clus>
</clustering>
</event>
<event>
10    2  0.3984345E-006  0.1249750E+03  0.7546771E-02  0.1236914E+00
         21   -1    0    0  501  502  0.00000000000E+00  0.00000000000E+00  0.14453960506E+03  0.14453960506E+03  0.00000000000E+00 0. -1.
          2   -1    0    0  503    0 -0.00000000000E+00 -0.00000000000E+00 -0.64637957681E+03  0.64637957681E+03  0.00000000000E+00 0. -1.
         23    2    1    2    0    0 -0.11370488696E+03 -0.22711934703E+02 -0.21992871835E+03  0.26496583831E+03  0.91616707091E+02 0.  0.
         23    2    1    2    0    0  0.47597797184E+02  0.63315320703E+02 -0.58005970515E+02  0.13008131950E+03  0.85335086191E+02 0.  0.
        -13    1    3    3    0    0 -0.16793729823E+02 -0.16048241073E+02  0.13869760994E+01  0.23270133339E+02  0.00000000000E+00 0.  1.
         13    1    3    3    0    0 -0.96911157135E+02 -0.66636936304E+01 -0.22131569445E+03  0.24169570497E+03  0.00000000000E+00 0. -1.
        -13    1    4    4    0    0  0.21237292063E+02 -0.10724587969E+02  0.10327125106E+02  0.25936246340E+02  0.00000000000E+00 0.  1.
         13    1    4    4    0    0  0.26360505121E+02  0.74039908673E+02 -0.68333095621E+02  0.10414507316E+03  0.00000000000E+00 0. -1.
         21    1    1    2  503  502  0.40360328217E+02 -0.23792104741E+01 -0.30226891883E+03  0.30496084343E+03  0.00000000000E+00 0. -1.
          2    1    1    2  501    0  0.25746761557E+02 -0.38224175526E+02  0.78363635945E+02  0.90911180631E+02  0.00000000000E+00 0. -1.
<scales pt_clust_5="13000.00000" pt_clust_6="13000.00000" pt_clust_7="13000.00000" pt_clust_8="13000.00000" pt_clust_9="40.43039" pt_clust_10="46.53923"></scales>
<clustering>
<clus scale="   40.430">  2  9  1 -1</clus>
<clus scale="   46.539">  1 10  2 -1</clus>
<clus scale="   85.335">  7  8 -1 -1</clus>
<clus scale="   91.617">  5  6 -1 -1</clus>
<clus scale="  120.446">  1  7  2 -1</clus>
<clus scale="   46.539">  1  5  2 -1</clus>
</clustering>
</event>
<event>
10    2  0.3984345E-006  0.1815826E+03  0.7546771E-02  0.1166321E+00
         21   -1    0    0  501  502  0.00000000000E+00  0.00000000000E+00  0.87643013843E+02  0.87643013843E+02  0.00000000000E+00 0. -1.
          1   -1    0    0  503    0 -0.00000000000E+00 -0.00000000000E+00 -0.16416090096E+04  0.16416090096E+04  0.00000000000E+00 0. -1.
         23    2    1    2    0    0 -0.92431512260E+02  0.16894498134E+03 -0.10018043941E+04  0.10242168550E+04  0.91225713976E+02 0.  0.
         23    2    1    2    0    0  0.80232818987E+02 -0.62598899102E+02 -0.24245582894E+03  0.27843311435E+03  0.91565510802E+02 0.  0.
        -11    1    3    3    0    0 -0.29204059624E+02  0.14080646917E+03 -0.68953812835E+03  0.70437360066E+03  0.00000000000E+00 0. -1.
         11    1    3    3    0    0 -0.63227452636E+02  0.28138512170E+02 -0.31226626571E+03  0.31984325432E+03  0.00000000000E+00 0.  1.
        -13    1    4    4    0    0  0.30682399152E+02 -0.72863260682E+02 -0.10142045017E+03  0.12859460365E+03  0.00000000000E+00 0.  1.
         13    1    4    4    0    0  0.49550419835E+02  0.10264361580E+02 -0.14103537877E+03  0.14983851070E+03  0.00000000000E+00 0. -1.
         21    1    1    2  503  502 -0.50502124728E+02 -0.17640076778E+02 -0.31337849937E+03  0.31791149835E+03  0.00000000000E+00 0. -1.
          1    1    1    2  501    0  0.62700818001E+02 -0.88706005463E+02  0.36727266548E+01  0.10869055573E+03  0.00000000000E+00 0. -1.
<scales pt_clust_5="13000.00000" pt_clust_6="13000.00000" pt_clust_7="13000.00000" pt_clust_8="13000.00000" pt_clust_9="53.49427" pt_clust_10="108.06376"></scales>
<clustering>
<clus scale="   53.494">  2  9  1 -1</clus>
<clus scale="   91.226">  5  6 -1 -1</clus>
<clus scale="   91.566">  7  8 -1 -1</clus>
<clus scale="  108.064">  1 10  2 -1</clus>
<clus scale="  181.412">  2  5  1 -1</clus>
<clus scale="  108.064">  1  5  2 -1</clus>
</clustering>
</event>
<event>
10    2  0.3984345E-006  0.1054463E+03  0.7546771E-02  0.1270183E+00
          2   -1    0    0  503    0 -0.00000000000E+00  0.00000000000E+00  0.16197738452E+03  0.16197738452E+03  0.00000000000E+00 0. -1.
         21   -1    0    0  501  502  0.00000000000E+00 -0.00000000000E+00 -0.27842043263E+03  0.27842043263E+03  0.00000000000E+00 0.  1.
         23    2    1    2    0    0 -0.34465760861E+02 -0.46653473473E+02  0.76744965342E+02  0.13339757097E+03  0.92415837260E+02 0.  0.
         23    2    1    2    0    0 -0.37706227189E+02  0.29721684828E+02 -0.16662349306E+03  0.19547864701E+03  0.90240649835E+02 0.  0.
        -11    1    3    3    0    0 -0.40123657400E+02  0.14136734512E+02  0.52827415446E+02  0.67826919203E+02  0.00000000000E+00 0.  1.
         11    1    3    3    0    0  0.56578965393E+01 -0.60790207985E+02  0.23917549895E+02  0.65570651767E+02  0.00000000000E+00 0. -1.
        -13    1    4    4    0    0 -0.64178652744E+02  0.41081525448E+01 -0.11907222162E+03  0.13532911862E+03  0.00000000000E+00 0.  1.
         13    1    4    4    0    0  0.26472425555E+02  0.25613532284E+02 -0.47551271441E+02  0.60149528398E+02  0.00000000000E+00 0. -1.
         21    1    1    2  503  502  0.20158132384E+02 -0.30424167042E+02 -0.17894191372E+02  0.40647045726E+02  0.00000000000E+00 0.  1.
          2    1    1    2  501    0  0.52013855666E+02  0.47355955687E+02 -0.86703290235E+01  0.70874553442E+02  0.00000000000E+00 0. -1.
<scales pt_clust_5="13000.00000" pt_clust_6="13000.00000" pt_clust_7="13000.00000" pt_clust_8="13000.00000" pt_clust_9="36.49630" pt_clust_10="69.69031"></scales>
<clustering>
<clus scale="   36.496">  2  9  1 -1</clus>
<clus scale="   69.690">  2 10  1 -1</clus>
<clus scale="   90.241">  7  8 -1 -1</clus>
<clus scale="   92.416">  5  6 -1 -1</clus>
<clus scale="  103.545">  2  7  1 -1</clus>
<clus scale="   36.496">  2  5  1 -1</clus>
</clustering>
</event>
<event>
10    2  0.6874574E-006  0.1752100E+03  0.7546771E-02  0.1193226E+00
         21   -1    0    0  501  502  0.00000000000E+00  0.00000000000E+00  0.90846588517E+03  0.90846588517E+03  0.00000000000E+00 0. -1.
          2   -1    0    0  503    0 -0.00000000000E+00 -0.00000000000E+00 -0.51071316522E+03  0.51071316522E+03  0.00000000000E+00 0. -1.
         23    2    1    2    0    0  0.55042483236E+02 -0.22403184704E+02 -0.10057002976E+02  0.10935495849E+03  0.91245745064E+02 0.  0.
         23    2    1    2    0    0 -0.12798811663E+03  0.16209775640E+03 -0.39561230975E+03  0.45520727752E+03  0.89710229364E+02 0.  0.
        -11    1    3    3    0    0  0.15358272939E+02 -0.47088764158E+02  0.20404734302E+02  0.53568474306E+02  0.00000000000E+00 0.  1.
         11    1    3    3    0    0  0.39684210297E+02  0.24685579454E+02 -0.30461737278E+02  0.55786484186E+02  0.00000000000E+00 0. -1.
        -13    1    4    4    0    0 -0.10219903437E+03  0.16890527976E+03 -0.33251129825E+03  0.38670065894E+03  0.00000000000E+00 0. -1.
         13    1    4    4    0    0 -0.25789082256E+02 -0.68075233530E+01 -0.63101011492E+02  0.68506618580E+02  0.00000000000E+00 0.  1.
         21    1    1    2  503  502  0.22418500184E+02  0.12969535011E+01 -0.12063952993E+02  0.25491375025E+02  0.00000000000E+00 0.  1.
          2    1    1    2  501    0  0.50527133209E+02 -0.14099152520E+03  0.81548598567E+03  0.82912543936E+03  0.00000000000E+00 0. -1.
<scales pt_clust_5="13000.00000" pt_clust_6="13000.00000" pt_clust_7="13000.00000" pt_clust_8="13000.00000" pt_clust_9="22.45598" pt_clust_10="150.50122"></scales>
<clustering>
<clus scale="   22.456">  2  9  1 -1</clus>
<clus scale="   89.710">  7  8 -1 -1</clus>
<clus scale="   91.246">  5  6 -1 -1</clus>
<clus scale="  110.260">  2  5  1 -1</clus>
<clus scale="  150.501">  1 10  2 -1</clus>
<clus scale="  150.501">  1  5  2 -1</clus>
</clustering>
</event>
<event>
10    2  0.3984345E-006  0.1362481E+03  0.7546771E-02  0.1218883E+00
          2   -1    0    0  503    0 -0.00000000000E+00  0.00000000000E+00  0.93717943124E+03  0.93717943124E+03  0.00000000000E+00 0. -1.
         21   -1    0    0  501  502  0.00000000000E+00 -0.00000000000E+00 -0.56259400690E+02  0.56259400690E+02  0.00000000000E+00 0.  1.
         23    2    1    2    0    0 -0.58390511407E+02  0.95974881035E+02  0.33904102388E+03  0.36834289420E+03  0.90039114954E+02 0.  0.
         23    2    1    2    0    0 -0.64642295669E+01 -0.93140625416E+02  0.15059880069E+03  0.19956189251E+03  0.91804072929E+02 0.  0.
        -11    1    3    3    0    0 -0.74288111689E+02  0.48148559948E+02  0.16623989334E+03  0.18834200142E+03  0.00000000000E+00 0.  1.
         11    1    3    3    0    0  0.15897600282E+02  0.47826321087E+02  0.17280113054E+03  0.18000089277E+03  0.00000000000E+00 0. -1.
        -13    1    4    4    0    0 -0.32750661286E+02 -0.37120946321E+02  0.12146711392E+03  0.13116718429E+03  0.00000000000E+00 0.  1.
         13    1    4    4    0    0  0.26286431719E+02 -0.56019679095E+02  0.29131686770E+02  0.68394708220E+02  0.00000000000E+00 0. -1.
         21    1    1    2  503  502  0.64704172168E+02  0.18121772484E+02  0.39791794558E+03  0.40355138452E+03  0.00000000000E+00 0. -1.
          2    1    1    2  501    0  0.15056880551E+00 -0.20956028103E+02 -0.66377395924E+01  0.21982660706E+02  0.00000000000E+00 0. -1.
<scales pt_clust_5="13000.00000" pt_clust_6="13000.00000" pt_clust_7="13000.00000" pt_clust_8="13000.00000" pt_clust_9="66.83800" pt_clust_10="20.95657"></scales>
<clustering>
<clus scale="   20.957">  2 10  1 -1</clus>
<clus scale="   66.838">  1  9  2 -1</clus>
<clus scale="   90.039">  5  6 -1 -1</clus>
<clus scale="   91.804">  7  8 -1 -1</clus>
<clus scale="  135.065">  1  5  2 -1</clus>
<clus scale="   20.957">  2  5  1 -1</clus>
</clustering>
</event>
<event>
10    2  0.3984345E-006  0.1075030E+03  0.7546771E-02  0.1273653E+00
         21   -1    0    0  501  502  0.00000000000E+00  0.00000000000E+00  0.69452423917E+03  0.69452423917E+03  0.00000000000E+00 0.  1.
          1   -1    0    0  503    0 -0.00000000000E+00 -0.00000000000E+00 -0.28417051365E+02  0.28417051365E+02  0.00000000000E+00 0. -1.
         23    2    1    2    0    0  0.31703346595E+01  0.23166158589E+02  0.13912223561E+03  0.16803468601E+03  0.91290401103E+02 0.  0.
         23    2    1    2    0    0 -0.79513726651E+01  0.16120773456E+02  0.36094146050E+03  0.37701467696E+03  0.10741613039E+03 0.  0.
        -13    1    3    3    0    0 -0.32336976905E+02 -0.15550686741E+02  0.86644969352E+02  0.93780886365E+02  0.00000000000E+00 0. -1.
         13    1    3    3    0    0  0.35507311565E+02  0.38716845330E+02  0.52477266261E+02  0.74253799641E+02  0.00000000000E+00 0.  1.
        -13    1    4    4    0    0  0.91977054212E+01 -0.40515624489E+02  0.22421574417E+03  0.22803248353E+03  0.00000000000E+00 0. -1.
         13    1    4    4    0    0 -0.17149078086E+02  0.56636397945E+02  0.13672571633E+03  0.14898219343E+03  0.00000000000E+00 0.  1.
         21    1    1    2  503  502 -0.99384979526E+01 -0.21774705540E+02  0.23566550117E+02  0.33590085254E+02  0.00000000000E+00 0. -1.
          1    1    1    2  501    0  0.14719535958E+02 -0.17512226505E+02  0.14247694157E+03  0.14430184232E+03  0.00000000000E+00 0. -1.
<scales pt_clust_5="13000.00000" pt_clust_6="13000.00000" pt_clust_7="13000.00000" pt_clust_8="13000.00000" pt_clust_9="24.46821" pt_clust_10="22.87669"></scales>
<clustering>
<clus scale="   22.877">  1 10  2 -1</clus>
<clus scale="   24.468">  2  9  1 -1</clus>
<clus scale="   91.290">  5  6 -1 -1</clus>
<clus scale="   91.393">  2  5  1 -1</clus>
<clus scale="  107.416">  7  8 -1 -1</clus>
<clus scale="   22.877">  1  5  2 -1</clus>
</clustering>
</event>
<event>
10    2  0.3984345E-006  0.1339071E+03  0.7546771E-02  0.1221793E+00
         21   -1    0    0  501  502  0.00000000000E+00  0.00000000000E+00  0.54049566165E+03  0.54049566165E+03  0.00000000000E+00 0. -1.
          3   -1    0    0  503    0 -0.00000000000E+00 -0.00000000000E+00 -0.96759986552E+02  0.96759986552E+02  0.00000000000E+00 0. -1.
         23    2    1    2    0    0 -0.45229056027E+02  0.79523668412E+02  0.63735633301E+02  0.14419971541E+03  0.91442034243E+02 0.  0.
         23    2    1    2    0    0  0.59660783038E+02 -0.86751959246E+02  0.56171310613E+02  0.15039634561E+03  0.91534327837E+02 0.  0.
        -13    1    3    3    0    0  0.13927255010E+02  0.67489510218E+02  0.31603029146E+02  0.75812623439E+02  0.00000000000E+00 0. -1.
         13    1    3    3    0    0 -0.59156311037E+02  0.12034158194E+02  0.32132604155E+02  0.68387091975E+02  0.00000000000E+00 0.  1.
        -13    1    4    4    0    0  0.74297364382E+02 -0.28708067751E+02  0.31759413900E+02  0.85749121742E+02  0.00000000000E+00 0. -1.
         13    1    4    4    0    0 -0.14636581344E+02 -0.58043891495E+02  0.24411896713E+02  0.64647223873E+02  0.00000000000E+00 0.  1.
         21    1    1    2  503  502  0.31963718173E+02 -0.47082005699E+01  0.27335743301E+02  0.42321262905E+02  0.00000000000E+00 0.  1.
          3    1    1    2  501    0 -0.46395445184E+02  0.11936491405E+02  0.29649298788E+03  0.30033832426E+03  0.00000000000E+00 0. -1.
<scales pt_clust_5="13000.00000" pt_clust_6="13000.00000" pt_clust_7="13000.00000" pt_clust_8="13000.00000" pt_clust_9="32.30861" pt_clust_10="47.21439"></scales>
<clustering>
<clus scale="   32.309">  2  9  1 -1</clus>
<clus scale="   47.214">  1 10  2 -1</clus>
<clus scale="   91.442">  5  6 -1 -1</clus>
<clus scale="   91.534">  7  8 -1 -1</clus>
<clus scale="  133.844">  2  5  1 -1</clus>
<clus scale="   47.214">  1  5  2 -1</clus>
</clustering>
</event>
<event>
10    2  0.3984345E-006  0.1416667E+03  0.7546771E-02  0.1211960E+00
         21   -1    0    0  501  502  0.00000000000E+00  0.00000000000E+00  0.36765437563E+03  0.36765437563E+03  0.00000000000E+00 0.  1.
          3   -1    0    0  503    0 -0.00000000000E+00 -0.00000000000E+00 -0.11377607483E+03  0.11377607483E+03  0.00000000000E+00 0. -1.
         23    2    1    2    0    0  0.84770242118E+02  0.52467329853E+02  0.55133864087E+02  0.14324328390E+03  0.86833638430E+02 0.  0.
         23    2    1    2    0    0 -0.65071924370E+02 -0.10586901171E+03  0.19528806789E+03  0.24867445312E+03  0.90878771958E+02 0.  0.
        -11    1    3    3    0    0  0.32988977943E+02 -0.43182040067E+00  0.60619537574E+02  0.69015849413E+02  0.00000000000E+00 0.  1.
         11    1    3    3    0    0  0.51781264175E+02  0.52899150253E+02 -0.54856734868E+01  0.74227434488E+02  0.00000000000E+00 0. -1.
        -13    1    4    4    0    0 -0.29183141691E+02 -0.56833653062E+02  0.17220115581E+03  0.18367078685E+03  0.00000000000E+00 0.  1.
         13    1    4    4    0    0 -0.35888782679E+02 -0.49035358643E+02  0.23086912085E+02  0.65003666274E+02  0.00000000000E+00 0. -1.
         21    1    1    2  503  502  0.21384090624E+02  0.27743052558E+01  0.10408985633E+02  0.23944165957E+02  0.00000000000E+00 0.  1.
          3    1    1    2  501    0 -0.41082408372E+02  0.50627376597E+02 -0.69526168056E+01  0.65568547484E+02  0.00000000000E+00 0. -1.
<scales pt_clust_5="13000.00000" pt_clust_6="13000.00000" pt_clust_7="13000.00000" pt_clust_8="13000.00000" pt_clust_9="21.56330" pt_clust_10="61.67739"></scales>
<clustering>
<clus scale="   21.563">  2  9  1 -1</clus>
<clus scale="   61.677">  1 10  2 -1</clus>
<clus scale="   86.834">  5  6 -1 -1</clus>
<clus scale="   90.879">  7  8 -1 -1</clus>
<clus scale="  139.106">  2  5  1 -1</clus>
<clus scale="   61.677">  1  5  2 -1</clus>
</clustering>
</event>
<event>
10    2  0.3984345E-006  0.1556543E+03  0.7546771E-02  0.1216793E+00
          2   -1    0    0  503    0 -0.00000000000E+00  0.00000000000E+00  0.40832377810E+02  0.40832377810E+02  0.00000000000E+00 0. -1.
         21   -1    0    0  501  502  0.00000000000E+00 -0.00000000000E+00 -0.10165190844E+04  0.10165190844E+04  0.00000000000E+00 0. -1.
         23    2    1    2    0    0  0.18103202904E+02 -0.16909687091E+02 -0.19522185064E+03  0.21608881503E+03  0.89270048400E+02 0.  0.
         23    2    1    2    0    0  0.66887285861E+02  0.10680769476E+03 -0.35085940216E+03  0.38376584568E+03  0.91061032049E+02 0.  0.
        -11    1    3    3    0    0 -0.29028988561E+02  0.10132680137E+02 -0.33447607985E+02  0.45432321794E+02  0.00000000000E+00 0.  1.
         11    1    3    3    0    0  0.47132191465E+02 -0.27042367228E+02 -0.16177424265E+03  0.17065649324E+03  0.00000000000E+00 0. -1.
        -13    1    4    4    0    0  0.18288111780E+02  0.10301558109E+03 -0.20825022088E+03  0.23305540001E+03  0.00000000000E+00 0. -1.
         13    1    4    4    0    0  0.48599174080E+02  0.37921136692E+01 -0.14260918128E+03  0.15071044566E+03  0.00000000000E+00 0.  1.
         21    1    1    2  503  502  0.20278766975E+02 -0.13546337776E+02 -0.40941996151E+02  0.47654786811E+02  0.00000000000E+00 0. -1.
          2    1    1    2  501    0 -0.10526925574E+03 -0.76351669893E+02 -0.38866345767E+03  0.40984201471E+03  0.00000000000E+00 0. -1.
<scales pt_clust_5="13000.00000" pt_clust_6="13000.00000" pt_clust_7="13000.00000" pt_clust_8="13000.00000" pt_clust_9="24.38712" pt_clust_10="126.23841"></scales>
<clustering>
<clus scale="   24.387">  1  9  2 -1</clus>
<clus scale="   89.270">  5  6 -1 -1</clus>
<clus scale="   91.061">  7  8 -1 -1</clus>
<clus scale="   94.662">  1  5  2 -1</clus>
<clus scale="  126.238">  2 10  1 -1</clus>
<clus scale="  126.238">  2  5  1 -1</clus>
</clustering>
</event>
<event>
10    2  0.3984345E-006  0.1041740E+03  0.7546771E-02  0.1273077E+00
         21   -1    0    0  501  502  0.00000000000E+00  0.00000000000E+00  0.88723940392E+03  0.88723940392E+03  0.00000000000E+00 0. -1.
          1   -1    0    0  503    0 -0.00000000000E+00 -0.00000000000E+00 -0.54482244449E+02  0.54482244449E+02  0.00000000000E+00 0. -1.
         23    2    1    2    0    0  0.55691987530E+02  0.18259062254E+02  0.68675516481E+02  0.13050461260E+03  0.94234476269E+02 0.  0.
         23    2    1    2    0    0  0.23444635927E+02  0.41522210769E+01  0.47192008794E+03  0.48126614074E+03  0.91332562273E+02 0.  0.
        -13    1    4    4    0    0  0.23768023156E+02  0.46401429689E+02  0.26074038149E+03  0.26590140681E+03  0.00000000000E+00 0. -1.
         13    1    4    4    0    0 -0.32338722928E+00 -0.42249208612E+02  0.21117970645E+03  0.21536473394E+03  0.00000000000E+00 0.  1.
        -13    1    3    3    0    0  0.83446666952E+01  0.31866739737E+02 -0.12761078686E+02  0.35326586206E+02  0.00000000000E+00 0. -1.
         13    1    3    3    0    0  0.47347320835E+02 -0.13607677483E+02  0.81436595168E+02  0.95178026399E+02  0.00000000000E+00 0.  1.
         21    1    1    2  503  502 -0.43089515985E+02  0.53853979456E+02  0.13073362545E+03  0.14781149588E+03  0.00000000000E+00 0. -1.
          1    1    1    2  501    0 -0.36047107471E+02 -0.76265262787E+02  0.16142792961E+03  0.18213939915E+03  0.00000000000E+00 0. -1.
<scales pt_clust_5="13000.00000" pt_clust_6="13000.00000" pt_clust_7="13000.00000" pt_clust_8="13000.00000" pt_clust_9="68.97070" pt_clust_10="78.69935"></scales>
<clustering>
<clus scale="   68.971">  1  9  2 -1</clus>
<clus scale="   78.699">  1 10  2 -1</clus>
<clus scale="   91.333">  5  6 -1 -1</clus>
<clus scale="   94.234">  7  8 -1 -1</clus>
<clus scale="  101.557">  1  5  2 -1</clus>
<clus scale="   68.971">  1  5  2 -1</clus>
</clustering>
</event>
<event>
10    2  0.3984345E-006  0.1209091E+03  0.7546771E-02  0.1242500E+00
         -2   -1    0    0    0  501 -0.00000000000E+00  0.00000000000E+00  0.20745930481E+03  0.20745930481E+03  0.00000000000E+00 0.  1.
         21   -1    0    0  503  502  0.00000000000E+00 -0.00000000000E+00 -0.73785455434E+03  0.73785455434E+03  0.00000000000E+00 0.  1.
         23    2    1    2    0    0  0.11738354113E+01  0.98166839152E+02 -0.22706916580E+02  0.13611342213E+03  0.91504936610E+02 0.  0.
         23    2    1    2    0    0 -0.54674002060E+02 -0.35416421924E+02 -0.71149446841E+02  0.13490469211E+03  0.94305157468E+02 0.  0.
        -11    1    4    4    0    0 -0.70985279931E+02 -0.87710015492E+01 -0.74748885156E+02  0.10345644623E+03  0.00000000000E+00 0.  1.
         11    1    4    4    0    0  0.16311277871E+02 -0.26645420375E+02  0.35994383153E+01  0.31448245880E+02  0.00000000000E+00 0. -1.
        -13    1    3    3    0    0  0.29042818348E-01  0.70506792659E+02 -0.57972460546E+02  0.91279870926E+02  0.00000000000E+00 0. -1.
         13    1    3    3    0    0  0.11447925930E+01  0.27660046494E+02  0.35265543966E+02  0.44833551201E+02  0.00000000000E+00 0.  1.
         21    1    1    2  503  501  0.20526202557E+02  0.11360150627E+01  0.11564157977E+03  0.11745463163E+03  0.00000000000E+00 0.  1.
         -2    1    1    2    0  502  0.32973964092E+02 -0.63886432291E+02 -0.55218046588E+03  0.55684111328E+03  0.00000000000E+00 0.  1.
<scales pt_clust_5="13000.00000" pt_clust_6="13000.00000" pt_clust_7="13000.00000" pt_clust_8="13000.00000" pt_clust_9="20.55761" pt_clust_10="72.11112"></scales>
<clustering>
<clus scale="   20.558">  1  9  2 -1</clus>
<clus scale="   72.111">  2 10  1 -1</clus>
<clus scale="   91.505">  7  8 -1 -1</clus>
<clus scale="   94.305">  5  6 -1 -1</clus>
<clus scale="  118.738">  1  7  2 -1</clus>
<clus scale="   72.111">  2  5  1 -1</clus>
</clustering>
</event>
<event>
10    2  0.3984345E-006  0.1166409E+03  0.7546771E-02  0.1250023E+00
         21   -1    0    0  503  502  0.00000000000E+00  0.00000000000E+00  0.49303054230E+03  0.49303054230E+03  0.00000000000E+00 0.  1.
         -1   -1    0    0    0  501 -0.00000000000E+00 -0.00000000000E+00 -0.15585448950E+03  0.15585448950E+03  0.00000000000E+00 0.  1.
         23    2    1    2    0    0  0.38662272434E+02  0.17208288680E+02 -0.35405238714E+02  0.11068129640E+03  0.95947495722E+02 0.  0.
         23    2    1    2    0    0 -0.83250897722E+02 -0.58274036241E+02  0.25773935554E+02  0.13970655799E+03  0.92342034413E+02 0.  0.
        -13    1    3    3    0    0  0.43055075913E+02  0.50543447974E+02 -0.38776252659E+02  0.76889384607E+02  0.00000000000E+00 0. -1.
         13    1    3    3    0    0 -0.43928034793E+01 -0.33335159294E+02  0.33710139444E+01  0.33791911793E+02  0.00000000000E+00 0.  1.
        -13    1    4    4    0    0 -0.26562802824E+02 -0.56004549008E+02 -0.21758745678E+02  0.65692731843E+02  0.00000000000E+00 0. -1.
         13    1    4    4    0    0 -0.56688094898E+02 -0.22694872325E+01  0.47532681232E+02  0.74013826145E+02  0.00000000000E+00 0.  1.
         21    1    1    2  503  501  0.21041664617E+02 -0.66233063968E+01 -0.18835266476E+02  0.29006673382E+02  0.00000000000E+00 0.  1.
         -1    1    1    2    0  502  0.23546960671E+02  0.47689053958E+02  0.36564262243E+03  0.36949050403E+03  0.00000000000E+00 0.  1.
<scales pt_clust_5="13000.00000" pt_clust_6="13000.00000" pt_clust_7="13000.00000" pt_clust_8="13000.00000" pt_clust_9="22.05946" pt_clust_10="53.23577"></scales>
<clustering>
<clus scale="   22.059">  2  9  1 -1</clus>
<clus scale="   53.236">  1 10  2 -1</clus>
<clus scale="   92.342">  7  8 -1 -1</clus>
<clus scale="   95.947">  5  6 -1 -1</clus>
<clus scale="  113.694">  1  7  2 -1</clus>
<clus scale="   53.236">  1  5  2 -1</clus>
</clustering>
</event>
<event>
10    2  0.3984345E-006  0.1021137E+03  0.7546771E-02  0.1276799E+00
         21   -1    0    0  501  502  0.00000000000E+00  0.00000000000E+00  0.75943838684E+02  0.75943838684E+02  0.00000000000E+00 0.  1.
          3   -1    0    0  503    0 -0.00000000000E+00 -0.00000000000E+00 -0.77336237466E+03  0.77336237466E+03  0.00000000000E+00 0. -1.
         23    2    1    2    0    0 -0.30073373358E+02 -0.25279301127E+02 -0.29040188380E+03  0.30755816957E+03  0.93355892715E+02 0.  0.
         23    2    1    2    0    0 -0.20875821918E+02  0.58733609814E+02 -0.30273736857E+03  0.32233946867E+03  0.91473394304E+02 0.  0.
        -11    1    3    3    0    0 -0.60419275473E+02 -0.33837374902E+01 -0.13901538534E+03  0.15161535505E+03  0.00000000000E+00 0. -1.
         11    1    3    3    0    0  0.30345902115E+02 -0.21895563637E+02 -0.15138649846E+03  0.15594281451E+03  0.00000000000E+00 0.  1.
        -13    1    4    4    0    0 -0.24482312018E+02 -0.18872435762E+02 -0.11686488990E+03  0.12088405571E+03  0.00000000000E+00 0.  1.
         13    1    4    4    0    0  0.36064900995E+01  0.77606045576E+02 -0.18587247868E+03  0.20145541296E+03  0.00000000000E+00 0. -1.
         21    1    1    2  503  502  0.17029721625E+02 -0.56490049807E+02 -0.14808590560E+03  0.15940694020E+03  0.00000000000E+00 0.  1.
          3    1    1    2  501    0  0.33919473651E+02  0.23035741119E+02  0.43806621995E+02  0.60001634914E+02  0.00000000000E+00 0. -1.
<scales pt_clust_5="13000.00000" pt_clust_6="13000.00000" pt_clust_7="13000.00000" pt_clust_8="13000.00000" pt_clust_9="56.86439" pt_clust_10="41.00215"></scales>
<clustering>
<clus scale="   41.002">  1 10  2 -1</clus>
<clus scale="   56.864">  1  9  2 -1</clus>
<clus scale="   91.473">  7  8 -1 -1</clus>
<clus scale="   93.356">  5  6 -1 -1</clus>
<clus scale="  100.396">  1  7  2 -1</clus>
<clus scale="   41.002">  1  5  2 -1</clus>
</clustering>
</event>
<event>
10    2  0.3984345E-006  0.4137396E+03  0.7546771E-02  0.1039133E+00
         21   -1    0    0  501  502  0.00000000000E+00  0.00000000000E+00  0.62132991315E+03  0.62132991315E+03  0.00000000000E+00 0. -1.
          1   -1    0    0  503    0 -0.00000000000E+00 -0.00000000000E+00 -0.46107798681E+03  0.46107798681E+03  0.00000000000E+00 0. -1.
         23    2    1    2    0    0 -0.37967909539E+03 -0.42005136466E+02 -0.97373580210E+02  0.40502595347E+03  0.92971833898E+02 0.  0.
         23    2    1    2    0    0  0.43777691903E+03  0.49899726015E+02  0.86084209427E+02  0.45836761880E+03  0.92475777160E+02 0.  0.
        -13    1    3    3    0    0 -0.54270491618E+02 -0.40385482095E+02 -0.13574194717E+02  0.68996609966E+02  0.00000000000E+00 0.  1.
         13    1    3    3    0    0 -0.32540860377E+03 -0.16196543703E+01 -0.83799385493E+02  0.33602934351E+03  0.00000000000E+00 0. -1.
        -13    1    4    4    0    0  0.15847141710E+03  0.61594582960E+02  0.20732723000E+02  0.17128026299E+03  0.00000000000E+00 0.  1.
         13    1    4    4    0    0  0.27930550194E+03 -0.11694856944E+02  0.65351486427E+02  0.28708735581E+03  0.00000000000E+00 0. -1.
         21    1    1    2  503  502 -0.35003690190E+02 -0.42802106636E+02  0.15452725281E+02  0.57411369762E+02  0.00000000000E+00 0.  1.
          1    1    1    2  501    0 -0.23094133451E+02  0.34907517086E+02  0.15608857184E+03  0.16160295792E+03  0.00000000000E+00 0. -1.
<scales pt_clust_5="13000.00000" pt_clust_6="13000.00000" pt_clust_7="13000.00000" pt_clust_8="13000.00000" pt_clust_9="54.40692" pt_clust_10="41.85539"></scales>
<clustering>
<clus scale="   41.855">  1 10  2 -1</clus>
<clus scale="   54.407">  1  9  2 -1</clus>
<clus scale="   92.476">  7  8 -1 -1</clus>
<clus scale="   92.972">  5  6 -1 -1</clus>
<clus scale="  413.628">  1  7  2 -1</clus>
<clus scale="   41.855">  1  5  2 -1</clus>
</clustering>
</event>
<event>
10    2  0.3984345E-006  0.1054843E+03  0.7546771E-02  0.1269877E+00
         21   -1    0    0  501  502  0.00000000000E+00  0.00000000000E+00  0.97702580800E+02  0.97702580800E+02  0.00000000000E+00 0.  1.
          1   -1    0    0  503    0 -0.00000000000E+00 -0.00000000000E+00 -0.45517157285E+03  0.45517157285E+03  0.00000000000E+00 0. -1.
         23    2    1    2    0    0 -0.43826207876E+02 -0.71721857835E+02 -0.24379123145E+03  0.27372827926E+03  0.91805473392E+02 0.  0.
         23    2    1    2    0    0  0.12062583575E+02  0.25405567828E+02  0.42320347742E+02  0.10635503136E+03  0.93431429743E+02 0.  0.
        -11    1    4    4    0    0  0.27948944140E+02  0.53354067571E+02  0.43319479156E+02  0.74191490613E+02  0.00000000000E+00 0.  1.
         11    1    4    4    0    0 -0.15886360566E+02 -0.27948499744E+02 -0.99913141450E+00  0.32163540749E+02  0.00000000000E+00 0. -1.
        -13    1    3    3    0    0 -0.15166560841E+01 -0.66794952378E+02 -0.78723910432E+02  0.10325366813E+03  0.00000000000E+00 0. -1.
         13    1    3    3    0    0 -0.42309551792E+02 -0.49269054569E+01 -0.16506732102E+03  0.17047461113E+03  0.00000000000E+00 0.  1.
         21    1    1    2  503  502  0.10695799808E+02  0.39722680342E+02 -0.13891287124E+03  0.14487607554E+03  0.00000000000E+00 0. -1.
          1    1    1    2  501    0  0.21067824493E+02  0.65936096653E+01 -0.17085237095E+02  0.27914767488E+02  0.00000000000E+00 0. -1.
<scales pt_clust_5="13000.00000" pt_clust_6="13000.00000" pt_clust_7="13000.00000" pt_clust_8="13000.00000" pt_clust_9="41.52450" pt_clust_10="22.07553"></scales>
<clustering>
<clus scale="   22.076">  1 10  2 -1</clus>
<clus scale="   41.525">  2  9  1 -1</clus>
<clus scale="   91.805">  7  8 -1 -1</clus>
<clus scale="   93.431">  5  6 -1 -1</clus>
<clus scale="  104.047">  2  7  1 -1</clus>
<clus scale="   22.076">  1  5  2 -1</clus>
</clustering>
</event>
<event>
10    2  0.3984345E-006  0.1094939E+03  0.7546771E-02  0.1262829E+00
          1   -1    0    0  503    0 -0.00000000000E+00  0.00000000000E+00  0.27044393790E+03  0.27044393790E+03  0.00000000000E+00 0. -1.
         21   -1    0    0  501  502  0.00000000000E+00 -0.00000000000E+00 -0.21303472736E+03  0.21303472736E+03  0.00000000000E+00 0.  1.
         23    2    1    2    0    0 -0.35438075919E+02  0.19901842800E+02  0.17755372190E+03  0.20375224138E+03  0.91311067982E+02 0.  0.
         23    2    1    2    0    0  0.50810850573E+02  0.65682283221E+01 -0.14128157718E+03  0.17412490288E+03  0.87943809282E+02 0.  0.
        -13    1    4    4    0    0  0.20844691638E+02  0.34612555167E+02 -0.12249648855E+03  0.12898806089E+03  0.00000000000E+00 0.  1.
         13    1    4    4    0    0  0.29966158935E+02 -0.28044326845E+02 -0.18785088630E+02  0.45136841984E+02  0.00000000000E+00 0. -1.
        -13    1    3    3    0    0 -0.58215081283E+02 -0.13095626591E+02  0.10008579614E+03  0.11652320676E+03  0.00000000000E+00 0. -1.
         13    1    3    3    0    0  0.22777005364E+02  0.32997469391E+02  0.77467925767E+02  0.87229034628E+02  0.00000000000E+00 0.  1.
         21    1    1    2  503  502 -0.25994689680E+02  0.15282834940E+01  0.54724088341E+02  0.60603509690E+02  0.00000000000E+00 0. -1.
          1    1    1    2  501    0  0.10621915026E+02 -0.27998354616E+02 -0.33587022523E+02  0.44998011311E+02  0.00000000000E+00 0. -1.
<scales pt_clust_5="13000.00000" pt_clust_6="13000.00000" pt_clust_7="13000.00000" pt_clust_8="13000.00000" pt_clust_9="26.03958" pt_clust_10="29.66679"></scales>
<clustering>
<clus scale="   26.040">  1  9  2 -1</clus>
<clus scale="   29.667">  2 10  1 -1</clus>
<clus scale="   87.944">  5  6 -1 -1</clus>
<clus scale="   91.311">  7  8 -1 -1</clus>
<clus scale="  106.702">  2  5  1 -1</clus>
<clus scale="   29.667">  2  5  1 -1</clus>
</clustering>
</event>
<event>
10    2  0.3984345E-006  0.1629498E+03  0.7546771E-02  0.1186009E+00
          1   -1    0    0  503    0 -0.00000000000E+00  0.00000000000E+00  0.38605347345E+03  0.38605347345E+03  0.00000000000E+00 0. -1.
         21   -1    0    0  501  502  0.00000000000E+00 -0.00000000000E+00 -0.18427349289E+03  0.18427349289E+03  0.00000000000E+00 0.  1.
         23    2    1    2    0    0  0.56782487623E+02  0.10725485244E+03  0.28385893283E+03  0.32299942902E+03  0.94999384884E+02 0.  0.
         23    2    1    2    0    0 -0.71069500496E+02 -0.91299010501E+02 -0.63710544306E+02  0.16052200943E+03  0.91224442093E+02 0.  0.
        -11    1    3    3    0    0  0.32100413678E+02  0.11700178256E+03  0.26159297513E+03  0.28835869732E+03  0.00000000000E+00 0.  1.
         11    1    3    3    0    0  0.24682073945E+02 -0.97469301157E+01  0.22265957700E+02  0.34640731707E+02  0.00000000000E+00 0. -1.
        -13    1    4    4    0    0  0.23868042562E+01 -0.40711225620E+02  0.13081233550E+02  0.42827787676E+02  0.00000000000E+00 0. -1.
         13    1    4    4    0    0 -0.73456304752E+02 -0.50587784881E+02 -0.76791777856E+02  0.11769422175E+03  0.00000000000E+00 0.  1.
         21    1    1    2  503  502  0.23502144185E+02  0.75931119091E+01  0.25922007948E+02  0.35804421875E+02  0.00000000000E+00 0.  1.
          1    1    1    2  501    0 -0.92151313120E+01 -0.23548953851E+02 -0.44290415919E+02  0.51001106016E+02  0.00000000000E+00 0. -1.
<scales pt_clust_5="13000.00000" pt_clust_6="13000.00000" pt_clust_7="13000.00000" pt_clust_8="13000.00000" pt_clust_9="24.69830" pt_clust_10="25.14073"></scales>
<clustering>
<clus scale="   24.698">  1  9  2 -1</clus>
<clus scale="   25.141">  2 10  1 -1</clus>
<clus scale="   91.224">  7  8 -1 -1</clus>
<clus scale="   94.999">  5  6 -1 -1</clus>
<clus scale="  160.778">  2  7  1 -1</clus>
<clus scale="   25.141">  2  5  1 -1</clus>
</clustering>
</event>
<event>
10    2  0.3984345E-006  0.1231477E+03  0.7546771E-02  0.1243700E+00
         21   -1    0    0  503  502  0.00000000000E+00  0.00000000000E+00  0.11537957915E+03  0.11537957915E+03  0.00000000000E+00 0. -1.
         -1   -1    0    0    0  501 -0.00000000000E+00 -0.00000000000E+00 -0.25983687204E+03  0.25983687204E+03  0.00000000000E+00 0.  1.
         23    2    1    2    0    0  0.53214785890E+02  0.26318873280E+02 -0.85269283038E+02  0.13882095834E+03  0.92064712651E+02 0.  0.
         23    2    1    2    0    0 -0.94497254854E+02 -0.42784523197E+02 -0.12171554596E+02  0.12747659638E+03  0.73088229441E+02 0.  0.
        -11    1    3    3    0    0  0.28541263963E+02  0.34524936711E+02 -0.99543642099E+02  0.10915819569E+03  0.00000000000E+00 0.  1.
         11    1    3    3    0    0  0.24673521926E+02 -0.82060634309E+01  0.14274359061E+02  0.29662762648E+02  0.00000000000E+00 0. -1.
        -11    1    4    4    0    0 -0.35231601983E+02 -0.58315403038E+01 -0.38797983627E+02  0.52730979264E+02  0.00000000000E+00 0.  1.
         11    1    4    4    0    0 -0.59265652871E+02 -0.36952982893E+02  0.26626429031E+02  0.74745617115E+02  0.00000000000E+00 0. -1.
         21    1    1    2  503  501  0.18532947207E+02  0.15976135536E+02 -0.71454188944E+02  0.75527532440E+02  0.00000000000E+00 0. -1.
         -1    1    1    2    0  502  0.22749521758E+02  0.48951438075E+00  0.24437733682E+02  0.33391364034E+02  0.00000000000E+00 0.  1.
<scales pt_clust_5="13000.00000" pt_clust_6="13000.00000" pt_clust_7="13000.00000" pt_clust_8="13000.00000" pt_clust_9="24.88423" pt_clust_10="22.75479"></scales>
<clustering>
<clus scale="   22.755">  1 10  2 -1</clus>
<clus scale="   24.884">  2  9  1 -1</clus>
<clus scale="   73.088">  7  8 -1 -1</clus>
<clus scale="   92.065">  5  6 -1 -1</clus>
<clus scale="  109.687">  1  7  2 -1</clus>
<clus scale="   22.755">  1  5  2 -1</clus>
</clustering>
</event>
<event>
10    2  0.3984345E-006  0.9646307E+02  0.7546771E-02  0.1288108E+00
         21   -1    0    0  501  502  0.00000000000E+00  0.00000000000E+00  0.91151602536E+02  0.91151602536E+02  0.00000000000E+00 0. -1.
          2   -1    0    0  503    0 -0.00000000000E+00 -0.00000000000E+00 -0.35674148420E+03  0.35674148420E+03  0.00000000000E+00 0. -1.
         23    2    1    2    0    0 -0.23006121236E+02 -0.12923487781E+02 -0.15976860261E+03  0.18599287838E+03  0.91493422028E+02 0.  0.
         23    2    1    2    0    0  0.99216509771E+01  0.17564340027E+02 -0.38954454678E+02  0.10179749009E+03  0.91860406329E+02 0.  0.
        -11    1    3    3    0    0 -0.39638535687E+02  0.29191986340E+02 -0.71814250059E+02  0.87067055133E+02  0.00000000000E+00 0.  1.
         11    1    3    3    0    0  0.16632414451E+02 -0.42115474121E+02 -0.87954352555E+02  0.98925823243E+02  0.00000000000E+00 0. -1.
        -13    1    4    4    0    0  0.37736406922E+02  0.78615130100E+01 -0.55832674999E+02  0.67846351352E+02  0.00000000000E+00 0.  1.
         13    1    4    4    0    0 -0.27814755945E+02  0.97028270173E+01  0.16878220322E+02  0.33951138739E+02  0.00000000000E+00 0. -1.
         21    1    1    2  503  502  0.17257787614E+02 -0.34560558755E+02 -0.10475188725E+03  0.11164775563E+03  0.00000000000E+00 0. -1.
          2    1    1    2  501    0 -0.41733173550E+01  0.29919706509E+02  0.37885062877E+02  0.48454962640E+02  0.00000000000E+00 0. -1.
<scales pt_clust_5="13000.00000" pt_clust_6="13000.00000" pt_clust_7="13000.00000" pt_clust_8="13000.00000" pt_clust_9="36.57887" pt_clust_10="30.20936"></scales>
<clustering>
<clus scale="   30.209">  1 10  2 -1</clus>
<clus scale="   36.579">  2  9  1 -1</clus>
<clus scale="   91.493">  5  6 -1 -1</clus>
<clus scale="   91.860">  7  8 -1 -1</clus>
<clus scale="   96.114">  2  5  1 -1</clus>
<clus scale="   30.209">  1  5  2 -1</clus>
</clustering>
</event>
<event>
10    2  0.3984345E-006  0.1731661E+03  0.7546771E-02  0.1175434E+00
          1   -1    0    0  503    0 -0.00000000000E+00  0.00000000000E+00  0.68434763248E+03  0.68434763248E+03  0.00000000000E+00 0. -1.
         21   -1    0    0  501  502  0.00000000000E+00 -0.00000000000E+00 -0.27783222073E+03  0.27783222073E+03  0.00000000000E+00 0. -1.
         23    2    1    2    0    0 -0.96689332013E+02 -0.11597356868E+03  0.91252858764E+02  0.20078989389E+03  0.95868669023E+02 0.  0.
         23    2    1    2    0    0  0.31799350648E+02  0.17399154723E+03 -0.48453822381E+02  0.20965165812E+03  0.10159619896E+03 0.  0.
        -11    1    3    3    0    0 -0.28889226384E+02  0.10173118027E+02  0.36055490298E+02  0.47308330261E+02  0.00000000000E+00 0. -1.
         11    1    3    3    0    0 -0.67800105629E+02 -0.12614668670E+03  0.55197368466E+02  0.15348156363E+03  0.00000000000E+00 0.  1.
        -11    1    4    4    0    0  0.56041621547E+02  0.43848451952E+02 -0.10431145984E+02  0.71917723064E+02  0.00000000000E+00 0. -1.
         11    1    4    4    0    0 -0.24242270900E+02  0.13014309528E+03 -0.38022676397E+02  0.13773393506E+03  0.00000000000E+00 0.  1.
         21    1    1    2  503  502  0.61285091136E+02  0.75365644829E+01  0.44386107413E+03  0.44813537611E+03  0.00000000000E+00 0. -1.
          1    1    1    2  501    0  0.36048902299E+01 -0.65554543034E+02 -0.80144698765E+02  0.10360292508E+03  0.00000000000E+00 0. -1.
<scales pt_clust_5="13000.00000" pt_clust_6="13000.00000" pt_clust_7="13000.00000" pt_clust_8="13000.00000" pt_clust_9="61.74676" pt_clust_10="65.51904"></scales>
<clustering>
<clus scale="   61.747">  1  9  2 -1</clus>
<clus scale="   65.519">  2 10  1 -1</clus>
<clus scale="   95.869">  5  6 -1 -1</clus>
<clus scale="  101.596">  7  8 -1 -1</clus>
<clus scale="  169.869">  1  5  2 -1</clus>
<clus scale="   65.519">  2  5  1 -1</clus>
</clustering>
</event>
<event>
10    2  0.3984345E-006  0.9898785E+02  0.7546771E-02  0.1282667E+00
          2   -1    0    0  503    0 -0.00000000000E+00  0.00000000000E+00  0.23817941011E+03  0.23817941011E+03  0.00000000000E+00 0. -1.
         21   -1    0    0  501  502  0.00000000000E+00 -0.00000000000E+00 -0.33066219530E+03  0.33066219530E+03  0.00000000000E+00 0. -1.
         23    2    1    2    0    0  0.29201590341E+02  0.45970520295E+02  0.53511396118E+02  0.11916041929E+03  0.91486143198E+02 0.  0.
         23    2    1    2    0    0 -0.62420479473E+02 -0.35128590950E+00 -0.21755216337E+03  0.24394797430E+03  0.91023242734E+02 0.  0.
        -11    1    4    4    0    0 -0.71331826356E+00 -0.23729917791E+02 -0.93099671268E+01  0.25500849187E+02  0.00000000000E+00 0.  1.
         11    1    4    4    0    0 -0.61707161209E+02  0.23378631882E+02 -0.20824219625E+03  0.21844712512E+03  0.00000000000E+00 0. -1.
        -13    1    3    3    0    0  0.27731136437E+02  0.10991169255E+02 -0.21238283519E+02  0.36618115960E+02  0.00000000000E+00 0.  1.
         13    1    3    3    0    0  0.14704539041E+01  0.34979351039E+02  0.74749679636E+02  0.82542303333E+02  0.00000000000E+00 0. -1.
         21    1    1    2  503  502 -0.72373640609E+01 -0.22036790730E+02  0.12931452973E+03  0.13137825994E+03  0.00000000000E+00 0. -1.
          2    1    1    2  501    0  0.40456253193E+02 -0.23582443655E+02 -0.57756547660E+02  0.74354951878E+02  0.00000000000E+00 0. -1.
<scales pt_clust_5="13000.00000" pt_clust_6="13000.00000" pt_clust_7="13000.00000" pt_clust_8="13000.00000" pt_clust_9="23.19482" pt_clust_10="47.23294"></scales>
<clustering>
<clus scale="   23.195">  1  9  2 -1</clus>
<clus scale="   47.233">  2 10  1 -1</clus>
<clus scale="   91.023">  5  6 -1 -1</clus>
<clus scale="   91.486">  7  8 -1 -1</clus>
<clus scale="   98.560">  2  5  1 -1</clus>
<clus scale="   47.233">  2  5  1 -1</clus>
</clustering>
</event>
<event>
10    2  0.3984345E-006  0.1100253E+03  0.7546771E-02  0.1260837E+00
         -1   -1    0    0    0  501 -0.00000000000E+00  0.00000000000E+00  0.20622287622E+02  0.20622287622E+02  0.00000000000E+00 0.  1.
         21   -1    0    0  503  502  0.00000000000E+00 -0.00000000000E+00 -0.11906795756E+04  0.11906795756E+04  0.00000000000E+00 0. -1.
         23    2    1    2    0    0 -0.39764243135E+02  0.82832145039E+01 -0.35412472843E+03  0.36825753935E+03  0.92517486622E+02 0.  0.
         23    2    1    2    0    0  0.79753249978E+02  0.32285030639E+02 -0.61056106095E+03  0.62337691332E+03  0.91711846699E+02 0.  0.
        -11    1    3    3    0    0  0.29804567414E+02  0.52161015981E+01 -0.13431776058E+03  0.13768362561E+03  0.00000000000E+00 0. -1.
         11    1    3    3    0    0 -0.69568810549E+02  0.30671129057E+01 -0.21980696785E+03  0.23057391374E+03  0.00000000000E+00 0.  1.
        -11    1    4    4    0    0  0.72538410867E+02 -0.17638989094E+02 -0.39500864583E+03  0.40200097670E+03  0.00000000000E+00 0. -1.
         11    1    4    4    0    0  0.72148391104E+01  0.49924019733E+02 -0.21555241513E+03  0.22137593663E+03  0.00000000000E+00 0.  1.
         21    1    1    2  503  501 -0.20434857937E+02 -0.18722313992E+02 -0.26285628904E+02  0.38197418067E+02  0.00000000000E+00 0.  1.
         -1    1    1    2    0  502 -0.19554148905E+02 -0.21845931151E+02 -0.17908586969E+03  0.18146999247E+03  0.00000000000E+00 0.  1.
<scales pt_clust_5="13000.00000" pt_clust_6="13000.00000" pt_clust_7="13000.00000" pt_clust_8="13000.00000" pt_clust_9="27.71477" pt_clust_10="31.56146"></scales>
<clustering>
<clus scale="   27.715">  1  9  2 -1</clus>
<clus scale="   31.561">  2 10  1 -1</clus>
<clus scale="   91.712">  7  8 -1 -1</clus>
<clus scale="   92.517">  5  6 -1 -1</clus>
<clus scale="  109.349">  2  7  1 -1</clus>
<clus scale="   31.561">  2  5  1 -1</clus>
</clustering>
</event>
<event>
10    2  0.3984345E-006  0.1672657E+03  0.7546771E-02  0.1182544E+00
          2   -1    0    0  503    0 -0.00000000000E+00  0.00000000000E+00  0.53243813106E+03  0.53243813106E+03  0.00000000000E+00 0. -1.
         21   -1    0    0  501  502  0.00000000000E+00 -0.00000000000E+00 -0.17028924549E+03  0.17028924549E+03  0.00000000000E+00 0.  1.
         23    2    1    2    0    0 -0.76752377812E+02 -0.63397823719E+02  0.25623748376E+03  0.29186352603E+03  0.98063541614E+02 0.  0.
         23    2    1    2    0    0  0.28504205523E+01  0.15355931974E+03 -0.44244396560E+02  0.18159546461E+03  0.86201836193E+02 0.  0.
        -11    1    4    4    0    0 -0.39350204650E+02  0.68219780640E+02 -0.34210199916E+02  0.85864514526E+02  0.00000000000E+00 0.  1.
         11    1    4    4    0    0  0.42200625203E+02  0.85339539099E+02 -0.10034196644E+02  0.95730950081E+02  0.00000000000E+00 0. -1.
        -13    1    3    3    0    0 -0.23519099538E+02 -0.55822748664E+02  0.49439240331E+02  0.78189294638E+02  0.00000000000E+00 0.  1.
         13    1    3    3    0    0 -0.53233278275E+02 -0.75750750555E+01  0.20679824343E+03  0.21367423140E+03  0.00000000000E+00 0. -1.
         21    1    1    2  503  502  0.98073472741E+02 -0.92357524948E+02  0.15409554649E+03  0.20467964217E+03  0.00000000000E+00 0. -1.
          2    1    1    2  501    0 -0.24171515481E+02  0.21960289283E+01 -0.39397481115E+01  0.24588743744E+02  0.00000000000E+00 0. -1.
<scales pt_clust_5="13000.00000" pt_clust_6="13000.00000" pt_clust_7="13000.00000" pt_clust_8="13000.00000" pt_clust_9="131.64151" pt_clust_10="24.27107"></scales>
<clustering>
<clus scale="   24.271">  2 10  1 -1</clus>
<clus scale="   86.202">  5  6 -1 -1</clus>
<clus scale="   98.064">  7  8 -1 -1</clus>
<clus scale="  131.642">  1  9  2 -1</clus>
<clus scale="  160.599">  2  5  1 -1</clus>
<clus scale="   24.271">  2  5  1 -1</clus>
</clustering>
</event>
<event>
10    2  0.3984345E-006  0.1052684E+03  0.7546771E-02  0.1273039E+00
         -1   -1    0    0    0  501 -0.00000000000E+00  0.00000000000E+00  0.30321579764E+03  0.30321579764E+03  0.00000000000E+00 0.  1.
         21   -1    0    0  503  502  0.00000000000E+00 -0.00000000000E+00 -0.24139712386E+03  0.24139712386E+03  0.00000000000E+00 0.  1.
         23    2    1    2    0    0 -0.31327196404E+02 -0.46405897129E+02  0.13624533025E+03  0.16998637522E+03  0.84839125548E+02 0.  0.
         23    2    1    2    0    0  0.43776768829E+02  0.31212202853E+02  0.83400789139E+02  0.13573699947E+03  0.92618757826E+02 0.  0.
        -11    1    3    3    0    0 -0.31972351104E+01 -0.54774713956E+02  0.12836303330E+03  0.13959785070E+03  0.00000000000E+00 0.  1.
         11    1    3    3    0    0 -0.28129961293E+02  0.83688168271E+01  0.78822969441E+01  0.30388524521E+02  0.00000000000E+00 0. -1.
        -11    1    4    4    0    0 -0.19135552404E+02 -0.15457225146E+02  0.37796515973E+02  0.45096250340E+02  0.00000000000E+00 0.  1.
         11    1    4    4    0    0  0.62912321233E+02  0.46669427999E+02  0.45604273165E+02  0.90640749134E+02  0.00000000000E+00 0. -1.
         21    1    1    2  503  501  0.15501745107E+02  0.12880144529E+02  0.36957449231E+02  0.42095786940E+02  0.00000000000E+00 0.  1.
         -1    1    1    2    0  502 -0.27951317532E+02  0.23135497476E+01 -0.19478489484E+03  0.19679375986E+03  0.00000000000E+00 0.  1.
<scales pt_clust_5="13000.00000" pt_clust_6="13000.00000" pt_clust_7="13000.00000" pt_clust_8="13000.00000" pt_clust_9="20.15446" pt_clust_10="27.99215"></scales>
<clustering>
<clus scale="   20.154">  1  9  2 -1</clus>
<clus scale="   27.992">  2 10  1 -1</clus>
<clus scale="   84.839">  5  6 -1 -1</clus>
<clus scale="   92.619">  7  8 -1 -1</clus>
<clus scale="   98.493">  1  5  2 -1</clus>
<clus scale="   27.992">  2  5  1 -1</clus>
</clustering>
</event>
<event>
10    2  0.3984345E-006  0.1034081E+03  0.7546771E-02  0.1275057E+00
          2   -1    0    0  503    0 -0.00000000000E+00  0.00000000000E+00  0.25671357597E+03  0.25671357597E+03  0.00000000000E+00 0. -1.
         21   -1    0    0  501  502  0.00000000000E+00 -0.00000000000E+00 -0.11739025703E+03  0.11739025703E+03  0.00000000000E+00 0. -1.
         23    2    1    2    0    0 -0.59808017790E+01  0.46829962375E+02  0.67708546149E+02  0.12025478812E+03  0.87452567014E+02 0.  0.
         23    2    1    2    0    0  0.15198897484E+02 -0.49861063965E+02  0.77067295573E+02  0.13041017234E+03  0.91380046062E+02 0.  0.
        -11    1    4    4    0    0  0.46294054488E+02 -0.41023410858E+02  0.20331070053E+02  0.65110768148E+02  0.00000000000E+00 0. -1.
         11    1    4    4    0    0 -0.31095157004E+02 -0.88376531073E+01  0.56736225520E+02  0.65299404192E+02  0.00000000000E+00 0.  1.
        -11    1    3    3    0    0 -0.32673678912E+02 -0.11259989632E+02  0.16255516119E+02  0.38191602015E+02  0.00000000000E+00 0. -1.
         11    1    3    3    0    0  0.26692877133E+02  0.58089952007E+02  0.51453030030E+02  0.82063186101E+02  0.00000000000E+00 0.  1.
         21    1    1    2  503  502 -0.11469937566E+01 -0.27095909398E+02  0.51670710793E+02  0.58355516060E+02  0.00000000000E+00 0. -1.
          2    1    1    2  501    0 -0.80711019481E+01  0.30127010988E+02 -0.57123233575E+02  0.65083356488E+02  0.00000000000E+00 0. -1.
<scales pt_clust_5="13000.00000" pt_clust_6="13000.00000" pt_clust_7="13000.00000" pt_clust_8="13000.00000" pt_clust_9="27.12018" pt_clust_10="30.67923"></scales>
<clustering>
<clus scale="   27.120">  1  9  2 -1</clus>
<clus scale="   30.679">  2 10  1 -1</clus>
<clus scale="   87.453">  7  8 -1 -1</clus>
<clus scale="   91.380">  5  6 -1 -1</clus>
<clus scale="   99.954">  1  7  2 -1</clus>
<clus scale="   30.679">  2  5  1 -1</clus>
</clustering>
</event>
<event>
10    2  0.3984345E-006  0.3319062E+03  0.7546771E-02  0.1086703E+00
          1   -1    0    0  503    0 -0.00000000000E+00  0.00000000000E+00  0.84645548182E+03  0.84645548182E+03  0.00000000000E+00 0. -1.
         21   -1    0    0  501  502  0.00000000000E+00 -0.00000000000E+00 -0.37665205883E+03  0.37665205883E+03  0.00000000000E+00 0.  1.
         23    2    1    2    0    0 -0.12411830196E+03  0.16615689167E+03  0.40585316211E+02  0.23156583827E+03  0.94668389822E+02 0.  0.
         23    2    1    2    0    0  0.48659381362E+02 -0.36705342369E+03  0.12034231650E+03  0.40015657023E+03  0.92450291061E+02 0.  0.
        -11    1    3    3    0    0 -0.76372401021E+02  0.12823259484E+03 -0.13762683476E+02  0.14988580144E+03  0.00000000000E+00 0. -1.
         11    1    3    3    0    0 -0.47745900940E+02  0.37924296828E+02  0.54347999687E+02  0.81680036829E+02  0.00000000000E+00 0.  1.
        -11    1    4    4    0    0  0.67896697615E+02 -0.33308754659E+03  0.12178669572E+03  0.36109455062E+03  0.00000000000E+00 0.  1.
         11    1    4    4    0    0 -0.19237316253E+02 -0.33965877104E+02 -0.14443792124E+01  0.39062019602E+02  0.00000000000E+00 0. -1.
         21    1    1    2  503  502  0.11489382218E+01 -0.85833298904E+02  0.28106330511E+03  0.29387966371E+03  0.00000000000E+00 0.  1.
          1    1    1    2  501    0  0.74309982378E+02  0.28672983093E+03  0.27812485170E+02  0.29750546845E+03  0.00000000000E+00 0. -1.
<scales pt_clust_5="13000.00000" pt_clust_6="13000.00000" pt_clust_7="13000.00000" pt_clust_8="13000.00000" pt_clust_9="85.84099" pt_clust_10="318.77054"></scales>
<clustering>
<clus scale="   85.841">  1  9  2 -1</clus>
<clus scale="   92.450">  7  8 -1 -1</clus>
<clus scale="   94.668">  5  6 -1 -1</clus>
<clus scale="  213.071">  1  5  2 -1</clus>
<clus scale="  318.771">  2 10  1 -1</clus>
<clus scale="  318.771">  2  5  1 -1</clus>
</clustering>
</event>
<event>
10    2  0.3984345E-006  0.1018928E+03  0.7546771E-02  0.1276454E+00
         -3   -1    0    0    0  501 -0.00000000000E+00  0.00000000000E+00  0.39220248150E+02  0.39220248150E+02  0.00000000000E+00 0.  1.
         21   -1    0    0  503  502  0.00000000000E+00 -0.00000000000E+00 -0.54792422681E+03  0.54792422681E+03  0.00000000000E+00 0.  1.
         23    2    1    2    0    0  0.42754419353E+02 -0.83077672687E+00 -0.15105449523E+03  0.18163583691E+03  0.91353632407E+02 0.  0.
         23    2    1    2    0    0 -0.40944839246E+02  0.21424837624E+02 -0.20987534808E+03  0.23343792360E+03  0.91159743936E+02 0.  0.
        -13    1    4    4    0    0  0.23166003489E+02  0.25571069502E+02 -0.10422195573E+03  0.10978505986E+03  0.00000000000E+00 0.  1.
         13    1    4    4    0    0 -0.64110842735E+02 -0.41462318775E+01 -0.10565339236E+03  0.12365286374E+03  0.00000000000E+00 0. -1.
        -13    1    3    3    0    0  0.69575669688E+02  0.42784808286E+01 -0.12863126855E+03  0.14630475884E+03  0.00000000000E+00 0.  1.
         13    1    3    3    0    0 -0.26821250335E+02 -0.51092575555E+01 -0.22423226683E+02  0.35331078064E+02  0.00000000000E+00 0. -1.
         21    1    1    2  503  501  0.23419117056E+02 -0.79507974355E+00 -0.28087463951E+01  0.23600344316E+02  0.00000000000E+00 0.  1.
         -3    1    1    2    0  502 -0.25228697164E+02 -0.19798981154E+02 -0.14496538895E+03  0.14847037014E+03  0.00000000000E+00 0.  1.
<scales pt_clust_5="13000.00000" pt_clust_6="13000.00000" pt_clust_7="13000.00000" pt_clust_8="13000.00000" pt_clust_9="23.43261" pt_clust_10="30.99333"></scales>
<clustering>
<clus scale="   23.433">  1  9  2 -1</clus>
<clus scale="   30.993">  2 10  1 -1</clus>
<clus scale="   91.160">  5  6 -1 -1</clus>
<clus scale="   91.354">  7  8 -1 -1</clus>
<clus scale="  101.719">  2  5  1 -1</clus>
<clus scale="   30.993">  2  5  1 -1</clus>
</clustering>
</event>
<event>
10    2  0.3984345E-006  0.9640995E+02  0.7546771E-02  0.1289265E+00
          2   -1    0    0  503    0 -0.00000000000E+00  0.00000000000E+00  0.27099053987E+03  0.27099053987E+03  0.00000000000E+00 0. -1.
         21   -1    0    0  501  502  0.00000000000E+00 -0.00000000000E+00 -0.69256098845E+02  0.69256098845E+02  0.00000000000E+00 0.  1.
         23    2    1    2    0    0 -0.25244491842E+02 -0.19640235846E+02  0.16047763887E+03  0.18693698880E+03  0.90384412227E+02 0.  0.
         23    2    1    2    0    0  0.10914113089E+02  0.31768928725E+01  0.85094742630E+01  0.93763435383E+02  0.92682037902E+02 0.  0.
        -11    1    4    4    0    0  0.23451114326E+02  0.33144228145E+02 -0.24524441022E+02  0.47433562273E+02  0.00000000000E+00 0.  1.
         11    1    4    4    0    0 -0.12537001237E+02 -0.29967335272E+02  0.33033915285E+02  0.46329873110E+02  0.00000000000E+00 0. -1.
        -11    1    3    3    0    0  0.28666153111E+02  0.97916346711E+01  0.29550577216E+02  0.42318566346E+02  0.00000000000E+00 0.  1.
         11    1    3    3    0    0 -0.53910644953E+02 -0.29431870517E+02  0.13092706165E+03  0.14461842246E+03  0.00000000000E+00 0. -1.
         21    1    1    2  503  502 -0.10725769610E+02  0.21111866742E+02  0.20274563959E+02  0.31173883216E+02  0.00000000000E+00 0. -1.
          2    1    1    2  501    0  0.25056148363E+02 -0.46485237683E+01  0.12472763939E+02  0.28372331316E+02  0.00000000000E+00 0. -1.
<scales pt_clust_5="13000.00000" pt_clust_6="13000.00000" pt_clust_7="13000.00000" pt_clust_8="13000.00000" pt_clust_9="23.68022" pt_clust_10="24.33533"></scales>
<clustering>
<clus scale="   23.680">  1  9  2 -1</clus>
<clus scale="   24.335">  2 10  1 -1</clus>
<clus scale="   90.384">  7  8 -1 -1</clus>
<clus scale="   92.682">  5  6 -1 -1</clus>
<clus scale="   94.203">  1  7  2 -1</clus>
<clus scale="   24.335">  2  5  1 -1</clus>
</clustering>
</event>
<event>
10    2  0.3984345E-006  0.1086643E+03  0.7546771E-02  0.1264465E+00
          1   -1    0    0  503    0 -0.00000000000E+00  0.00000000000E+00  0.11003237803E+03  0.11003237803E+03  0.00000000000E+00 0. -1.
         21   -1    0    0  501  502  0.00000000000E+00 -0.00000000000E+00 -0.24961621775E+03  0.24961621775E+03  0.00000000000E+00 0. -1.
         23    2    1    2    0    0 -0.39655124277E+02 -0.17056530560E+02  0.15152804608E+02  0.10232609543E+03  0.91529056605E+02 0.  0.
         23    2    1    2    0    0  0.35629259719E+02  0.50244549638E+02 -0.58860224036E+02  0.12753483393E+03  0.94903366510E+02 0.  0.
        -11    1    4    4    0    0  0.91614201936E+01  0.61454165266E+02 -0.72699086867E+02  0.95633170395E+02  0.00000000000E+00 0.  1.
         11    1    4    4    0    0  0.26467839526E+02 -0.11209615628E+02  0.13838862831E+02  0.31901663533E+02  0.00000000000E+00 0. -1.
        -13    1    3    3    0    0 -0.65305343961E+02  0.58029596223E+01  0.17590624967E+02  0.67881458270E+02  0.00000000000E+00 0.  1.
         13    1    3    3    0    0  0.25650219683E+02 -0.22859490182E+02 -0.24378203596E+01  0.34444637163E+02  0.00000000000E+00 0. -1.
         21    1    1    2  503  502 -0.92041785815E+01 -0.18124372861E+02  0.95590618451E+01  0.22462979729E+02  0.00000000000E+00 0.  1.
          1    1    1    2  501    0  0.13230043140E+02 -0.15063646218E+02 -0.10543548214E+03  0.10732468669E+03  0.00000000000E+00 0. -1.
<scales pt_clust_5="13000.00000" pt_clust_6="13000.00000" pt_clust_7="13000.00000" pt_clust_8="13000.00000" pt_clust_9="20.67972" pt_clust_10="20.04863"></scales>
<clustering>
<clus scale="   20.049">  2 10  1 -1</clus>
<clus scale="   20.680">  1  9  2 -1</clus>
<clus scale="   91.529">  7  8 -1 -1</clus>
<clus scale="   94.903">  5  6 -1 -1</clus>
<clus scale="  105.730">  1  7  2 -1</clus>
<clus scale="   20.049">  2  5  1 -1</clus>
</clustering>
</event>
<event>
10    2  0.3984345E-006  0.1163333E+03  0.7546771E-02  0.1249436E+00
         21   -1    0    0  503  502  0.00000000000E+00  0.00000000000E+00  0.36748489479E+03  0.36748489479E+03  0.00000000000E+00 0. -1.
         -2   -1    0    0    0  501 -0.00000000000E+00 -0.00000000000E+00 -0.12312450775E+03  0.12312450775E+03  0.00000000000E+00 0.  1.
         23    2    1    2    0    0 -0.54119004682E+01  0.50369462130E+02 -0.42655516041E+02  0.11386217730E+03  0.92621439143E+02 0.  0.
         23    2    1    2    0    0  0.45159709064E+01 -0.71441419625E+02  0.24902807615E+03  0.27500785726E+03  0.92141567239E+02 0.  0.
        -11    1    3    3    0    0  0.16034716390E+02  0.69724025903E+02 -0.13477752851E+02  0.72802484434E+02  0.00000000000E+00 0.  1.
         11    1    3    3    0    0 -0.21446616858E+02 -0.19354563773E+02 -0.29177763190E+02  0.41059692866E+02  0.00000000000E+00 0. -1.
        -11    1    4    4    0    0 -0.46833913226E+01 -0.22404168010E+02  0.19820637433E+01  0.22974104447E+02  0.00000000000E+00 0.  1.
         11    1    4    4    0    0  0.91993622290E+01 -0.49037251615E+02  0.24704601241E+03  0.25203375281E+03  0.00000000000E+00 0. -1.
         21    1    1    2  503  501 -0.26976586816E+02  0.18879715641E+02 -0.19176563284E+02  0.38104074301E+02  0.00000000000E+00 0.  1.
         -2    1    1    2    0  502  0.27872516378E+02  0.21922418537E+01  0.57164390213E+02  0.63635293682E+02  0.00000000000E+00 0.  1.
<scales pt_clust_5="13000.00000" pt_clust_6="13000.00000" pt_clust_7="13000.00000" pt_clust_8="13000.00000" pt_clust_9="32.26653" pt_clust_10="27.95860"></scales>
<clustering>
<clus scale="   27.959">  1 10  2 -1</clus>
<clus scale="   32.267">  2  9  1 -1</clus>
<clus scale="   92.142">  7  8 -1 -1</clus>
<clus scale="   92.621">  5  6 -1 -1</clus>
<clus scale="  115.952">  1  7  2 -1</clus>
<clus scale="   27.959">  1  5  2 -1</clus>
</clustering>
</event>
<event>
10    2  0.3984345E-006  0.1082548E+03  0.7546771E-02  0.1266974E+00
         21   -1    0    0  503  502  0.00000000000E+00  0.00000000000E+00  0.16732888972E+03  0.16732888972E+03  0.00000000000E+00 0. -1.
         -3   -1    0    0    0  501 -0.00000000000E+00 -0.00000000000E+00 -0.35140807272E+03  0.35140807272E+03  0.00000000000E+00 0.  1.
         23    2    1    2    0    0 -0.25709680116E+02 -0.35804971236E+02 -0.10981170440E+03  0.15065611598E+03  0.93250583078E+02 0.  0.
         23    2    1    2    0    0  0.63553780330E+02 -0.74193057993E+01 -0.29180720224E+02  0.11087208544E+03  0.85714501719E+02 0.  0.
        -11    1    4    4    0    0  0.12524907930E+02 -0.21409050831E+02 -0.48556041912E+02  0.54524398046E+02  0.00000000000E+00 0.  1.
         11    1    4    4    0    0  0.51028872400E+02  0.13989745031E+02  0.19375321688E+02  0.56347687397E+02  0.00000000000E+00 0. -1.
        -13    1    3    3    0    0  0.30024741207E+02 -0.29650017555E+02 -0.25195479893E+02  0.49146931060E+02  0.00000000000E+00 0. -1.
         13    1    3    3    0    0 -0.55734421323E+02 -0.61549536814E+01 -0.84616224503E+02  0.10150918493E+03  0.00000000000E+00 0.  1.
         21    1    1    2  503  501 -0.61341539627E+02  0.43841104787E+02 -0.14022480460E+03  0.15920999584E+03  0.00000000000E+00 0. -1.
         -3    1    1    2    0  502  0.23497439413E+02 -0.61682775174E+00  0.95138046223E+02  0.97998765169E+02  0.00000000000E+00 0.  1.
<scales pt_clust_5="13000.00000" pt_clust_6="13000.00000" pt_clust_7="13000.00000" pt_clust_8="13000.00000" pt_clust_9="72.80654" pt_clust_10="23.50553"></scales>
<clustering>
<clus scale="   23.506">  1 10  2 -1</clus>
<clus scale="   72.807">  2  9  1 -1</clus>
<clus scale="   85.715">  5  6 -1 -1</clus>
<clus scale="   93.251">  7  8 -1 -1</clus>
<clus scale="  101.835">  1  5  2 -1</clus>
<clus scale="   23.506">  1  5  2 -1</clus>
</clustering>
</event>
<event>
10    2  0.3984345E-006  0.1117471E+03  0.7546771E-02  0.1259678E+00
         21   -1    0    0  501  502  0.00000000000E+00  0.00000000000E+00  0.20251455866E+03  0.20251455866E+03  0.00000000000E+00 0.  1.
          1   -1    0    0  503    0 -0.00000000000E+00 -0.00000000000E+00 -0.20283834820E+03  0.20283834820E+03  0.00000000000E+00 0. -1.
         23    2    1    2    0    0 -0.16262651124E+02 -0.36682215407E+02 -0.29222527243E+02  0.10944369309E+03  0.97539259324E+02 0.  0.
         23    2    1    2    0    0  0.35544855636E+02  0.63689285311E+02  0.64390665384E+02  0.13376752480E+03  0.91803219312E+02 0.  0.
        -11    1    3    3    0    0 -0.42759716408E+02 -0.15033449730E+02  0.19963244229E+02  0.49527054003E+02  0.00000000000E+00 0. -1.
         11    1    3    3    0    0  0.26497065283E+02 -0.21648765677E+02 -0.49185771472E+02  0.59916639085E+02  0.00000000000E+00 0.  1.
        -13    1    4    4    0    0  0.52203036748E+02  0.20756475177E+02  0.67250256420E+02  0.87627537315E+02  0.00000000000E+00 0.  1.
         13    1    4    4    0    0 -0.16658181112E+02  0.42932810134E+02 -0.28595910351E+01  0.46139987482E+02  0.00000000000E+00 0. -1.
         21    1    1    2  503  502 -0.20593377797E+02 -0.21190329380E+01 -0.95208422664E+02  0.97433163019E+02  0.00000000000E+00 0. -1.
          1    1    1    2  501    0  0.13111732851E+01 -0.24888036966E+02  0.59716494978E+02  0.64708525959E+02  0.00000000000E+00 0. -1.
<scales pt_clust_5="13000.00000" pt_clust_6="13000.00000" pt_clust_7="13000.00000" pt_clust_8="13000.00000" pt_clust_9="20.70211" pt_clust_10="24.95145"></scales>
<clustering>
<clus scale="   20.702">  2  9  1 -1</clus>
<clus scale="   24.951">  1 10  2 -1</clus>
<clus scale="   91.803">  7  8 -1 -1</clus>
<clus scale="   97.539">  5  6 -1 -1</clus>
<clus scale="  106.777">  1  7  2 -1</clus>
<clus scale="   24.951">  1  5  2 -1</clus>
</clustering>
</event>
<event>
10    2  0.3984345E-006  0.1000848E+03  0.7546771E-02  0.1280544E+00
          1   -1    0    0  503    0 -0.00000000000E+00  0.00000000000E+00  0.32091801632E+03  0.32091801632E+03  0.00000000000E+00 0. -1.
         21   -1    0    0  501  502  0.00000000000E+00 -0.00000000000E+00 -0.17841717258E+03  0.17841717258E+03  0.00000000000E+00 0. -1.
         23    2    1    2    0    0  0.14494280353E+02  0.43601368841E+02  0.87319446991E+02  0.13513142273E+03  0.92329042338E+02 0.  0.
         23    2    1    2    0    0  0.70670730884E+02 -0.38643137736E+02  0.77452779018E+01  0.12211109554E+03  0.91452096894E+02 0.  0.
        -11    1    4    4    0    0  0.30208962447E+02 -0.20428795179E+02 -0.41885672538E+02  0.55536714420E+02  0.00000000000E+00 0.  1.
         11    1    4    4    0    0  0.40461768437E+02 -0.18214342556E+02  0.49630950440E+02  0.66574381119E+02  0.00000000000E+00 0. -1.
        -13    1    3    3    0    0  0.44239576688E+02  0.54460362554E+02  0.49831492263E+02  0.86059565745E+02  0.00000000000E+00 0. -1.
         13    1    3    3    0    0 -0.29745296335E+02 -0.10858993713E+02  0.37487954729E+02  0.49071856988E+02  0.00000000000E+00 0.  1.
         21    1    1    2  503  502 -0.13773821488E+02 -0.19355468946E+02  0.12991087721E+03  0.13206509136E+03  0.00000000000E+00 0. -1.
          1    1    1    2  501    0 -0.71391189749E+02  0.14397237840E+02 -0.82474758373E+02  0.11002757927E+03  0.00000000000E+00 0. -1.
<scales pt_clust_5="13000.00000" pt_clust_6="13000.00000" pt_clust_7="13000.00000" pt_clust_8="13000.00000" pt_clust_9="23.75610" pt_clust_10="73.54710"></scales>
<clustering>
<clus scale="   23.756">  1  9  2 -1</clus>
<clus scale="   73.547">  2 10  1 -1</clus>
<clus scale="   91.452">  5  6 -1 -1</clus>
<clus scale="   92.329">  7  8 -1 -1</clus>
<clus scale="   99.276">  2  5  1 -1</clus>
<clus scale="   73.547">  2  5  1 -1</clus>
</clustering>
</event>
<event>
10    2  0.3984345E-006  0.9697699E+02  0.7546771E-02  0.1288839E+00
          2   -1    0    0  503    0 -0.00000000000E+00  0.00000000000E+00  0.34585125389E+03  0.34585125389E+03  0.00000000000E+00 0. -1.
         21   -1    0    0  501  502  0.00000000000E+00 -0.00000000000E+00 -0.30932018069E+03  0.30932018069E+03  0.00000000000E+00 0. -1.
         23    2    1    2    0    0  0.34601557580E+01  0.46745007226E+02  0.25397017556E+03  0.27487578939E+03  0.94121098264E+02 0.  0.
         23    2    1    2    0    0 -0.39962469190E+02 -0.10909041612E+02 -0.11162584070E+03  0.14945285417E+03  0.90331728511E+02 0.  0.
        -13    1    3    3    0    0  0.27625698707E+02  0.67715668404E+02  0.17891813424E+03  0.19328810034E+03  0.00000000000E+00 0. -1.
         13    1    3    3    0    0 -0.24165542949E+02 -0.20970661178E+02  0.75052041326E+02  0.81587689044E+02  0.00000000000E+00 0.  1.
        -13    1    4    4    0    0 -0.55448337273E+02 -0.27202025940E+02 -0.11092940564E+03  0.12696377971E+03  0.00000000000E+00 0. -1.
         13    1    4    4    0    0  0.15485868083E+02  0.16292984327E+02 -0.69643505916E+00  0.22489074466E+02  0.00000000000E+00 0.  1.
         21    1    1    2  503  502  0.57584469730E+01 -0.27667687409E+02  0.57707912465E+02  0.64256235488E+02  0.00000000000E+00 0.  1.
          2    1    1    2  501    0  0.30743866459E+02 -0.81682782047E+01 -0.16352117413E+03  0.16658655552E+03  0.00000000000E+00 0. -1.
<scales pt_clust_5="13000.00000" pt_clust_6="13000.00000" pt_clust_7="13000.00000" pt_clust_8="13000.00000" pt_clust_9="28.26058" pt_clust_10="31.87893"></scales>
<clustering>
<clus scale="   28.261">  1  9  2 -1</clus>
<clus scale="   31.879">  2 10  1 -1</clus>
<clus scale="   90.332">  7  8 -1 -1</clus>
<clus scale="   93.304">  2  7  1 -1</clus>
<clus scale="   94.121">  5  6 -1 -1</clus>
<clus scale="   31.879">  2  5  1 -1</clus>
</clustering>
</event>
<event>
10    2  0.3984345E-006  0.9571839E+02  0.7546771E-02  0.1293575E+00
         -2   -1    0    0    0  501 -0.00000000000E+00  0.00000000000E+00  0.21299298852E+03  0.21299298852E+03  0.00000000000E+00 0.  1.
         21   -1    0    0  503  502  0.00000000000E+00 -0.00000000000E+00 -0.10372095021E+03  0.10372095021E+03  0.00000000000E+00 0.  1.
         23    2    1    2    0    0 -0.28778583726E+02 -0.14222632544E+02  0.72764545670E+02  0.12040308677E+03  0.90397643992E+02 0.  0.
         23    2    1    2    0    0  0.16282174126E+02  0.30872265272E+02  0.49169399652E+02  0.10263074835E+03  0.83049591732E+02 0.  0.
        -13    1    4    4    0    0 -0.76695253711E+01 -0.19453911472E+02  0.41367184460E+02  0.46352133081E+02  0.00000000000E+00 0. -1.
         13    1    4    4    0    0  0.23951699497E+02  0.50326176744E+02  0.78022151921E+01  0.56278615267E+02  0.00000000000E+00 0.  1.
        -13    1    3    3    0    0 -0.52413130395E+02  0.81991350797E+01  0.69825965947E+02  0.87692802295E+02  0.00000000000E+00 0.  1.
         13    1    3    3    0    0  0.23634546669E+02 -0.22421767623E+02  0.29385797226E+01  0.32710284474E+02  0.00000000000E+00 0. -1.
         21    1    1    2  503  501 -0.15696347967E+02  0.23994862747E+02  0.19502815759E+02  0.34676917399E+02  0.00000000000E+00 0.  1.
         -2    1    1    2    0  502  0.28192757568E+02 -0.40644495475E+02 -0.32164722770E+02  0.59003186207E+02  0.00000000000E+00 0.  1.
<scales pt_clust_5="13000.00000" pt_clust_6="13000.00000" pt_clust_7="13000.00000" pt_clust_8="13000.00000" pt_clust_9="28.67279" pt_clust_10="47.39629"></scales>
<clustering>
<clus scale="   28.673">  1  9  2 -1</clus>
<clus scale="   47.396">  2 10  1 -1</clus>
<clus scale="   83.050">  5  6 -1 -1</clus>
<clus scale="   88.812">  2  5  1 -1</clus>
<clus scale="   90.398">  7  8 -1 -1</clus>
<clus scale="   47.396">  2  5  1 -1</clus>
</clustering>
</event>
<event>
10    2  0.3984345E-006  0.1094348E+03  0.7546771E-02  0.1262781E+00
         21   -1    0    0  501  502  0.00000000000E+00  0.00000000000E+00  0.26314957334E+03  0.26314957334E+03  0.00000000000E+00 0.  1.
          1   -1    0    0  503    0 -0.00000000000E+00 -0.00000000000E+00 -0.17485492930E+03  0.17485492930E+03  0.00000000000E+00 0. -1.
         23    2    1    2    0    0 -0.11778100734E+02 -0.57153213381E+02  0.82804354857E+01  0.11266221892E+03  0.96015605520E+02 0.  0.
         23    2    1    2    0    0  0.78238958296E+01  0.60211236736E+02  0.18121460075E+03  0.21263121014E+03  0.93202433573E+02 0.  0.
        -11    1    4    4    0    0 -0.12492770874E+02  0.81070051615E+02  0.12990026404E+03  0.15363105542E+03  0.00000000000E+00 0. -1.
         11    1    4    4    0    0  0.20316666703E+02 -0.20858814879E+02  0.51314336718E+02  0.59000154719E+02  0.00000000000E+00 0.  1.
        -11    1    3    3    0    0 -0.22359761831E+02 -0.77874132505E+02 -0.11866705865E+02  0.81885030199E+02  0.00000000000E+00 0.  1.
         11    1    3    3    0    0  0.10581661098E+02  0.20720919124E+02  0.20147141351E+02  0.30777188721E+02  0.00000000000E+00 0. -1.
         21    1    1    2  503  502  0.16782488590E+02  0.13966427077E+02 -0.78883783840E+02  0.81849644847E+02  0.00000000000E+00 0. -1.
          1    1    1    2  501    0 -0.12828283686E+02 -0.17024450432E+02 -0.22316608360E+02  0.30861428734E+02  0.00000000000E+00 0. -1.
<scales pt_clust_5="13000.00000" pt_clust_6="13000.00000" pt_clust_7="13000.00000" pt_clust_8="13000.00000" pt_clust_9="21.71491" pt_clust_10="21.31660"></scales>
<clustering>
<clus scale="   21.317">  1 10  2 -1</clus>
<clus scale="   21.715">  2  9  1 -1</clus>
<clus scale="   93.202">  5  6 -1 -1</clus>
<clus scale="   96.016">  7  8 -1 -1</clus>
<clus scale="  106.975">  1  5  2 -1</clus>
<clus scale="   21.317">  1  5  2 -1</clus>
</clustering>
</event>
<event>
10    2  0.3984345E-006  0.3041783E+03  0.7546771E-02  0.1083192E+00
         21   -1    0    0  501  502  0.00000000000E+00  0.00000000000E+00  0.70020533922E+03  0.70020533922E+03  0.00000000000E+00 0. -1.
          1   -1    0    0  503    0 -0.00000000000E+00 -0.00000000000E+00 -0.35044582757E+03  0.35044582757E+03  0.00000000000E+00 0. -1.
         23    2    1    2    0    0  0.14829899444E+02  0.27101362261E+03 -0.19883113236E+03  0.34842404855E+03  0.90538328096E+02 0.  0.
         23    2    1    2    0    0  0.46358448997E+02 -0.24125850300E+03  0.44780633561E+03  0.51883493787E+03  0.91128521731E+02 0.  0.
        -11    1    3    3    0    0  0.32929789656E+02  0.36787140817E+02 -0.20404866319E+02  0.53423060056E+02  0.00000000000E+00 0.  1.
         11    1    3    3    0    0 -0.18099890212E+02  0.23422648180E+03 -0.17842626604E+03  0.29500098849E+03  0.00000000000E+00 0. -1.
        -13    1    4    4    0    0 -0.19360369237E+02 -0.12981150589E+03  0.19870129329E+03  0.23813453113E+03  0.00000000000E+00 0.  1.
         13    1    4    4    0    0  0.65718818235E+02 -0.11144699711E+03  0.24910504232E+03  0.28070040674E+03  0.00000000000E+00 0. -1.
         21    1    1    2  503  502  0.20118281250E+02  0.38389361185E+02  0.11779675099E+02  0.44913795632E+02  0.00000000000E+00 0. -1.
          1    1    1    2  501    0 -0.81306629691E+02 -0.68144480795E+02  0.89004633293E+02  0.13847838475E+03  0.00000000000E+00 0. -1.
<scales pt_clust_5="13000.00000" pt_clust_6="13000.00000" pt_clust_7="13000.00000" pt_clust_8="13000.00000" pt_clust_9="43.34153" pt_clust_10="103.12481"></scales>
<clustering>
<clus scale="   43.342">  2  9  1 -1</clus>
<clus scale="   90.538">  5  6 -1 -1</clus>
<clus scale="   91.129">  7  8 -1 -1</clus>
<clus scale="  103.125">  1 10  2 -1</clus>
<clus scale="  304.002">  2  5  1 -1</clus>
<clus scale="  103.125">  1  5  2 -1</clus>
</clustering>
</event>
<event>
10    2  0.3984345E-006  0.1293639E+03  0.7546771E-02  0.1229985E+00
          2   -1    0    0  503    0 -0.00000000000E+00  0.00000000000E+00  0.38169987019E+03  0.38169987019E+03  0.00000000000E+00 0. -1.
         21   -1    0    0  501  502  0.00000000000E+00 -0.00000000000E+00 -0.12193309983E+03  0.12193309983E+03  0.00000000000E+00 0.  1.
         23    2    1    2    0    0  0.86282108054E+02  0.52997664502E+02  0.11675666885E+03  0.17687581682E+03  0.86020812837E+02 0.  0.
         23    2    1    2    0    0 -0.95757550131E+02 -0.15965028289E+02  0.51824755913E+02  0.14342193162E+03  0.91976380716E+02 0.  0.
        -11    1    3    3    0    0  0.66458385205E+02 -0.63971862872E+01  0.40046653591E+02  0.77854835561E+02  0.00000000000E+00 0. -1.
         11    1    3    3    0    0  0.19823722848E+02  0.59394850789E+02  0.76710015261E+02  0.99020981257E+02  0.00000000000E+00 0.  1.
        -11    1    4    4    0    0 -0.53424437095E+02 -0.19065204033E+02 -0.19870331852E+02  0.60103931416E+02  0.00000000000E+00 0.  1.
         11    1    4    4    0    0 -0.42333113036E+02  0.31001757441E+01  0.71695087764E+02  0.83318000207E+02  0.00000000000E+00 0. -1.
         21    1    1    2  503  502 -0.22702521491E+02 -0.18745176280E+02  0.12787481730E+03  0.13122025383E+03  0.00000000000E+00 0.  1.
          2    1    1    2  501    0  0.32177963569E+02 -0.18287459933E+02 -0.36689471697E+02  0.52114967751E+02  0.00000000000E+00 0. -1.
<scales pt_clust_5="13000.00000" pt_clust_6="13000.00000" pt_clust_7="13000.00000" pt_clust_8="13000.00000" pt_clust_9="29.44123" pt_clust_10="36.70074"></scales>
<clustering>
<clus scale="   29.441">  1  9  2 -1</clus>
<clus scale="   36.701">  2 10  1 -1</clus>
<clus scale="   86.021">  5  6 -1 -1</clus>
<clus scale="   91.976">  7  8 -1 -1</clus>
<clus scale="  125.200">  1  5  2 -1</clus>
<clus scale="   36.701">  2  5  1 -1</clus>
</clustering>
</event>
<event>
10    2  0.3984345E-006  0.1671965E+03  0.7546771E-02  0.1198684E+00
         -1   -1    0    0    0  501 -0.00000000000E+00  0.00000000000E+00  0.41645768931E+03  0.41645768931E+03  0.00000000000E+00 0.  1.
         21   -1    0    0  503  502  0.00000000000E+00 -0.00000000000E+00 -0.24052956950E+03  0.24052956950E+03  0.00000000000E+00 0.  1.
         23    2    1    2    0    0 -0.59647647137E+02  0.40512138783E+02 -0.24691084428E+02  0.11816948945E+03  0.90306718404E+02 0.  0.
         23    2    1    2    0    0  0.12014234256E+03  0.10432260055E+03  0.16182788853E+03  0.24431196361E+03  0.90458181474E+02 0.  0.
        -11    1    3    3    0    0 -0.40158603228E+02 -0.21548197172E+02 -0.27196998782E+02  0.53072732711E+02  0.00000000000E+00 0. -1.
         11    1    3    3    0    0 -0.19489043909E+02  0.62060335955E+02  0.25059143542E+01  0.65096756740E+02  0.00000000000E+00 0.  1.
        -11    1    4    4    0    0  0.60453677977E+02  0.44917358634E+02  0.13730078170E+03  0.15660051386E+03  0.00000000000E+00 0.  1.
         11    1    4    4    0    0  0.59688664580E+02  0.59405241916E+02  0.24527106828E+02  0.87711449742E+02  0.00000000000E+00 0. -1.
         21    1    1    2  503  501  0.16004775769E+02 -0.29936391099E+02  0.12649091625E+03  0.13096676011E+03  0.00000000000E+00 0.  1.
         -1    1    1    2    0  502 -0.76499471189E+02 -0.11489834823E+03 -0.87699600530E+02  0.16353904565E+03  0.00000000000E+00 0.  1.
<scales pt_clust_5="13000.00000" pt_clust_6="13000.00000" pt_clust_7="13000.00000" pt_clust_8="13000.00000" pt_clust_9="33.94614" pt_clust_10="140.61294"></scales>
<clustering>
<clus scale="   33.946">  1  9  2 -1</clus>
<clus scale="   90.307">  5  6 -1 -1</clus>
<clus scale="   90.458">  7  8 -1 -1</clus>
<clus scale="  112.608">  1  5  2 -1</clus>
<clus scale="  140.613">  2 10  1 -1</clus>
<clus scale="  140.613">  2  5  1 -1</clus>
</clustering>
</event>
<event>
10    2  0.3984345E-006  0.1041066E+03  0.7546771E-02  0.1275517E+00
         21   -1    0    0  501  502  0.00000000000E+00  0.00000000000E+00  0.27488692450E+03  0.27488692450E+03  0.00000000000E+00 0.  1.
          3   -1    0    0  503    0 -0.00000000000E+00 -0.00000000000E+00 -0.90682465042E+02  0.90682465042E+02  0.00000000000E+00 0. -1.
         23    2    1    2    0    0  0.38502115090E+02 -0.16156346554E+02  0.43503076880E+02  0.10500254430E+03  0.85962644274E+02 0.  0.
         23    2    1    2    0    0 -0.50636746076E+02 -0.22541778589E+01  0.35881644972E+02  0.11250331982E+03  0.93810144189E+02 0.  0.
        -11    1    3    3    0    0 -0.96947710515E+01 -0.32459363400E+02  0.42188412771E+02  0.54106016580E+02  0.00000000000E+00 0.  1.
         11    1    3    3    0    0  0.48196886142E+02  0.16303016845E+02  0.13146641097E+01  0.50896527718E+02  0.00000000000E+00 0. -1.
        -13    1    4    4    0    0 -0.45002602890E+02  0.41474277645E+02  0.29553919135E+02  0.67961637041E+02  0.00000000000E+00 0.  1.
         13    1    4    4    0    0 -0.56341431858E+01 -0.43728455504E+02  0.63277258367E+01  0.44541682775E+02  0.00000000000E+00 0. -1.
         21    1    1    2  503  502 -0.14090031429E+02  0.15017433379E+02 -0.14925887245E+02  0.25432939292E+02  0.00000000000E+00 0.  1.
          3    1    1    2  501    0  0.26224662415E+02  0.33930910339E+01  0.11974562485E+03  0.12263058614E+03  0.00000000000E+00 0. -1.
<scales pt_clust_5="13000.00000" pt_clust_6="13000.00000" pt_clust_7="13000.00000" pt_clust_8="13000.00000" pt_clust_9="20.59253" pt_clust_10="26.19902"></scales>
<clustering>
<clus scale="   20.593">  2  9  1 -1</clus>
<clus scale="   26.199">  1 10  2 -1</clus>
<clus scale="   85.963">  5  6 -1 -1</clus>
<clus scale="   93.810">  7  8 -1 -1</clus>
<clus scale="   97.095">  2  5  1 -1</clus>
<clus scale="   26.199">  1  5  2 -1</clus>
</clustering>
</event>
<event>
10    2  0.3984345E-006  0.1151084E+03  0.7546771E-02  0.1252502E+00
         21   -1    0    0  501  502  0.00000000000E+00  0.00000000000E+00  0.62753807679E+02  0.62753807679E+02  0.00000000000E+00 0.  1.
          2   -1    0    0  503    0 -0.00000000000E+00 -0.00000000000E+00 -0.56846887079E+03  0.56846887079E+03  0.00000000000E+00 0. -1.
         23    2    1    2    0    0  0.60886867765E+02 -0.43069385834E+02 -0.37836977970E+03  0.39645314199E+03  0.91919643944E+02 0.  0.
         23    2    1    2    0    0 -0.47696168956E+02  0.47772935636E+02 -0.32749487725E+02  0.11621431365E+03  0.88747168060E+02 0.  0.
        -11    1    4    4    0    0 -0.40066093605E+02  0.74021256032E+02 -0.24871397510E+02  0.87766876528E+02  0.00000000000E+00 0.  1.
         11    1    4    4    0    0 -0.76300753505E+01 -0.26248320396E+02 -0.78780902151E+01  0.28447437123E+02  0.00000000000E+00 0. -1.
        -11    1    3    3    0    0 -0.14222017182E+02 -0.36489886360E+02 -0.85647149440E+02  0.94176492749E+02  0.00000000000E+00 0.  1.
         11    1    3    3    0    0  0.75108884947E+02 -0.65794994737E+01 -0.29272263026E+03  0.30227664924E+03  0.00000000000E+00 0. -1.
         21    1    1    2  503  502  0.68903129715E+01  0.23207739686E+02 -0.75366246014E+02  0.79158995903E+02  0.00000000000E+00 0. -1.
          2    1    1    2  501    0 -0.20081011781E+02 -0.27911289489E+02 -0.19229549669E+02  0.39396226920E+02  0.00000000000E+00 0. -1.
<scales pt_clust_5="13000.00000" pt_clust_6="13000.00000" pt_clust_7="13000.00000" pt_clust_8="13000.00000" pt_clust_9="24.20900" pt_clust_10="33.02348"></scales>
<clustering>
<clus scale="   24.209">  2  9  1 -1</clus>
<clus scale="   33.023">  1 10  2 -1</clus>
<clus scale="   88.747">  5  6 -1 -1</clus>
<clus scale="   91.920">  7  8 -1 -1</clus>
<clus scale="  112.591">  1  5  2 -1</clus>
<clus scale="   33.023">  1  5  2 -1</clus>
</clustering>
</event>
<event>
10    2  0.3984345E-006  0.9560329E+02  0.7546771E-02  0.1290521E+00
         21   -1    0    0  501  502  0.00000000000E+00  0.00000000000E+00  0.12543654144E+03  0.12543654144E+03  0.00000000000E+00 0. -1.
          3   -1    0    0  503    0 -0.00000000000E+00 -0.00000000000E+00 -0.30921048546E+03  0.30921048546E+03  0.00000000000E+00 0. -1.
         23    2    1    2    0    0  0.28848270324E+02 -0.16469357976E+02 -0.15538579913E+03  0.18253343203E+03  0.89834541161E+02 0.  0.
         23    2    1    2    0    0  0.40588008040E+02  0.57629492080E+02 -0.12850635125E+02  0.11592924398E+03  0.91136743598E+02 0.  0.
        -11    1    4    4    0    0  0.37562952966E+01  0.28822651621E+02 -0.48900512692E+02  0.56886862652E+02  0.00000000000E+00 0. -1.
         11    1    4    4    0    0  0.36831712743E+02  0.28806840459E+02  0.36049877567E+02  0.59042381333E+02  0.00000000000E+00 0.  1.
        -13    1    3    3    0    0 -0.24037702822E+02  0.15547776581E+02 -0.24106033866E+02  0.37425197158E+02  0.00000000000E+00 0.  1.
         13    1    3    3    0    0  0.52885973146E+02 -0.32017134557E+02 -0.13127976526E+03  0.14510823487E+03  0.00000000000E+00 0. -1.
         21    1    1    2  503  502 -0.85121953221E+02 -0.25750335995E+02 -0.44802150894E+02  0.99579412775E+02  0.00000000000E+00 0.  1.
          3    1    1    2  501    0  0.15685674857E+02 -0.15409798110E+02  0.29264641123E+02  0.36604938103E+02  0.00000000000E+00 0. -1.
<scales pt_clust_5="13000.00000" pt_clust_6="13000.00000" pt_clust_7="13000.00000" pt_clust_8="13000.00000" pt_clust_9="85.99723" pt_clust_10="21.98869"></scales>
<clustering>
<clus scale="   21.989">  1 10  2 -1</clus>
<clus scale="   85.997">  1  9  2 -1</clus>
<clus scale="   89.835">  7  8 -1 -1</clus>
<clus scale="   91.137">  5  6 -1 -1</clus>
<clus scale="   94.363">  2  7  1 -1</clus>
<clus scale="   21.989">  1  5  2 -1</clus>
</clustering>
</event>
<event>
10    2  0.3984345E-006  0.1011742E+03  0.7546771E-02  0.1278984E+00
         21   -1    0    0  503  502  0.00000000000E+00  0.00000000000E+00  0.57564625711E+02  0.57564625711E+02  0.00000000000E+00 0.  1.
         -3   -1    0    0    0  501 -0.00000000000E+00 -0.00000000000E+00 -0.49582900967E+03  0.49582900967E+03  0.00000000000E+00 0.  1.
         23    2    1    2    0    0  0.21394419337E+02  0.44025277455E+02 -0.27110816446E+03  0.29017276501E+03  0.91129855056E+02 0.  0.
         23    2    1    2    0    0  0.20395932737E+02 -0.48458896302E+02 -0.35555931142E+02  0.11299612419E+03  0.93486047839E+02 0.  0.
        -11    1    4    4    0    0 -0.16092097674E+02 -0.57128682617E+02 -0.44809442256E+02  0.74367520467E+02  0.00000000000E+00 0.  1.
         11    1    4    4    0    0  0.36488030411E+02  0.86697863150E+01  0.92535111136E+01  0.38628603728E+02  0.00000000000E+00 0. -1.
        -11    1    3    3    0    0  0.34303293534E+02  0.67988017804E+02 -0.20444451238E+03  0.21816655370E+03  0.00000000000E+00 0.  1.
         11    1    3    3    0    0 -0.12908874196E+02 -0.23962740349E+02 -0.66663652079E+02  0.72006211306E+02  0.00000000000E+00 0. -1.
         21    1    1    2  503  501  0.40695816737E+01 -0.19790867713E+02 -0.44098657814E+02  0.48507025891E+02  0.00000000000E+00 0. -1.
         -3    1    1    2    0  502 -0.45859933748E+02  0.24224486560E+02 -0.87501630547E+02  0.10171772029E+03  0.00000000000E+00 0.  1.
<scales pt_clust_5="13000.00000" pt_clust_6="13000.00000" pt_clust_7="13000.00000" pt_clust_8="13000.00000" pt_clust_9="20.20495" pt_clust_10="49.27152"></scales>
<clustering>
<clus scale="   20.205">  2  9  1 -1</clus>
<clus scale="   49.272">  1 10  2 -1</clus>
<clus scale="   91.130">  7  8 -1 -1</clus>
<clus scale="   93.486">  5  6 -1 -1</clus>
<clus scale="   99.001">  2  7  1 -1</clus>
<clus scale="   49.272">  1  5  2 -1</clus>
</clustering>
</event>
<event>
10    2  0.3984345E-006  0.9558867E+02  0.7546771E-02  0.1292379E+00
         21   -1    0    0  501  502  0.00000000000E+00  0.00000000000E+00  0.39505456525E+02  0.39505456525E+02  0.00000000000E+00 0.  1.
          2   -1    0    0  503    0 -0.00000000000E+00 -0.00000000000E+00 -0.54522345893E+03  0.54522345893E+03  0.00000000000E+00 0. -1.
         23    2    1    2    0    0  0.29280965502E+02  0.10431316580E+02 -0.18692962133E+03  0.21022259881E+03  0.91020164875E+02 0.  0.
         23    2    1    2    0    0  0.40372870528E+02  0.19260397333E-01 -0.14504562898E+03  0.17825703329E+03  0.95432522694E+02 0.  0.
        -11    1    3    3    0    0  0.41715398832E+02 -0.12004848247E+02 -0.17775704438E+03  0.18298048450E+03  0.00000000000E+00 0.  1.
         11    1    3    3    0    0 -0.12434433330E+02  0.22436164827E+02 -0.91725769550E+01  0.27242114315E+02  0.00000000000E+00 0. -1.
        -13    1    4    4    0    0  0.62392297200E+02  0.21176889071E+02 -0.64869695183E+02  0.92462623442E+02  0.00000000000E+00 0.  1.
         13    1    4    4    0    0 -0.22019426673E+02 -0.21157628673E+02 -0.80175933793E+02  0.85794409850E+02  0.00000000000E+00 0. -1.
         21    1    1    2  503  502 -0.29219724515E+02 -0.15863509589E+02 -0.13819900733E+03  0.14214221352E+03  0.00000000000E+00 0. -1.
          2    1    1    2  501    0 -0.40434111515E+02  0.54129326122E+01 -0.35543744767E+02  0.54107069829E+02  0.00000000000E+00 0. -1.
<scales pt_clust_5="13000.00000" pt_clust_6="13000.00000" pt_clust_7="13000.00000" pt_clust_8="13000.00000" pt_clust_9="33.24821" pt_clust_10="43.82062"></scales>
<clustering>
<clus scale="   33.248">  2  9  1 -1</clus>
<clus scale="   43.821">  1 10  2 -1</clus>
<clus scale="   91.020">  5  6 -1 -1</clus>
<clus scale="   91.184">  2  5  1 -1</clus>
<clus scale="   95.433">  7  8 -1 -1</clus>
<clus scale="   43.821">  1  5  2 -1</clus>
</clustering>
</event>
<event>
10    2  0.3984345E-006  0.1386008E+03  0.7546771E-02  0.1216498E+00
          2   -1    0    0  503    0 -0.00000000000E+00  0.00000000000E+00  0.87294950463E+03  0.87294950463E+03  0.00000000000E+00 0.  1.
         21   -1    0    0  501  502  0.00000000000E+00 -0.00000000000E+00 -0.94760581200E+02  0.94760581200E+02  0.00000000000E+00 0.  1.
         23    2    1    2    0    0 -0.12074471941E+03 -0.78172417910E+02  0.46761639077E+03  0.49862148071E+03  0.96270857047E+02 0.  0.
         23    2    1    2    0    0  0.86021666075E+02 -0.36270029062E+02  0.11137168198E+03  0.17140572079E+03  0.90890194896E+02 0.  0.
        -11    1    4    4    0    0  0.29300833580E+02  0.25244107520E+02  0.99722664654E+01  0.39940579758E+02  0.00000000000E+00 0. -1.
         11    1    4    4    0    0  0.56720832495E+02 -0.61514136582E+02  0.10139941552E+03  0.13146514103E+03  0.00000000000E+00 0.  1.
        -13    1    3    3    0    0 -0.22977900138E+02  0.17664232497E+02  0.14970445594E+03  0.15248420618E+03  0.00000000000E+00 0. -1.
         13    1    3    3    0    0 -0.97766819273E+02 -0.95836650407E+02  0.31791193483E+03  0.34613727453E+03  0.00000000000E+00 0.  1.
         21    1    1    2  503  502  0.49804716576E+02 -0.11489380198E+01  0.17050207521E+03  0.17763104318E+03  0.00000000000E+00 0. -1.
          2    1    1    2  501    0 -0.15081663240E+02  0.11559138499E+03  0.28698775463E+02  0.12005184115E+03  0.00000000000E+00 0.  1.
<scales pt_clust_5="13000.00000" pt_clust_6="13000.00000" pt_clust_7="13000.00000" pt_clust_8="13000.00000" pt_clust_9="49.81797" pt_clust_10="115.88267"></scales>
<clustering>
<clus scale="   49.818">  1  9  2 -1</clus>
<clus scale="   90.890">  5  6 -1 -1</clus>
<clus scale="   96.271">  7  8 -1 -1</clus>
<clus scale="  115.883">  2 10  1 -1</clus>
<clus scale="  134.919">  2  5  1 -1</clus>
<clus scale="  115.883">  2  5  1 -1</clus>
</clustering>
</event>
<event>
10    2  0.3984345E-006  0.9644383E+02  0.7546771E-02  0.1287962E+00
         21   -1    0    0  501  502  0.00000000000E+00  0.00000000000E+00  0.81170758397E+02  0.81170758397E+02  0.00000000000E+00 0.  1.
          1   -1    0    0  503    0 -0.00000000000E+00 -0.00000000000E+00 -0.28077133529E+03  0.28077133529E+03  0.00000000000E+00 0. -1.
         23    2    1    2    0    0  0.50839892650E+01 -0.32293390280E+02 -0.16425579344E+03  0.19067438028E+03  0.91148470162E+02 0.  0.
         23    2    1    2    0    0  0.78691251519E+01  0.28976959721E+02 -0.22193439374E+02  0.98508712893E+02  0.91158271370E+02 0.  0.
        -13    1    4    4    0    0 -0.41374565481E+02  0.72847704716E+01 -0.69545146191E+01  0.42582717423E+02  0.00000000000E+00 0.  1.
         13    1    4    4    0    0  0.49243690633E+02  0.21692189249E+02 -0.15238924755E+02  0.55925995469E+02  0.00000000000E+00 0. -1.
        -13    1    3    3    0    0  0.23537840085E+02 -0.55304395028E+02 -0.14044735727E+03  0.15276801429E+03  0.00000000000E+00 0. -1.
         13    1    3    3    0    0 -0.18453850820E+02  0.23011004748E+02 -0.23808436170E+02  0.37906365989E+02  0.00000000000E+00 0.  1.
         21    1    1    2  503  502 -0.23976284240E+02  0.27625060600E+02 -0.24212866996E+02  0.43866491850E+02  0.00000000000E+00 0.  1.
          1    1    1    2  501    0  0.11023169823E+02 -0.24308630040E+02  0.11061522923E+02  0.28892508662E+02  0.00000000000E+00 0. -1.
<scales pt_clust_5="13000.00000" pt_clust_6="13000.00000" pt_clust_7="13000.00000" pt_clust_8="13000.00000" pt_clust_9="32.49337" pt_clust_10="26.69119"></scales>
<clustering>
<clus scale="   26.691">  1 10  2 -1</clus>
<clus scale="   32.493">  1  9  2 -1</clus>
<clus scale="   91.148">  7  8 -1 -1</clus>
<clus scale="   91.158">  5  6 -1 -1</clus>
<clus scale="   96.435">  2  7  1 -1</clus>
<clus scale="   26.691">  1  5  2 -1</clus>
</clustering>
</event>
<event>
10    2  0.3984345E-006  0.1003083E+03  0.7546771E-02  0.1284459E+00
          3   -1    0    0  503    0 -0.00000000000E+00  0.00000000000E+00  0.62411589531E+02  0.62411589531E+02  0.00000000000E+00 0. -1.
         21   -1    0    0  501  502  0.00000000000E+00 -0.00000000000E+00 -0.34100649093E+03  0.34100649093E+03  0.00000000000E+00 0.  1.
         23    2    1    2    0    0 -0.83388641311E+01 -0.81285366243E+01 -0.27682999014E+02  0.10375967948E+03  0.99318240461E+02 0.  0.
         23    2    1    2    0    0  0.66931103476E+01 -0.12318872321E+02 -0.10327226395E+03  0.13801306549E+03  0.90475927200E+02 0.  0.
        -13    1    4    4    0    0  0.44057802379E+02 -0.26239777812E+02 -0.64451648890E+02  0.82362800673E+02  0.00000000000E+00 0.  1.
         13    1    4    4    0    0 -0.37364692032E+02  0.13920905491E+02 -0.38820615057E+02  0.55650264812E+02  0.00000000000E+00 0. -1.
        -13    1    3    3    0    0  0.34076987710E+02 -0.35735231292E+02 -0.14453164624E+02  0.51450382065E+02  0.00000000000E+00 0.  1.
         13    1    3    3    0    0 -0.42415851841E+02  0.27606694668E+02 -0.13229834389E+02  0.52309297414E+02  0.00000000000E+00 0. -1.
         21    1    1    2  503  502 -0.21899438870E+02  0.10947997005E+02 -0.20315614464E+02  0.31814591814E+02  0.00000000000E+00 0.  1.
          3    1    1    2  501    0  0.23545192653E+02  0.94994119406E+01 -0.12732402398E+03  0.12983074369E+03  0.00000000000E+00 0. -1.
<scales pt_clust_5="13000.00000" pt_clust_6="13000.00000" pt_clust_7="13000.00000" pt_clust_8="13000.00000" pt_clust_9="24.48355" pt_clust_10="25.03394"></scales>
<clustering>
<clus scale="   24.484">  1  9  2 -1</clus>
<clus scale="   25.034">  2 10  1 -1</clus>
<clus scale="   90.476">  5  6 -1 -1</clus>
<clus scale="   91.562">  2  5  1 -1</clus>
<clus scale="   99.318">  7  8 -1 -1</clus>
<clus scale="   25.034">  2  5  1 -1</clus>
</clustering>
</event>
<event>
10    2  0.3984345E-006  0.1568807E+03  0.7546771E-02  0.1193357E+00
          1   -1    0    0  503    0 -0.00000000000E+00  0.00000000000E+00  0.11107541840E+04  0.11107541840E+04  0.00000000000E+00 0. -1.
         21   -1    0    0  501  502  0.00000000000E+00 -0.00000000000E+00 -0.60417733938E+02  0.60417733938E+02  0.00000000000E+00 0.  1.
         23    2    1    2    0    0 -0.62470069045E+02 -0.10261193332E+03  0.54937382350E+03  0.56921334650E+03  0.88093799465E+02 0.  0.
         23    2    1    2    0    0  0.10705564425E+03  0.11589654820E+03  0.17838388884E+03  0.25618265941E+03  0.94423632289E+02 0.  0.
        -11    1    3    3    0    0 -0.83159368692E+02 -0.74403256963E+02  0.45731927874E+03  0.47073585795E+03  0.00000000000E+00 0. -1.
         11    1    3    3    0    0  0.20689299648E+02 -0.28208676356E+02  0.92054544756E+02  0.98477488555E+02  0.00000000000E+00 0.  1.
        -13    1    4    4    0    0  0.30893976007E+02  0.27031617202E+02  0.11706845371E+03  0.12405711965E+03  0.00000000000E+00 0. -1.
         13    1    4    4    0    0  0.76161668238E+02  0.88864931003E+02  0.61315435122E+02  0.13212553975E+03  0.00000000000E+00 0.  1.
         21    1    1    2  503  502 -0.25048178682E+02  0.25941852546E+02  0.28719897177E+03  0.28945403842E+03  0.00000000000E+00 0. -1.
          1    1    1    2  501    0 -0.19537396518E+02 -0.39226467432E+02  0.35379765999E+02  0.56321873655E+02  0.00000000000E+00 0. -1.
<scales pt_clust_5="13000.00000" pt_clust_6="13000.00000" pt_clust_7="13000.00000" pt_clust_8="13000.00000" pt_clust_9="36.06093" pt_clust_10="43.19223"></scales>
<clustering>
<clus scale="   36.061">  1  9  2 -1</clus>
<clus scale="   43.192">  2 10  1 -1</clus>
<clus scale="   88.094">  5  6 -1 -1</clus>
<clus scale="   94.424">  7  8 -1 -1</clus>
<clus scale="  153.154">  1  5  2 -1</clus>
<clus scale="   43.192">  2  5  1 -1</clus>
</clustering>
</event>
<event>
10    2  0.3984345E-006  0.1185742E+03  0.7546771E-02  0.1245678E+00
          2   -1    0    0  503    0 -0.00000000000E+00  0.00000000000E+00  0.41431194432E+03  0.41431194432E+03  0.00000000000E+00 0. -1.
         21   -1    0    0  501  502  0.00000000000E+00 -0.00000000000E+00 -0.13649871395E+03  0.13649871395E+03  0.00000000000E+00 0.  1.
         23    2    1    2    0    0 -0.84835675788E+02  0.51423111430E+02  0.18408603712E+03  0.22840963118E+03  0.91879607517E+02 0.  0.
         23    2    1    2    0    0  0.36436717011E+02 -0.22115122063E+02  0.58800666176E+02  0.11660921313E+03  0.91233093086E+02 0.  0.
        -13    1    4    4    0    0  0.65569214526E+02 -0.12642841710E+02  0.53400614016E+02  0.85503151505E+02  0.00000000000E+00 0. -1.
         13    1    4    4    0    0 -0.29132497515E+02 -0.94722803532E+01  0.54000521604E+01  0.31106061626E+02  0.00000000000E+00 0.  1.
        -13    1    3    3    0    0 -0.90616795924E+02  0.32073507896E+02  0.88326447801E+02  0.13054376658E+03  0.00000000000E+00 0.  1.
         13    1    3    3    0    0  0.57811201361E+01  0.19349603534E+02  0.95759589315E+02  0.97865864594E+02  0.00000000000E+00 0. -1.
         21    1    1    2  503  502 -0.20453449670E+02 -0.24573723653E+02  0.10360590481E+03  0.10842691091E+03  0.00000000000E+00 0. -1.
          2    1    1    2  501    0  0.68852408447E+02 -0.47342657135E+01 -0.68679377735E+02  0.97364903055E+02  0.00000000000E+00 0. -1.
<scales pt_clust_5="13000.00000" pt_clust_6="13000.00000" pt_clust_7="13000.00000" pt_clust_8="13000.00000" pt_clust_9="31.97204" pt_clust_10="68.15476"></scales>
<clustering>
<clus scale="   31.972">  1  9  2 -1</clus>
<clus scale="   68.155">  2 10  1 -1</clus>
<clus scale="   91.233">  5  6 -1 -1</clus>
<clus scale="   91.880">  7  8 -1 -1</clus>
<clus scale="  118.074">  2  5  1 -1</clus>
<clus scale="   68.155">  2  5  1 -1</clus>
</clustering>
</event>
<event>
10    2  0.3984345E-006  0.1617416E+03  0.7546771E-02  0.1186985E+00
         -1   -1    0    0    0  501 -0.00000000000E+00  0.00000000000E+00  0.53986129000E+03  0.53986129000E+03  0.00000000000E+00 0.  1.
         21   -1    0    0  501  502  0.00000000000E+00 -0.00000000000E+00 -0.13684640446E+03  0.13684640446E+03  0.00000000000E+00 0.  1.
         23    2    1    2    0    0 -0.13941794733E+03 -0.89167435325E+02  0.32736704780E+03  0.37803712995E+03  0.91404004680E+02 0.  0.
         23    2    1    2    0    0  0.10188473419E+03 -0.78117958214E+01  0.91192033309E+02  0.16381170215E+03  0.89870816218E+02 0.  0.
        -11    1    3    3    0    0 -0.12589328936E+03 -0.48910531247E+02  0.29562898821E+03  0.32501978254E+03  0.00000000000E+00 0.  1.
         11    1    3    3    0    0 -0.13524657964E+02 -0.40256904078E+02  0.31738059591E+02  0.53017347403E+02  0.00000000000E+00 0. -1.
        -11    1    4    4    0    0  0.16144215775E+02  0.35510095747E+02  0.17575444680E+02  0.42784329592E+02  0.00000000000E+00 0.  1.
         11    1    4    4    0    0  0.85740518411E+02 -0.43321891569E+02  0.73616588629E+02  0.12102737256E+03  0.00000000000E+00 0. -1.
         21    1    1    2  503  502 -0.20585887851E+02  0.39774184039E+01  0.84345718077E+01  0.22599571618E+02  0.00000000000E+00 0. -1.
         -1    1    1    2    0  503  0.58119100993E+02  0.93001812743E+02 -0.23978767385E+02  0.11225929075E+03  0.00000000000E+00 0.  1.
<scales pt_clust_5="13000.00000" pt_clust_6="13000.00000" pt_clust_7="13000.00000" pt_clust_8="13000.00000" pt_clust_9="20.96661" pt_clust_10="106.20990"></scales>
<clustering>
<clus scale="   20.967">  2  9  1 -1</clus>
<clus scale="   89.871">  7  8 -1 -1</clus>
<clus scale="   91.404">  5  6 -1 -1</clus>
<clus scale="  106.210">  2 10  1 -1</clus>
<clus scale="  160.880">  2  7  1 -1</clus>
<clus scale="   20.967">  2  5  1 -1</clus>
</clustering>
</event>
<event>
10    2  0.3984345E-006  0.1167539E+03  0.7546771E-02  0.1249255E+00
         -1   -1    0    0    0  501 -0.00000000000E+00  0.00000000000E+00  0.17582846979E+03  0.17582846979E+03  0.00000000000E+00 0.  1.
         21   -1    0    0  503  502  0.00000000000E+00 -0.00000000000E+00 -0.31111699729E+03  0.31111699729E+03  0.00000000000E+00 0. -1.
         23    2    1    2    0    0  0.49491835698E+02 -0.60249792937E+02  0.45643366845E+02  0.12653969752E+03  0.88597397038E+02 0.  0.
         23    2    1    2    0    0 -0.53896792544E+02  0.43391816176E+02  0.18744442478E+02  0.11561961755E+03  0.90712887077E+02 0.  0.
        -13    1    3    3    0    0  0.69009152262E+02 -0.26769394709E+02  0.11533117084E+02  0.74912458101E+02  0.00000000000E+00 0.  1.
         13    1    3    3    0    0 -0.19517316564E+02 -0.33480398228E+02  0.34110249761E+02  0.51627239420E+02  0.00000000000E+00 0. -1.
        -13    1    4    4    0    0  0.14089053577E+02  0.42019287999E+02  0.17385076126E+02  0.47606332210E+02  0.00000000000E+00 0.  1.
         13    1    4    4    0    0 -0.67985846121E+02  0.13725281773E+01  0.13593663522E+01  0.68013285344E+02  0.00000000000E+00 0. -1.
         21    1    1    2  503  501 -0.15221479654E+02 -0.13665884050E+02  0.16067365250E+02  0.26011729196E+02  0.00000000000E+00 0.  1.
         -1    1    1    2    0  502  0.19626436499E+02  0.30523860811E+02 -0.21574370207E+03  0.21877442280E+03  0.00000000000E+00 0.  1.
<scales pt_clust_5="13000.00000" pt_clust_6="13000.00000" pt_clust_7="13000.00000" pt_clust_8="13000.00000" pt_clust_9="20.45605" pt_clust_10="36.09607"></scales>
<clustering>
<clus scale="   20.456">  1  9  2 -1</clus>
<clus scale="   36.096">  2 10  1 -1</clus>
<clus scale="   88.597">  5  6 -1 -1</clus>
<clus scale="   90.713">  7  8 -1 -1</clus>
<clus scale="  115.118">  1  5  2 -1</clus>
<clus scale="   36.096">  2  5  1 -1</clus>
</clustering>
</event>
<event>
10    2  0.3984345E-006  0.1791711E+03  0.7546771E-02  0.1169616E+00
         -1   -1    0    0    0  501 -0.00000000000E+00  0.00000000000E+00  0.12293635085E+03  0.12293635085E+03  0.00000000000E+00 0.  1.
         21   -1    0    0  503  502  0.00000000000E+00 -0.00000000000E+00 -0.65954457877E+03  0.65954457877E+03  0.00000000000E+00 0. -1.
         23    2    1    2    0    0 -0.18597311894E+03  0.23612746080E+01 -0.11030771742E+03  0.23374943337E+03  0.88766144967E+02 0.  0.
         23    2    1    2    0    0  0.14335069056E+03  0.26202786578E+02 -0.33848656905E+03  0.38096990954E+03  0.96586272522E+02 0.  0.
        -11    1    3    3    0    0 -0.51705626115E+02  0.38040792885E+02 -0.17028079709E+02  0.66411815167E+02  0.00000000000E+00 0.  1.
         11    1    3    3    0    0 -0.13426749283E+03 -0.35679518277E+02 -0.93279637715E+02  0.16733761820E+03  0.00000000000E+00 0. -1.
        -13    1    4    4    0    0  0.43450950608E+02  0.36806941080E+02 -0.51030295769E+02  0.76464548038E+02  0.00000000000E+00 0.  1.
         13    1    4    4    0    0  0.99899739951E+02 -0.10604154502E+02 -0.28745627328E+03  0.30450536150E+03  0.00000000000E+00 0. -1.
         21    1    1    2  503  501  0.50741497756E+02 -0.23375272832E+01  0.21422477923E+02  0.55127907530E+02  0.00000000000E+00 0.  1.
         -1    1    1    2    0  502 -0.81190693746E+01 -0.26226533903E+02 -0.10923641937E+03  0.11263367917E+03  0.00000000000E+00 0.  1.
<scales pt_clust_5="13000.00000" pt_clust_6="13000.00000" pt_clust_7="13000.00000" pt_clust_8="13000.00000" pt_clust_9="50.58983" pt_clust_10="27.45451"></scales>
<clustering>
<clus scale="   27.455">  2 10  1 -1</clus>
<clus scale="   50.590">  1  9  2 -1</clus>
<clus scale="   88.766">  5  6 -1 -1</clus>
<clus scale="   96.586">  7  8 -1 -1</clus>
<clus scale="  175.079">  1  5  2 -1</clus>
<clus scale="   27.455">  2  5  1 -1</clus>
</clustering>
</event>
<event>
10    2  0.3984345E-006  0.1450462E+03  0.7546771E-02  0.1210193E+00
          1   -1    0    0  503    0 -0.00000000000E+00  0.00000000000E+00  0.44779694527E+03  0.44779694527E+03  0.00000000000E+00 0. -1.
         21   -1    0    0  501  502  0.00000000000E+00 -0.00000000000E+00 -0.12863763921E+03  0.12863763921E+03  0.00000000000E+00 0. -1.
         23    2    1    2    0    0 -0.94560060531E+02  0.15020744657E+02  0.31553268598E+03  0.34643849710E+03  0.10626160422E+03 0.  0.
         23    2    1    2    0    0  0.55147466657E+02 -0.12038942972E+02 -0.30759973993E+02  0.11179355314E+03  0.91462797344E+02 0.  0.
        -11    1    4    4    0    0  0.17113965430E+02  0.34858885284E+02  0.85235929032E+01  0.39757783288E+02  0.00000000000E+00 0. -1.
         11    1    4    4    0    0  0.38033501228E+02 -0.46897828256E+02 -0.39283566897E+02  0.72035769857E+02  0.00000000000E+00 0.  1.
        -13    1    3    3    0    0 -0.40343963950E+02 -0.42128097876E+02  0.18500292296E+03  0.19398065254E+03  0.00000000000E+00 0.  1.
         13    1    3    3    0    0 -0.54216096581E+02  0.57148842533E+02  0.13052976302E+03  0.15245784455E+03  0.00000000000E+00 0. -1.
         21    1    1    2  503  502 -0.15380918967E+02  0.15379840997E+02  0.53162909206E+02  0.57440465637E+02  0.00000000000E+00 0. -1.
          1    1    1    2  501    0  0.54793512841E+02 -0.18361642682E+02 -0.18776315135E+02  0.60762068607E+02  0.00000000000E+00 0. -1.
<scales pt_clust_5="13000.00000" pt_clust_6="13000.00000" pt_clust_7="13000.00000" pt_clust_8="13000.00000" pt_clust_9="21.75114" pt_clust_10="56.74919"></scales>
<clustering>
<clus scale="   21.751">  1  9  2 -1</clus>
<clus scale="   56.749">  2 10  1 -1</clus>
<clus scale="   91.463">  5  6 -1 -1</clus>
<clus scale="  106.262">  7  8 -1 -1</clus>
<clus scale="  134.582">  2  5  1 -1</clus>
<clus scale="   56.749">  2  5  1 -1</clus>
</clustering>
</event>
<event>
10    2  0.4608106E-006  0.1102812E+03  0.7546771E-02  0.1263786E+00
          1   -1    0    0  503    0 -0.00000000000E+00  0.00000000000E+00  0.51641119284E+03  0.51641119284E+03  0.00000000000E+00 0. -1.
         21   -1    0    0  501  502  0.00000000000E+00 -0.00000000000E+00 -0.15616121245E+03  0.15616121245E+03  0.00000000000E+00 0.  1.
         23    2    1    2    0    0  0.55812915402E+02  0.17094841413E+02  0.42716731973E+03  0.44126218037E+03  0.93984454312E+02 0.  0.
         23    2    1    2    0    0 -0.16343890122E+02  0.25118562436E+02 -0.60983562554E+02  0.12290932661E+03  0.10241895695E+03 0.  0.
        -11    1    4    4    0    0 -0.55779174810E+02  0.20541761555E+02 -0.13388652146E+02  0.60930586051E+02  0.00000000000E+00 0. -1.
         11    1    4    4    0    0  0.39435284688E+02  0.45768008813E+01 -0.47594910408E+02  0.61978740561E+02  0.00000000000E+00 0.  1.
        -11    1    3    3    0    0  0.58965641130E+02  0.49360162244E+02  0.32952725017E+03  0.33838082253E+03  0.00000000000E+00 0.  1.
         11    1    3    3    0    0 -0.31527257283E+01 -0.32265320832E+02  0.97640069559E+02  0.10288135784E+03  0.00000000000E+00 0. -1.
         21    1    1    2  503  502 -0.15623474103E+02 -0.32368254276E+02  0.41196911003E+02  0.54671585894E+02  0.00000000000E+00 0. -1.
          1    1    1    2  501    0 -0.23845551177E+02 -0.98451495727E+01 -0.47130687790E+02  0.53729312415E+02  0.00000000000E+00 0. -1.
<scales pt_clust_5="13000.00000" pt_clust_6="13000.00000" pt_clust_7="13000.00000" pt_clust_8="13000.00000" pt_clust_9="37.18320" pt_clust_10="25.79801"></scales>
<clustering>
<clus scale="   25.798">  2 10  1 -1</clus>
<clus scale="   37.183">  1  9  2 -1</clus>
<clus scale="   93.984">  7  8 -1 -1</clus>
<clus scale="  102.419">  5  6 -1 -1</clus>
<clus scale="  102.496">  1  7  2 -1</clus>
<clus scale="   25.798">  2  5  1 -1</clus>
</clustering>
</event>
<event>
10    2  0.3984345E-006  0.1001402E+03  0.7546771E-02  0.1281532E+00
          1   -1    0    0  503    0 -0.00000000000E+00  0.00000000000E+00  0.12418536633E+03  0.12418536633E+03  0.00000000000E+00 0. -1.
         21   -1    0    0  501  502  0.00000000000E+00 -0.00000000000E+00 -0.54007050212E+03  0.54007050212E+03  0.00000000000E+00 0.  1.
         23    2    1    2    0    0 -0.49221478660E+02  0.79266412607E+02  0.50630784416E+01  0.13326503478E+03  0.95015875524E+02 0.  0.
         23    2    1    2    0    0  0.21841344887E+02  0.19920117850E+02 -0.16524210368E+03  0.19435483607E+03  0.97954040403E+02 0.  0.
        -11    1    3    3    0    0 -0.34184431273E+02  0.94626321970E+02 -0.17477357420E+02  0.10211843209E+03  0.00000000000E+00 0. -1.
         11    1    3    3    0    0 -0.15037047388E+02 -0.15359909363E+02  0.22540435862E+02  0.31146602682E+02  0.00000000000E+00 0.  1.
        -13    1    4    4    0    0 -0.21219556095E+02  0.45520551898E+02 -0.10183161999E+03  0.11354324742E+03  0.00000000000E+00 0. -1.
         13    1    4    4    0    0  0.43060900981E+02 -0.25600434048E+02 -0.63410483699E+02  0.80811588647E+02  0.00000000000E+00 0.  1.
         21    1    1    2  503  502  0.64057810778E+02 -0.58978128911E+02 -0.13164411800E+02  0.88063184984E+02  0.00000000000E+00 0.  1.
          1    1    1    2  501    0 -0.36677677005E+02 -0.40208401546E+02 -0.24254169875E+03  0.24857281263E+03  0.00000000000E+00 0. -1.
<scales pt_clust_5="13000.00000" pt_clust_6="13000.00000" pt_clust_7="13000.00000" pt_clust_8="13000.00000" pt_clust_9="87.61757" pt_clust_10="54.42396"></scales>
<clustering>
<clus scale="   54.424">  2 10  1 -1</clus>
<clus scale="   87.618">  1  9  2 -1</clus>
<clus scale="   95.016">  5  6 -1 -1</clus>
<clus scale="   97.268">  1  5  2 -1</clus>
<clus scale="   97.954">  7  8 -1 -1</clus>
<clus scale="   54.424">  2  5  1 -1</clus>
</clustering>
</event>
<event>
10    2  0.3984345E-006  0.1156318E+03  0.7546771E-02  0.1252445E+00
         21   -1    0    0  501  502  0.00000000000E+00  0.00000000000E+00  0.12687930419E+03  0.12687930419E+03  0.00000000000E+00 0.  1.
          1   -1    0    0  503    0 -0.00000000000E+00 -0.00000000000E+00 -0.43445256736E+03  0.43445256736E+03  0.00000000000E+00 0. -1.
         23    2    1    2    0    0  0.12004332230E+01  0.48984384108E+02 -0.10494340325E+03  0.14757959291E+03  0.91464241278E+02 0.  0.
         23    2    1    2    0    0  0.86734372873E+02 -0.10060746847E+03 -0.10125620977E+02  0.15845149928E+03  0.85788316650E+02 0.  0.
        -11    1    3    3    0    0  0.41646792418E+02  0.29896033080E+02 -0.27568336035E+02  0.58208601292E+02  0.00000000000E+00 0.  1.
         11    1    3    3    0    0 -0.40446359195E+02  0.19088351028E+02 -0.77375067213E+02  0.89370991621E+02  0.00000000000E+00 0. -1.
        -11    1    4    4    0    0  0.32395277257E+02  0.70138422859E+01  0.13158299003E+02  0.35662148068E+02  0.00000000000E+00 0.  1.
         11    1    4    4    0    0  0.54339095617E+02 -0.10762131075E+03 -0.23283919980E+02  0.12278935121E+03  0.00000000000E+00 0. -1.
         21    1    1    2  503  502  0.10440833455E+02  0.24973638104E+02 -0.13619534792E+03  0.13885916029E+03  0.00000000000E+00 0. -1.
          1    1    1    2  501    0 -0.98375639551E+02  0.26649446254E+02 -0.56308891024E+02  0.11644161907E+03  0.00000000000E+00 0. -1.
<scales pt_clust_5="13000.00000" pt_clust_6="13000.00000" pt_clust_7="13000.00000" pt_clust_8="13000.00000" pt_clust_9="27.06831" pt_clust_10="101.19091"></scales>
<clustering>
<clus scale="   27.068">  2  9  1 -1</clus>
<clus scale="   85.788">  7  8 -1 -1</clus>
<clus scale="   91.464">  5  6 -1 -1</clus>
<clus scale="  101.191">  1 10  2 -1</clus>
<clus scale="  111.196">  1  7  2 -1</clus>
<clus scale="  101.191">  1  5  2 -1</clus>
</clustering>
</event>
<event>
10    2  0.3984345E-006  0.2423153E+03  0.7546771E-02  0.1137428E+00
          1   -1    0    0  503    0 -0.00000000000E+00  0.00000000000E+00  0.79429833169E+03  0.79429833169E+03  0.00000000000E+00 0. -1.
         21   -1    0    0  501  502  0.00000000000E+00 -0.00000000000E+00 -0.43978247406E+03  0.43978247406E+03  0.00000000000E+00 0. -1.
         23    2    1    2    0    0  0.59137985106E+02  0.11008756327E+03  0.16973445677E+03  0.23004916727E+03  0.92175163020E+02 0.  0.
         23    2    1    2    0    0  0.13678882033E+03 -0.53633189865E+02  0.37329709312E+03  0.42021572381E+03  0.12507131718E+03 0.  0.
        -11    1    4    4    0    0 -0.41711507745E+01 -0.39019546758E+02  0.31894508010E+02  0.50568598648E+02  0.00000000000E+00 0.  1.
         11    1    4    4    0    0  0.14095997111E+03 -0.14613643107E+02  0.34140258511E+03  0.36964712516E+03  0.00000000000E+00 0. -1.
        -11    1    3    3    0    0  0.70810500970E+02  0.47104594861E+02  0.12771728208E+03  0.15344273865E+03  0.00000000000E+00 0. -1.
         11    1    3    3    0    0 -0.11672515864E+02  0.62982968410E+02  0.42017174697E+02  0.76606428619E+02  0.00000000000E+00 0.  1.
         21    1    1    2  503  502  0.15586231905E+02 -0.28345168748E+02  0.16649991809E+03  0.16961309484E+03  0.00000000000E+00 0.  1.
          1    1    1    2  501    0 -0.21151303734E+03 -0.28109204657E+02 -0.35501561036E+03  0.41420281983E+03  0.00000000000E+00 0. -1.
<scales pt_clust_5="13000.00000" pt_clust_6="13000.00000" pt_clust_7="13000.00000" pt_clust_8="13000.00000" pt_clust_9="32.34779" pt_clust_10="207.54251"></scales>
<clustering>
<clus scale="   32.348">  1  9  2 -1</clus>
<clus scale="   92.175">  7  8 -1 -1</clus>
<clus scale="  125.071">  5  6 -1 -1</clus>
<clus scale="  151.049">  1  7  2 -1</clus>
<clus scale="  207.543">  2 10  1 -1</clus>
<clus scale="  207.543">  2  5  1 -1</clus>
</clustering>
</event>
<event>
10    2  0.3984345E-006  0.1844852E+03  0.7546771E-02  0.1182224E+00
          2   -1    0    0  503    0 -0.00000000000E+00  0.00000000000E+00  0.85986284067E+03  0.85986284067E+03  0.00000000000E+00 0. -1.
         21   -1    0    0  501  502  0.00000000000E+00 -0.00000000000E+00 -0.30791243492E+03  0.30791243492E+03  0.00000000000E+00 0. -1.
         23    2    1    2    0    0 -0.15628313330E+02 -0.23758713134E+03  0.74190066031E+02  0.26547768522E+03  0.91007396938E+02 0.  0.
         23    2    1    2    0    0  0.56620989174E+02  0.57529438612E+02  0.11707644902E+03  0.16894803368E+03  0.91219353473E+02 0.  0.
        -11    1    4    4    0    0  0.65325544217E+02  0.31099388257E+02  0.12086476843E+03  0.14086479662E+03  0.00000000000E+00 0. -1.
         11    1    4    4    0    0 -0.87045550431E+01  0.26430050355E+02 -0.37883194110E+01  0.28083237068E+02  0.00000000000E+00 0.  1.
        -11    1    3    3    0    0 -0.44056751175E+02 -0.16370018516E+03  0.22698100654E+02  0.17103786633E+03  0.00000000000E+00 0.  1.
         11    1    3    3    0    0  0.28428437845E+02 -0.73886946184E+02  0.51491965377E+02  0.94439818896E+02  0.00000000000E+00 0. -1.
         21    1    1    2  503  502  0.67799589611E+01  0.15170622482E+03  0.53200127181E+03  0.55325048550E+03  0.00000000000E+00 0. -1.
          2    1    1    2  501    0 -0.47772634805E+02  0.28351467908E+02 -0.17131738112E+03  0.18009907119E+03  0.00000000000E+00 0. -1.
<scales pt_clust_5="13000.00000" pt_clust_6="13000.00000" pt_clust_7="13000.00000" pt_clust_8="13000.00000" pt_clust_9="160.47565" pt_clust_10="55.55205"></scales>
<clustering>
<clus scale="   55.552">  2 10  1 -1</clus>
<clus scale="   91.007">  7  8 -1 -1</clus>
<clus scale="   91.219">  5  6 -1 -1</clus>
<clus scale="  120.557">  2  5  1 -1</clus>
<clus scale="  160.476">  1  9  2 -1</clus>
<clus scale="   55.552">  2  5  1 -1</clus>
</clustering>
</event>
<event>
10    2  0.3984345E-006  0.1066352E+03  0.7546771E-02  0.1267849E+00
         21   -1    0    0  501  502  0.00000000000E+00  0.00000000000E+00  0.10234497194E+03  0.10234497194E+03  0.00000000000E+00 0.  1.
          2   -1    0    0  503    0 -0.00000000000E+00 -0.00000000000E+00 -0.21646245775E+03  0.21646245775E+03  0.00000000000E+00 0. -1.
         23    2    1    2    0    0  0.68916283815E-01 -0.34287300866E+02 -0.54985711563E+02  0.11102428985E+03  0.90151764880E+02 0.  0.
         23    2    1    2    0    0  0.42595009734E+02  0.70961340420E+02 -0.20478387881E+02  0.12567733457E+03  0.92334074781E+02 0.  0.
        -11    1    3    3    0    0  0.33576920195E+02 -0.12592505922E+02 -0.60896682307E+02  0.70670974885E+02  0.00000000000E+00 0.  1.
         11    1    3    3    0    0 -0.33508003911E+02 -0.21694794944E+02  0.59109707436E+01  0.40353314968E+02  0.00000000000E+00 0. -1.
        -13    1    4    4    0    0  0.68967853730E+02  0.44674232767E+02  0.19727826613E+01  0.82196373356E+02  0.00000000000E+00 0.  1.
         13    1    4    4    0    0 -0.26372843997E+02  0.26287107653E+02 -0.22451170542E+02  0.43480961212E+02  0.00000000000E+00 0. -1.
         21    1    1    2  503  502 -0.16277474000E+02 -0.11954664889E+02 -0.41175280179E+02  0.45861463892E+02  0.00000000000E+00 0. -1.
          2    1    1    2  501    0 -0.26386452018E+02 -0.24719374664E+02  0.25218938106E+01  0.36244341383E+02  0.00000000000E+00 0. -1.
<scales pt_clust_5="13000.00000" pt_clust_6="13000.00000" pt_clust_7="13000.00000" pt_clust_8="13000.00000" pt_clust_9="20.19580" pt_clust_10="38.11221"></scales>
<clustering>
<clus scale="   20.196">  2  9  1 -1</clus>
<clus scale="   38.112">  1 10  2 -1</clus>
<clus scale="   90.152">  5  6 -1 -1</clus>
<clus scale="   92.334">  7  8 -1 -1</clus>
<clus scale="  104.751">  2  5  1 -1</clus>
<clus scale="   38.112">  1  5  2 -1</clus>
</clustering>
</event>
<event>
10    2  0.3984345E-006  0.1315906E+03  0.7546771E-02  0.1230748E+00
          4   -1    0    0  503    0 -0.00000000000E+00  0.00000000000E+00  0.12081803869E+03  0.12081803869E+03  0.00000000000E+00 0. -1.
         21   -1    0    0  501  502  0.00000000000E+00 -0.00000000000E+00 -0.45479465560E+03  0.45479465560E+03  0.00000000000E+00 0.  1.
         23    2    1    2    0    0 -0.33109142662E+02 -0.28173876951E+02 -0.47592051757E+02  0.10950444726E+03  0.88522527691E+02 0.  0.
         23    2    1    2    0    0  0.12375421087E+03  0.22663384292E+00 -0.16147936508E+03  0.22985248506E+03  0.10696458981E+03 0.  0.
        -11    1    4    4    0    0 -0.40108332440E+00 -0.34613539343E+02 -0.35075401219E+02  0.49280236854E+02  0.00000000000E+00 0. -1.
         11    1    4    4    0    0  0.12415529419E+03  0.34840173186E+02 -0.12640396386E+03  0.18057224821E+03  0.00000000000E+00 0.  1.
        -13    1    3    3    0    0 -0.43600266214E+02 -0.54516431288E+02 -0.28959656572E+02  0.75575698495E+02  0.00000000000E+00 0. -1.
         13    1    3    3    0    0  0.10491123552E+02  0.26342554336E+02 -0.18632395185E+02  0.33928748764E+02  0.00000000000E+00 0.  1.
         21    1    1    2  503  502 -0.66137876671E+02  0.45237552125E+01  0.33491259923E+02  0.74272118476E+02  0.00000000000E+00 0. -1.
          4    1    1    2  501    0 -0.24507191536E+02  0.23423487896E+02 -0.15839646000E+03  0.16198364350E+03  0.00000000000E+00 0. -1.
<scales pt_clust_5="13000.00000" pt_clust_6="13000.00000" pt_clust_7="13000.00000" pt_clust_8="13000.00000" pt_clust_9="68.11185" pt_clust_10="33.90077"></scales>
<clustering>
<clus scale="   33.901">  2 10  1 -1</clus>
<clus scale="   68.112">  1  9  2 -1</clus>
<clus scale="   88.523">  7  8 -1 -1</clus>
<clus scale="  106.965">  5  6 -1 -1</clus>
<clus scale="  117.094">  1  7  2 -1</clus>
<clus scale="   33.901">  2  5  1 -1</clus>
</clustering>
</event>
<event>
10    2  0.3984345E-006  0.1703096E+03  0.7546771E-02  0.1183081E+00
          1   -1    0    0  503    0 -0.00000000000E+00  0.00000000000E+00  0.19491153700E+03  0.19491153700E+03  0.00000000000E+00 0. -1.
         21   -1    0    0  501  502  0.00000000000E+00 -0.00000000000E+00 -0.82026529617E+03  0.82026529617E+03  0.00000000000E+00 0.  1.
         23    2    1    2    0    0  0.31246675021E+02 -0.10202865226E+03  0.12621576483E+03  0.20721343888E+03  0.12498315639E+03 0.  0.
         23    2    1    2    0    0 -0.50950022065E+02  0.14944852411E+03 -0.38279634612E+03  0.42506087747E+03  0.95984065592E+02 0.  0.
        -13    1    4    4    0    0 -0.29818031065E+02  0.15855123541E+03 -0.34405455645E+03  0.38000150926E+03  0.00000000000E+00 0.  1.
         13    1    4    4    0    0 -0.21131991000E+02 -0.91027113025E+01 -0.38741789670E+02  0.45059368210E+02  0.00000000000E+00 0. -1.
        -13    1    3    3    0    0 -0.41844434246E+02 -0.18218799077E+02  0.67442067469E+02  0.81432878996E+02  0.00000000000E+00 0. -1.
         13    1    3    3    0    0  0.73091109267E+02 -0.83809853182E+02  0.58773697356E+02  0.12578055989E+03  0.00000000000E+00 0.  1.
         21    1    1    2  503  502  0.19620455328E+02  0.41055833787E+01 -0.14103732891E+02  0.24509862579E+02  0.00000000000E+00 0. -1.
          1    1    1    2  501    0  0.82891716067E-01 -0.51525455228E+02 -0.35466944498E+03  0.35839265423E+03  0.00000000000E+00 0. -1.
<scales pt_clust_5="13000.00000" pt_clust_6="13000.00000" pt_clust_7="13000.00000" pt_clust_8="13000.00000" pt_clust_9="20.04540" pt_clust_10="51.48590"></scales>
<clustering>
<clus scale="   20.045">  1  9  2 -1</clus>
<clus scale="   51.486">  2 10  1 -1</clus>
<clus scale="   95.984">  5  6 -1 -1</clus>
<clus scale="  124.983">  7  8 -1 -1</clus>
<clus scale="  150.325">  2  5  1 -1</clus>
<clus scale="   51.486">  2  5  1 -1</clus>
</clustering>
</event>
<event>
10    2  0.3984345E-006  0.1102337E+03  0.7546771E-02  0.1260816E+00
          1   -1    0    0  503    0 -0.00000000000E+00  0.00000000000E+00  0.28915338569E+03  0.28915338569E+03  0.00000000000E+00 0. -1.
         21   -1    0    0  501  502  0.00000000000E+00 -0.00000000000E+00 -0.25019287305E+03  0.25019287305E+03  0.00000000000E+00 0. -1.
         23    2    1    2    0    0 -0.84415115730E+02 -0.10852934871E+02  0.62852558987E+02  0.13986415669E+03  0.91475899545E+02 0.  0.
         23    2    1    2    0    0  0.20620008247E+02  0.41513652395E+02  0.80907435214E+01  0.10130275564E+03  0.89711872650E+02 0.  0.
        -13    1    3    3    0    0 -0.62048333902E+02  0.12084686393E+02  0.81230832165E+02  0.10292950733E+03  0.00000000000E+00 0. -1.
         13    1    3    3    0    0 -0.22366781828E+02 -0.22937621264E+02 -0.18378273178E+02  0.36934649363E+02  0.00000000000E+00 0.  1.
        -13    1    4    4    0    0 -0.18968150252E+02  0.12474966627E+02  0.37671477225E+02  0.43983584581E+02  0.00000000000E+00 0. -1.
         13    1    4    4    0    0  0.39588158499E+02  0.29038685767E+02 -0.29580733703E+02  0.57319171059E+02  0.00000000000E+00 0.  1.
         21    1    1    2  503  502  0.42585295998E+01 -0.36066442776E+02  0.12501588408E+03  0.13018407983E+03  0.00000000000E+00 0. -1.
          1    1    1    2  501    0  0.59536577883E+02  0.54057252523E+01 -0.15699867395E+03  0.16799526658E+03  0.00000000000E+00 0. -1.
<scales pt_clust_5="13000.00000" pt_clust_6="13000.00000" pt_clust_7="13000.00000" pt_clust_8="13000.00000" pt_clust_9="36.31698" pt_clust_10="59.82759"></scales>
<clustering>
<clus scale="   36.317">  1  9  2 -1</clus>
<clus scale="   59.828">  2 10  1 -1</clus>
<clus scale="   89.712">  7  8 -1 -1</clus>
<clus scale="   91.476">  5  6 -1 -1</clus>
<clus scale="  108.774">  2  7  1 -1</clus>
<clus scale="   59.828">  2  5  1 -1</clus>
</clustering>
</event>
<event>
10    2  0.3984345E-006  0.1017423E+03  0.7546771E-02  0.1277799E+00
          1   -1    0    0  503    0 -0.00000000000E+00  0.00000000000E+00  0.44241264786E+03  0.44241264786E+03  0.00000000000E+00 0. -1.
         21   -1    0    0  501  502  0.00000000000E+00 -0.00000000000E+00 -0.94418294450E+02  0.94418294450E+02  0.00000000000E+00 0.  1.
         23    2    1    2    0    0  0.49914579356E+02 -0.41288670655E+00  0.23631971453E+03  0.25767429108E+03  0.89763005185E+02 0.  0.
         23    2    1    2    0    0 -0.23026692774E+02 -0.44089143062E+02  0.12910249264E+03  0.16623615459E+03  0.92157063601E+02 0.  0.
        -11    1    4    4    0    0 -0.45025100183E+02 -0.24271653700E+02  0.23006743568E+02  0.56086389342E+02  0.00000000000E+00 0. -1.
         11    1    4    4    0    0  0.21998407409E+02 -0.19817489362E+02  0.10609574908E+03  0.11014976525E+03  0.00000000000E+00 0.  1.
        -11    1    3    3    0    0  0.37299116925E+02  0.40383353659E+02  0.17113649644E+03  0.17974910234E+03  0.00000000000E+00 0. -1.
         11    1    3    3    0    0  0.12615462431E+02 -0.40796240365E+02  0.65183218084E+02  0.77925188739E+02  0.00000000000E+00 0.  1.
         21    1    1    2  503  502 -0.63559435259E+01  0.44922304901E+02  0.34553575144E+02  0.57029475282E+02  0.00000000000E+00 0. -1.
          1    1    1    2  501    0 -0.20531943056E+02 -0.42027513228E+00 -0.51981428907E+02  0.55891021354E+02  0.00000000000E+00 0. -1.
<scales pt_clust_5="13000.00000" pt_clust_6="13000.00000" pt_clust_7="13000.00000" pt_clust_8="13000.00000" pt_clust_9="46.39918" pt_clust_10="20.53624"></scales>
<clustering>
<clus scale="   20.536">  2 10  1 -1</clus>
<clus scale="   46.399">  2  9  1 -1</clus>
<clus scale="   89.763">  7  8 -1 -1</clus>
<clus scale="   92.157">  5  6 -1 -1</clus>
<clus scale="   99.579">  1  7  2 -1</clus>
<clus scale="   20.536">  2  5  1 -1</clus>
</clustering>
</event>
<event>
10    2  0.3984345E-006  0.1423966E+03  0.7546771E-02  0.1210255E+00
          1   -1    0    0  503    0 -0.00000000000E+00  0.00000000000E+00  0.38996615732E+03  0.38996615732E+03  0.00000000000E+00 0. -1.
         21   -1    0    0  501  502  0.00000000000E+00 -0.00000000000E+00 -0.17435896224E+03  0.17435896224E+03  0.00000000000E+00 0.  1.
         23    2    1    2    0    0 -0.12505288773E+03 -0.25446305295E+02  0.18148215024E+03  0.24027534755E+03  0.92253631925E+02 0.  0.
         23    2    1    2    0    0  0.97828921907E+02 -0.32097654842E+01 -0.48126009323E+02  0.14250858652E+03  0.91715777828E+02 0.  0.
        -11    1    3    3    0    0 -0.11950274164E+03 -0.45968645650E+02  0.17715212919E+03  0.21857927285E+03  0.00000000000E+00 0. -1.
         11    1    3    3    0    0 -0.55501460846E+01  0.20522340355E+02  0.43300210507E+01  0.21696074703E+02  0.00000000000E+00 0.  1.
        -11    1    4    4    0    0  0.10513935021E+03  0.18818664025E+02 -0.52298568083E+02  0.11892672240E+03  0.00000000000E+00 0.  1.
         11    1    4    4    0    0 -0.73104283020E+01 -0.22028429509E+02  0.41725587604E+01  0.23581864116E+02  0.00000000000E+00 0. -1.
         21    1    1    2  503  502  0.20114409056E+02  0.60100714679E+01  0.12815535756E+03  0.12986341318E+03  0.00000000000E+00 0.  1.
          1    1    1    2  501    0  0.71095567666E+01  0.22645999312E+02 -0.45904303384E+02  0.51677772315E+02  0.00000000000E+00 0. -1.
<scales pt_clust_5="13000.00000" pt_clust_6="13000.00000" pt_clust_7="13000.00000" pt_clust_8="13000.00000" pt_clust_9="20.99310" pt_clust_10="23.86663"></scales>
<clustering>
<clus scale="   20.993">  1  9  2 -1</clus>
<clus scale="   23.867">  2 10  1 -1</clus>
<clus scale="   91.716">  7  8 -1 -1</clus>
<clus scale="   92.254">  5  6 -1 -1</clus>
<clus scale="  142.049">  2  7  1 -1</clus>
<clus scale="   23.867">  2  5  1 -1</clus>
</clustering>
</event>
<event>
10    2  0.3984345E-006  0.1780165E+03  0.7546771E-02  0.1194581E+00
         21   -1    0    0  503  502  0.00000000000E+00  0.00000000000E+00  0.54281659481E+02  0.54281659481E+02  0.00000000000E+00 0. -1.
          2   -1    0    0  502    0 -0.00000000000E+00 -0.00000000000E+00 -0.10099199989E+04  0.10099199989E+04  0.00000000000E+00 0. -1.
         23    2    1    2    0    0 -0.24145498751E+02 -0.45672490598E+02 -0.24286313315E+03  0.26343140102E+03  0.88003523171E+02 0.  0.
         23    2    1    2    0    0  0.17287009099E+03  0.25266461474E+02 -0.47266190528E+03  0.51077999745E+03  0.83453380156E+02 0.  0.
        -13    1    3    3    0    0 -0.68530870498E+01  0.23304365229E+02 -0.11088554476E+03  0.11351503107E+03  0.00000000000E+00 0.  1.
         13    1    3    3    0    0 -0.17292411701E+02 -0.68976855827E+02 -0.13197758839E+03  0.14991636995E+03  0.00000000000E+00 0. -1.
        -13    1    4    4    0    0  0.10951778644E+03  0.51368772130E+02 -0.34949019046E+03  0.36983278590E+03  0.00000000000E+00 0.  1.
         13    1    4    4    0    0  0.63352304547E+02 -0.26102310656E+02 -0.12317171482E+03  0.14094721156E+03  0.00000000000E+00 0. -1.
         21    1    1    2  503  501 -0.11352012060E+03  0.23525986621E+02 -0.22159719818E+03  0.25009119950E+03  0.00000000000E+00 0. -1.
          2    1    1    2  501    0 -0.35204471640E+02 -0.31199574966E+01 -0.18516102807E+02  0.39899060407E+02  0.00000000000E+00 0. -1.
<scales pt_clust_5="13000.00000" pt_clust_6="13000.00000" pt_clust_7="13000.00000" pt_clust_8="13000.00000" pt_clust_9="34.50097" pt_clust_10="169.20387"></scales>
<clustering>
<clus scale="   34.501">  9 10 -1 -1</clus>
<clus scale="   83.453">  7  8 -1 -1</clus>
<clus scale="   88.004">  5  6 -1 -1</clus>
<clus scale="  102.047">  2  5  1 -1</clus>
<clus scale="  169.204">  1  9  2 -1</clus>
<clus scale="  169.204">  1  5  2 -1</clus>
</clustering>
</event>
<event>
10    2  0.3984345E-006  0.2342670E+03  0.7546771E-02  0.1124091E+00
         21   -1    0    0  501  502  0.00000000000E+00  0.00000000000E+00  0.61356280567E+03  0.61356280567E+03  0.00000000000E+00 0.  1.
          2   -1    0    0  503    0 -0.00000000000E+00 -0.00000000000E+00 -0.12910999412E+03  0.12910999412E+03  0.00000000000E+00 0. -1.
         23    2    1    2    0    0  0.15592043428E+03 -0.13945021452E+03  0.82850920418E+02  0.24198149923E+03  0.89068663390E+02 0.  0.
         23    2    1    2    0    0 -0.17274204188E+03  0.12421911415E+03  0.30398547541E+03  0.38010649677E+03  0.82483806120E+02 0.  0.
        -13    1    3    3    0    0  0.38714130664E+02 -0.17830284673E+02  0.56902109853E+02  0.71095380091E+02  0.00000000000E+00 0.  1.
         13    1    3    3    0    0  0.11720630362E+03 -0.12161992985E+03  0.25948810565E+02  0.17088611914E+03  0.00000000000E+00 0. -1.
        -13    1    4    4    0    0 -0.94479670387E+02  0.47009192519E+02  0.86640456050E+02  0.13653878908E+03  0.00000000000E+00 0.  1.
         13    1    4    4    0    0 -0.78262371491E+02  0.77209921633E+02  0.21734501936E+03  0.24356770769E+03  0.00000000000E+00 0. -1.
         21    1    1    2  503  502  0.20703495922E+02 -0.79973513540E+01  0.21979422869E+01  0.22302989091E+02  0.00000000000E+00 0.  1.
          2    1    1    2  501    0 -0.38818883227E+01  0.23228451726E+02  0.95418473438E+02  0.98281814695E+02  0.00000000000E+00 0. -1.
<scales pt_clust_5="13000.00000" pt_clust_6="13000.00000" pt_clust_7="13000.00000" pt_clust_8="13000.00000" pt_clust_9="22.19442" pt_clust_10="23.41582"></scales>
<clustering>
<clus scale="   22.194">  2  9  1 -1</clus>
<clus scale="   23.416">  1 10  2 -1</clus>
<clus scale="   82.484">  7  8 -1 -1</clus>
<clus scale="   89.069">  5  6 -1 -1</clus>
<clus scale="  231.843">  1  7  2 -1</clus>
<clus scale="   23.416">  1  5  2 -1</clus>
</clustering>
</event>
<event>
10    2  0.3984345E-006  0.1070206E+03  0.7546771E-02  0.1266972E+00
         21   -1    0    0  503  502  0.00000000000E+00  0.00000000000E+00  0.82160560399E+02  0.82160560399E+02  0.00000000000E+00 0. -1.
         -3   -1    0    0    0  501 -0.00000000000E+00 -0.00000000000E+00 -0.59843033076E+03  0.59843033076E+03  0.00000000000E+00 0.  1.
         23    2    1    2    0    0 -0.23142294801E+02 -0.32414223368E+01 -0.22919079018E+03  0.24837962891E+03  0.92832909722E+02 0.  0.
         23    2    1    2    0    0  0.33434931145E+00  0.94733269877E+02 -0.18922745303E+03  0.23182573831E+03  0.94665937646E+02 0.  0.
        -13    1    3    3    0    0 -0.52217619872E+02  0.89460726238E+01 -0.80398726973E+02  0.96284304740E+02  0.00000000000E+00 0. -1.
         13    1    3    3    0    0  0.29075325071E+02 -0.12187494961E+02 -0.14879206320E+03  0.15209532417E+03  0.00000000000E+00 0.  1.
        -13    1    4    4    0    0  0.26124665540E+02 -0.85236341210E+01 -0.40333806684E+02  0.48805393655E+02  0.00000000000E+00 0.  1.
         13    1    4    4    0    0 -0.25790316228E+02  0.10325690400E+03 -0.14889364635E+03  0.18302034465E+03  0.00000000000E+00 0. -1.
         21    1    1    2  503  501 -0.28523687708E+02 -0.47836957416E+02 -0.11763768163E+03  0.13015605785E+03  0.00000000000E+00 0.  1.
         -3    1    1    2    0  502  0.51331633197E+02 -0.43654890124E+02  0.19786154480E+02  0.70229466092E+02  0.00000000000E+00 0.  1.
<scales pt_clust_5="13000.00000" pt_clust_6="13000.00000" pt_clust_7="13000.00000" pt_clust_8="13000.00000" pt_clust_9="55.69538" pt_clust_10="67.93965"></scales>
<clustering>
<clus scale="   55.695">  2  9  1 -1</clus>
<clus scale="   67.940">  1 10  2 -1</clus>
<clus scale="   92.833">  5  6 -1 -1</clus>
<clus scale="   94.666">  7  8 -1 -1</clus>
<clus scale="  105.403">  2  5  1 -1</clus>
<clus scale="   67.940">  1  5  2 -1</clus>
</clustering>
</event>
<event>
10    2  0.3984345E-006  0.2370175E+03  0.7546771E-02  0.1121908E+00
         21   -1    0    0  501  502  0.00000000000E+00  0.00000000000E+00  0.37236471077E+03  0.37236471077E+03  0.00000000000E+00 0. -1.
          2   -1    0    0  503    0 -0.00000000000E+00 -0.00000000000E+00 -0.29849532174E+03  0.29849532174E+03  0.00000000000E+00 0. -1.
         23    2    1    2    0    0  0.17025209916E+03  0.93186522769E+02 -0.27393136102E+02  0.21654476821E+03  0.92042096005E+02 0.  0.
         23    2    1    2    0    0 -0.19801783249E+03 -0.14653079637E+03 -0.20913418520E+02  0.26320614469E+03  0.90320359069E+02 0.  0.
        -11    1    4    4    0    0 -0.15643365644E+02 -0.28332625061E+02 -0.32109693843E+02  0.45590404366E+02  0.00000000000E+00 0.  1.
         11    1    4    4    0    0 -0.18237446684E+03 -0.11819817131E+03  0.11196275324E+02  0.21761574033E+03  0.00000000000E+00 0. -1.
        -11    1    3    3    0    0  0.29529127366E+02  0.52251265811E+02  0.18779517431E+02  0.62887474244E+02  0.00000000000E+00 0.  1.
         11    1    3    3    0    0  0.14072297180E+03  0.40935256958E+02 -0.46172653533E+02  0.15365729396E+03  0.00000000000E+00 0. -1.
         21    1    1    2  503  502  0.21360588434E+02  0.14308119586E+02 -0.26700758995E+02  0.37066528773E+02  0.00000000000E+00 0. -1.
          2    1    1    2  501    0  0.64051448887E+01  0.39036154018E+02  0.14887670265E+03  0.15404259084E+03  0.00000000000E+00 0. -1.
<scales pt_clust_5="13000.00000" pt_clust_6="13000.00000" pt_clust_7="13000.00000" pt_clust_8="13000.00000" pt_clust_9="25.70986" pt_clust_10="39.72886"></scales>
<clustering>
<clus scale="   25.710">  2  9  1 -1</clus>
<clus scale="   39.729">  1 10  2 -1</clus>
<clus scale="   90.320">  5  6 -1 -1</clus>
<clus scale="   92.042">  7  8 -1 -1</clus>
<clus scale="  236.354">  1  5  2 -1</clus>
<clus scale="   39.729">  1  5  2 -1</clus>
</clustering>
</event>
<event>
10    2  0.3984345E-006  0.1139695E+03  0.7546771E-02  0.1254052E+00
         -3   -1    0    0    0  501 -0.00000000000E+00  0.00000000000E+00  0.17776428586E+03  0.17776428586E+03  0.00000000000E+00 0.  1.
         21   -1    0    0  503  502  0.00000000000E+00 -0.00000000000E+00 -0.41025009632E+03  0.41025009632E+03  0.00000000000E+00 0.  1.
         23    2    1    2    0    0 -0.50796582775E+02 -0.53883545435E+02  0.67567911157E+02  0.13659563563E+03  0.92785859721E+02 0.  0.
         23    2    1    2    0    0 -0.14543649559E+02  0.59471539624E+02 -0.47732982379E+02  0.11958093955E+03  0.90954833455E+02 0.  0.
        -11    1    4    4    0    0 -0.35150030666E+02  0.59561521591E+02 -0.17390645580E+01  0.69181817377E+02  0.00000000000E+00 0.  1.
         11    1    4    4    0    0  0.20606381107E+02 -0.89981967666E-01 -0.45993917821E+02  0.50399122171E+02  0.00000000000E+00 0. -1.
        -13    1    3    3    0    0 -0.58866797925E+02 -0.14447945287E+02  0.74188675918E+02  0.95801892755E+02  0.00000000000E+00 0.  1.
         13    1    3    3    0    0  0.80702151502E+01 -0.39435600148E+02 -0.66207647605E+01  0.40793742873E+02  0.00000000000E+00 0. -1.
         21    1    1    2  503  501  0.26096376106E+02 -0.19478169674E+02  0.31306303571E+02  0.45171944645E+02  0.00000000000E+00 0. -1.
         -3    1    1    2    0  502  0.39243856228E+02  0.13890175486E+02 -0.28362704281E+03  0.28666586236E+03  0.00000000000E+00 0.  1.
<scales pt_clust_5="13000.00000" pt_clust_6="13000.00000" pt_clust_7="13000.00000" pt_clust_8="13000.00000" pt_clust_9="32.56409" pt_clust_10="41.82769"></scales>
<clustering>
<clus scale="   32.564">  1  9  2 -1</clus>
<clus scale="   41.828">  2 10  1 -1</clus>
<clus scale="   90.955">  5  6 -1 -1</clus>
<clus scale="   92.786">  7  8 -1 -1</clus>
<clus scale="  112.484">  2  5  1 -1</clus>
<clus scale="   41.828">  2  5  1 -1</clus>
</clustering>
</event>
<event>
10    2  0.3984345E-006  0.1106501E+03  0.7546771E-02  0.1261105E+00
          3   -1    0    0  503    0 -0.00000000000E+00  0.00000000000E+00  0.20669985426E+03  0.20669985426E+03  0.00000000000E+00 0. -1.
         21   -1    0    0  501  502  0.00000000000E+00 -0.00000000000E+00 -0.57184363228E+03  0.57184363228E+03  0.00000000000E+00 0. -1.
         23    2    1    2    0    0 -0.47395280683E+02  0.69543076135E+02  0.61312158259E+01  0.12415419831E+03  0.91072065324E+02 0.  0.
         23    2    1    2    0    0 -0.79092735464E+02 -0.15306036715E+02 -0.24220205718E+03  0.26951692340E+03  0.86530918940E+02 0.  0.
        -11    1    4    4    0    0 -0.82629230980E+01  0.25058082630E+02 -0.11825363767E+03  0.12116148821E+03  0.00000000000E+00 0.  1.
         11    1    4    4    0    0 -0.70829812366E+02 -0.40364119346E+02 -0.12394841950E+03  0.14835543518E+03  0.00000000000E+00 0. -1.
        -11    1    3    3    0    0 -0.45951866733E+02  0.16728249203E+02 -0.32487958565E+02  0.58710099892E+02  0.00000000000E+00 0.  1.
         11    1    3    3    0    0 -0.14434139503E+01  0.52814826932E+02  0.38619174391E+02  0.65444098423E+02  0.00000000000E+00 0. -1.
         21    1    1    2  503  502  0.77629709353E+02  0.19935428720E+01  0.10989498488E+03  0.13456319589E+03  0.00000000000E+00 0. -1.
          3    1    1    2  501    0  0.48858306795E+02 -0.56230582291E+02 -0.23896792154E+03  0.25030916894E+03  0.00000000000E+00 0. -1.
<scales pt_clust_5="13000.00000" pt_clust_6="13000.00000" pt_clust_7="13000.00000" pt_clust_8="13000.00000" pt_clust_9="79.47154" pt_clust_10="74.49169"></scales>
<clustering>
<clus scale="   74.492">  2 10  1 -1</clus>
<clus scale="   79.472">  1  9  2 -1</clus>
<clus scale="   86.531">  5  6 -1 -1</clus>
<clus scale="   91.072">  7  8 -1 -1</clus>
<clus scale="  106.944">  2  5  1 -1</clus>
<clus scale="   74.492">  2  5  1 -1</clus>
</clustering>
</event>
<event>
10    2  0.3984345E-006  0.1356508E+03  0.7546771E-02  0.1219857E+00
          3   -1    0    0  503    0 -0.00000000000E+00  0.00000000000E+00  0.27016709465E+03  0.27016709465E+03  0.00000000000E+00 0. -1.
         21   -1    0    0  501  502  0.00000000000E+00 -0.00000000000E+00 -0.26463474298E+03  0.26463474298E+03  0.00000000000E+00 0.  1.
         23    2    1    2    0    0  0.75487352427E+02  0.48942543477E+02  0.15023055271E+03  0.19862156744E+03  0.93742173785E+02 0.  0.
         23    2    1    2    0    0 -0.13597678843E+03 -0.34760608678E+02 -0.46468668313E+02  0.17384599206E+03  0.91460947479E+02 0.  0.
        -11    1    3    3    0    0  0.42506723006E+02 -0.24730008063E+02  0.59059454987E+02  0.76853197870E+02  0.00000000000E+00 0.  1.
         11    1    3    3    0    0  0.32980629422E+02  0.73672551540E+02  0.91171097721E+02  0.12176836957E+03  0.00000000000E+00 0. -1.
        -13    1    4    4    0    0 -0.13203355969E+03 -0.10265114911E+02 -0.60218099068E+02  0.14548007742E+03  0.00000000000E+00 0.  1.
         13    1    4    4    0    0 -0.39432287393E+01 -0.24495493767E+02  0.13749430755E+02  0.28365914648E+02  0.00000000000E+00 0. -1.
         21    1    1    2  503  502  0.40293606849E+02 -0.37070217009E+02  0.47197948093E+01  0.54955001638E+02  0.00000000000E+00 0. -1.
          3    1    1    2  501    0  0.20195829158E+02  0.22888282210E+02 -0.10294932754E+03  0.10737927649E+03  0.00000000000E+00 0. -1.
<scales pt_clust_5="13000.00000" pt_clust_6="13000.00000" pt_clust_7="13000.00000" pt_clust_8="13000.00000" pt_clust_9="54.86307" pt_clust_10="30.52450"></scales>
<clustering>
<clus scale="   30.524">  2 10  1 -1</clus>
<clus scale="   54.863">  2  9  1 -1</clus>
<clus scale="   91.461">  7  8 -1 -1</clus>
<clus scale="   93.742">  5  6 -1 -1</clus>
<clus scale="  134.084">  2  7  1 -1</clus>
<clus scale="   30.524">  2  5  1 -1</clus>
</clustering>
</event>
<event>
10    2  0.3984345E-006  0.9552964E+02  0.7546771E-02  0.1291710E+00
         21   -1    0    0  503  502  0.00000000000E+00  0.00000000000E+00  0.74763621092E+02  0.74763621092E+02  0.00000000000E+00 0.  1.
         -2   -1    0    0    0  501 -0.00000000000E+00 -0.00000000000E+00 -0.27810047248E+03  0.27810047248E+03  0.00000000000E+00 0.  1.
         23    2    1    2    0    0 -0.31365670675E+02  0.67367172311E+01 -0.11477463880E+03  0.14930386281E+03  0.89940186134E+02 0.  0.
         23    2    1    2    0    0  0.32238413246E+02 -0.16294371776E+01 -0.90212445498E+02  0.12922898670E+03  0.86717214703E+02 0.  0.
        -11    1    4    4    0    0  0.20077177003E+02 -0.44038460777E+02 -0.48267051088E+02  0.68353399950E+02  0.00000000000E+00 0. -1.
         11    1    4    4    0    0  0.12161236243E+02  0.42409023599E+02 -0.41945394410E+02  0.60875586747E+02  0.00000000000E+00 0.  1.
        -11    1    3    3    0    0 -0.56343285980E+02 -0.14953459933E+02 -0.92797650894E+02  0.10958821036E+03  0.00000000000E+00 0. -1.
         11    1    3    3    0    0  0.24977615306E+02  0.21690177164E+02 -0.21976987906E+02  0.39715652446E+02  0.00000000000E+00 0.  1.
         21    1    1    2  503  501  0.16130112318E+01  0.22799235486E+02 -0.26240086845E+02  0.34798693964E+02  0.00000000000E+00 0.  1.
         -2    1    1    2    0  502 -0.24857538028E+01 -0.27906515540E+02  0.27890319755E+02  0.39532550102E+02  0.00000000000E+00 0.  1.
<scales pt_clust_5="13000.00000" pt_clust_6="13000.00000" pt_clust_7="13000.00000" pt_clust_8="13000.00000" pt_clust_9="22.85622" pt_clust_10="27.47970"></scales>
<clustering>
<clus scale="   22.856">  2  9  1 -1</clus>
<clus scale="   27.480">  1 10  2 -1</clus>
<clus scale="   86.717">  5  6 -1 -1</clus>
<clus scale="   89.940">  7  8 -1 -1</clus>
<clus scale="   92.502">  1  5  2 -1</clus>
<clus scale="   27.480">  1  5  2 -1</clus>
</clustering>
</event>
<event>
10    2  0.3984345E-006  0.1663737E+03  0.7546771E-02  0.1182293E+00
          1   -1    0    0  503    0 -0.00000000000E+00  0.00000000000E+00  0.15138044940E+03  0.15138044940E+03  0.00000000000E+00 0. -1.
         21   -1    0    0  501  502  0.00000000000E+00 -0.00000000000E+00 -0.36237688572E+03  0.36237688572E+03  0.00000000000E+00 0.  1.
         23    2    1    2    0    0 -0.10153765688E+02 -0.16205907924E+03 -0.36314274551E+02  0.18943435062E+03  0.90556073991E+02 0.  0.
         23    2    1    2    0    0  0.66980672277E+02  0.10689476821E+03 -0.81341854656E+02  0.17741582760E+03  0.94588459320E+02 0.  0.
        -11    1    3    3    0    0  0.17023107122E+02 -0.91272636389E+02  0.20011415177E+02  0.94978613734E+02  0.00000000000E+00 0. -1.
         11    1    3    3    0    0 -0.27176872809E+02 -0.70786442855E+02 -0.56325689728E+02  0.94455736888E+02  0.00000000000E+00 0.  1.
        -13    1    4    4    0    0  0.79132214595E+02  0.51107766369E+02 -0.74121069680E+02  0.11986594237E+03  0.00000000000E+00 0.  1.
         13    1    4    4    0    0 -0.12151542317E+02  0.55787001836E+02 -0.72207849765E+01  0.57549885232E+02  0.00000000000E+00 0. -1.
         21    1    1    2  503  502  0.39641736023E+01  0.34717391578E+02 -0.16123356849E+01  0.34980159758E+02  0.00000000000E+00 0.  1.
          1    1    1    2  501    0 -0.60791080192E+02  0.20446919461E+02 -0.91727971425E+02  0.11192699714E+03  0.00000000000E+00 0. -1.
<scales pt_clust_5="13000.00000" pt_clust_6="13000.00000" pt_clust_7="13000.00000" pt_clust_8="13000.00000" pt_clust_9="34.94298" pt_clust_10="64.73646"></scales>
<clustering>
<clus scale="   34.943">  1  9  2 -1</clus>
<clus scale="   64.736">  2 10  1 -1</clus>
<clus scale="   90.556">  5  6 -1 -1</clus>
<clus scale="   94.588">  7  8 -1 -1</clus>
<clus scale="  164.115">  1  5  2 -1</clus>
<clus scale="   64.736">  2  5  1 -1</clus>
</clustering>
</event>
<event>
10    2  0.3984345E-006  0.9890794E+02  0.7546771E-02  0.1283252E+00
         21   -1    0    0  503  502  0.00000000000E+00  0.00000000000E+00  0.33451706377E+03  0.33451706377E+03  0.00000000000E+00 0.  1.
         -2   -1    0    0    0  501 -0.00000000000E+00 -0.00000000000E+00 -0.10374390515E+03  0.10374390515E+03  0.00000000000E+00 0.  1.
         23    2    1    2    0    0 -0.24696946449E+02 -0.26212312611E+01 -0.24912758955E+02  0.98927538801E+02  0.92461896785E+02 0.  0.
         23    2    1    2    0    0  0.23737460918E+02  0.45126855789E+01  0.15602819463E+03  0.18361164473E+03  0.93726235283E+02 0.  0.
        -11    1    4    4    0    0 -0.36235933005E+02 -0.13918702669E+01  0.52149333496E+02  0.63517974839E+02  0.00000000000E+00 0.  1.
         11    1    4    4    0    0  0.59973393923E+02  0.59045558458E+01  0.10387886113E+03  0.12009366989E+03  0.00000000000E+00 0. -1.
        -13    1    3    3    0    0 -0.31942685142E+02  0.35128073248E+02  0.82130489942E+01  0.48184757320E+02  0.00000000000E+00 0.  1.
         13    1    3    3    0    0  0.72457386933E+01 -0.37749304509E+02 -0.33125807950E+02  0.50742781481E+02  0.00000000000E+00 0. -1.
         21    1    1    2  503  501 -0.72277083265E+01  0.27746930464E+02 -0.18171872360E+02  0.33946264343E+02  0.00000000000E+00 0.  1.
         -2    1    1    2    0  502  0.81871938575E+01 -0.29638384781E+02  0.11782959530E+03  0.12177552104E+03  0.00000000000E+00 0.  1.
<scales pt_clust_5="13000.00000" pt_clust_6="13000.00000" pt_clust_7="13000.00000" pt_clust_8="13000.00000" pt_clust_9="28.67284" pt_clust_10="30.02027"></scales>
<clustering>
<clus scale="   28.673">  2  9  1 -1</clus>
<clus scale="   30.020">  1 10  2 -1</clus>
<clus scale="   92.462">  7  8 -1 -1</clus>
<clus scale="   93.726">  5  6 -1 -1</clus>
<clus scale="   97.711">  2  7  1 -1</clus>
<clus scale="   30.020">  1  5  2 -1</clus>
</clustering>
</event>
<event>
10    2  0.3984345E-006  0.9420374E+02  0.7546771E-02  0.1293531E+00
         21   -1    0    0  501  502  0.00000000000E+00  0.00000000000E+00  0.51009772771E+03  0.51009772771E+03  0.00000000000E+00 0.  1.
          1   -1    0    0  503    0 -0.00000000000E+00 -0.00000000000E+00 -0.46124713677E+02  0.46124713677E+02  0.00000000000E+00 0. -1.
         23    2    1    2    0    0 -0.69052861395E+00 -0.81706294576E+01  0.65656445918E+02  0.11285750078E+03  0.91426531027E+02 0.  0.
         23    2    1    2    0    0  0.37787711736E+02  0.12322943653E+02  0.35948669417E+03  0.37281176109E+03  0.90433178788E+02 0.  0.
        -13    1    3    3    0    0 -0.10422047112E+02 -0.48837804697E+02  0.37405454307E+02  0.62393254808E+02  0.00000000000E+00 0.  1.
         13    1    3    3    0    0  0.97315184978E+01  0.40667175239E+02  0.28250991612E+02  0.50464245969E+02  0.00000000000E+00 0. -1.
        -13    1    4    4    0    0  0.58506144995E+02 -0.63620672176E+01  0.31386993797E+03  0.31933960428E+03  0.00000000000E+00 0.  1.
         13    1    4    4    0    0 -0.20718433259E+02  0.18685010870E+02  0.45616756203E+02  0.53472156815E+02  0.00000000000E+00 0. -1.
         21    1    1    2  503  502 -0.13230424347E+02 -0.15158232889E+02 -0.37970225199E+01  0.20475193106E+02  0.00000000000E+00 0. -1.
          1    1    1    2  501    0 -0.23866758775E+02  0.11005918694E+02  0.42626896470E+02  0.50077986415E+02  0.00000000000E+00 0. -1.
<scales pt_clust_5="13000.00000" pt_clust_6="13000.00000" pt_clust_7="13000.00000" pt_clust_8="13000.00000" pt_clust_9="20.12004" pt_clust_10="26.98643"></scales>
<clustering>
<clus scale="   20.120">  2  9  1 -1</clus>
<clus scale="   26.986">  1 10  2 -1</clus>
<clus scale="   90.433">  7  8 -1 -1</clus>
<clus scale="   91.427">  5  6 -1 -1</clus>
<clus scale="   93.240">  1  7  2 -1</clus>
<clus scale="   26.986">  1  5  2 -1</clus>
</clustering>
</event>
<event>
10    2  0.8266089E-006  0.9377605E+02  0.7546771E-02  0.1302625E+00
          1   -1    0    0  503    0 -0.00000000000E+00  0.00000000000E+00  0.43966525931E+03  0.43966525931E+03  0.00000000000E+00 0. -1.
         21   -1    0    0  501  502  0.00000000000E+00 -0.00000000000E+00 -0.12407913768E+03  0.12407913768E+03  0.00000000000E+00 0.  1.
         23    2    1    2    0    0  0.83256880577E+01 -0.15752314459E+02  0.33891295347E+03  0.35196982013E+03  0.93291541746E+02 0.  0.
         23    2    1    2    0    0 -0.20122637367E+02  0.15952855355E+01 -0.87972551980E+02  0.12016140546E+03  0.79322934823E+02 0.  0.
        -11    1    4    4    0    0  0.14778251109E+02  0.26999126054E+02 -0.12509436075E+02  0.33224019992E+02  0.00000000000E+00 0. -1.
         11    1    4    4    0    0 -0.34900888476E+02 -0.25403840518E+02 -0.75463115904E+02  0.86937385465E+02  0.00000000000E+00 0.  1.
        -13    1    3    3    0    0  0.36115072733E+02 -0.41329208925E+02  0.23731023487E+03  0.24357452569E+03  0.00000000000E+00 0. -1.
         13    1    3    3    0    0 -0.27789384675E+02  0.25576894466E+02  0.10160271860E+03  0.10839529444E+03  0.00000000000E+00 0.  1.
         21    1    1    2  503  502 -0.24446135776E+02  0.14956056850E+02  0.28011449666E+02  0.40074162540E+02  0.00000000000E+00 0. -1.
          1    1    1    2  501    0  0.36243085085E+02 -0.79902792667E+00  0.36634270471E+02  0.51539008868E+02  0.00000000000E+00 0. -1.
<scales pt_clust_5="13000.00000" pt_clust_6="13000.00000" pt_clust_7="13000.00000" pt_clust_8="13000.00000" pt_clust_9="28.65828" pt_clust_10="33.59625"></scales>
<clustering>
<clus scale="   28.658">  1  9  2 -1</clus>
<clus scale="   33.596">  2 10  1 -1</clus>
<clus scale="   79.323">  5  6 -1 -1</clus>
<clus scale="   79.892">  2  5  1 -1</clus>
<clus scale="   93.292">  7  8 -1 -1</clus>
<clus scale="   33.596">  2  5  1 -1</clus>
</clustering>
</event>
<event>
10    2  0.3984345E-006  0.2119752E+03  0.7546771E-02  0.1141634E+00
          1   -1    0    0  503    0 -0.00000000000E+00  0.00000000000E+00  0.12931573831E+03  0.12931573831E+03  0.00000000000E+00 0. -1.
         21   -1    0    0  501  502  0.00000000000E+00 -0.00000000000E+00 -0.54771551290E+03  0.54771551290E+03  0.00000000000E+00 0.  1.
         23    2    1    2    0    0  0.18024567325E+03  0.45650309813E+02 -0.90475650732E+02  0.23460100835E+03  0.11081216645E+03 0.  0.
         23    2    1    2    0    0 -0.17236755131E+03 -0.28130910522E+02 -0.15023158285E+03  0.24894284383E+03  0.94345588849E+02 0.  0.
        -11    1    3    3    0    0 -0.12509672934E+01  0.22969816907E+02  0.10924461264E+02  0.25466080614E+02  0.00000000000E+00 0.  1.
         11    1    3    3    0    0  0.18149664055E+03  0.22680492906E+02 -0.10140011200E+03  0.20913492774E+03  0.00000000000E+00 0. -1.
        -11    1    4    4    0    0 -0.15774919111E+02 -0.19360587086E+02 -0.66754326163E+02  0.71272859258E+02  0.00000000000E+00 0. -1.
         11    1    4    4    0    0 -0.15659263220E+03 -0.87703234363E+01 -0.83477256686E+02  0.17766998457E+03  0.00000000000E+00 0.  1.
         21    1    1    2  503  502 -0.32953057204E+02  0.98002842281E+01 -0.51202421362E+02  0.61673637021E+02  0.00000000000E+00 0.  1.
          1    1    1    2  501    0  0.25074935265E+02 -0.27319683519E+02 -0.12649011965E+03  0.13181376201E+03  0.00000000000E+00 0. -1.
<scales pt_clust_5="13000.00000" pt_clust_6="13000.00000" pt_clust_7="13000.00000" pt_clust_8="13000.00000" pt_clust_9="34.37949" pt_clust_10="29.69143"></scales>
<clustering>
<clus scale="   34.379">  2  9  1 -1</clus>
<clus scale="   29.691">  2 10  1 -1</clus>
<clus scale="   94.346">  7  8 -1 -1</clus>
<clus scale="  110.812">  5  6 -1 -1</clus>
<clus scale="  203.851">  2  7  1 -1</clus>
<clus scale="   34.379">  2  5  1 -1</clus>
</clustering>
</event>
<event>
10    2  0.3984345E-006  0.1699005E+03  0.7546771E-02  0.1178487E+00
         21   -1    0    0  503  502  0.00000000000E+00  0.00000000000E+00  0.13998147210E+03  0.13998147210E+03  0.00000000000E+00 0.  1.
         -2   -1    0    0    0  501 -0.00000000000E+00 -0.00000000000E+00 -0.11248135977E+04  0.11248135977E+04  0.00000000000E+00 0.  1.
         23    2    1    2    0    0 -0.45721244571E+02 -0.13277880664E+03 -0.58585110866E+03  0.60972265320E+03  0.93912451790E+02 0.  0.
         23    2    1    2    0    0  0.11935223737E+03  0.10139520810E+03 -0.40506937080E+03  0.44355136597E+03  0.90170251758E+02 0.  0.
        -11    1    3    3    0    0 -0.70552547390E+02 -0.12376757692E+03 -0.48825440243E+03  0.50861423155E+03  0.00000000000E+00 0.  1.
         11    1    3    3    0    0  0.24831302819E+02 -0.90112297152E+01 -0.97596706229E+02  0.10110842164E+03  0.00000000000E+00 0. -1.
        -13    1    4    4    0    0  0.50736944758E+02  0.99826647992E+02 -0.24400558134E+03  0.26847406009E+03  0.00000000000E+00 0. -1.
         13    1    4    4    0    0  0.68615292610E+02  0.15685601069E+01 -0.16106378946E+03  0.17507730588E+03  0.00000000000E+00 0.  1.
         21    1    1    2  503  501 -0.53128236881E+02 -0.21061661321E+01 -0.91780031014E+02  0.10606893788E+03  0.00000000000E+00 0. -1.
         -2    1    1    2    0  502 -0.20502755916E+02  0.33489764672E+02  0.97868384852E+02  0.10545211279E+03  0.00000000000E+00 0.  1.
<scales pt_clust_5="13000.00000" pt_clust_6="13000.00000" pt_clust_7="13000.00000" pt_clust_8="13000.00000" pt_clust_9="57.10079" pt_clust_10="39.26738"></scales>
<clustering>
<clus scale="   39.267">  1 10  2 -1</clus>
<clus scale="   57.101">  1  9  2 -1</clus>
<clus scale="   90.170">  7  8 -1 -1</clus>
<clus scale="   93.912">  5  6 -1 -1</clus>
<clus scale="  167.861">  1  7  2 -1</clus>
<clus scale="   39.267">  1  5  2 -1</clus>
</clustering>
</event>
<event>
10    2  0.3984345E-006  0.9365256E+02  0.7546771E-02  0.1295071E+00
          2   -1    0    0  503    0 -0.00000000000E+00  0.00000000000E+00  0.44543488295E+03  0.44543488295E+03  0.00000000000E+00 0. -1.
         21   -1    0    0  501  502  0.00000000000E+00 -0.00000000000E+00 -0.30914647459E+03  0.30914647459E+03  0.00000000000E+00 0.  1.
         23    2    1    2    0    0 -0.24623116884E+02  0.50726165293E+02  0.31138589218E+03  0.32862927184E+03  0.88637366442E+02 0.  0.
         23    2    1    2    0    0  0.46398235645E+02 -0.13370054029E+02 -0.21017455559E+03  0.23372729066E+03  0.90130727083E+02 0.  0.
        -11    1    4    4    0    0  0.38431669883E+02  0.12330477579E+02 -0.20143174682E+03  0.20543559222E+03  0.00000000000E+00 0.  1.
         11    1    4    4    0    0  0.79665657624E+01 -0.25700531607E+02 -0.87428087754E+01  0.28291698433E+02  0.00000000000E+00 0. -1.
        -13    1    3    3    0    0  0.31112399536E+02  0.18762884711E+02  0.70361465710E+02  0.79188150025E+02  0.00000000000E+00 0.  1.
         13    1    3    3    0    0 -0.55735516420E+02  0.31963280583E+02  0.24102442647E+03  0.24944112181E+03  0.00000000000E+00 0. -1.
         21    1    1    2  503  502  0.12691415337E+02 -0.30607797383E+02  0.10709271106E+03  0.11210155238E+03  0.00000000000E+00 0.  1.
          2    1    1    2  501    0 -0.34466534098E+02 -0.67483138824E+01 -0.72015639288E+02  0.80123242664E+02  0.00000000000E+00 0. -1.
<scales pt_clust_5="13000.00000" pt_clust_6="13000.00000" pt_clust_7="13000.00000" pt_clust_8="13000.00000" pt_clust_9="33.13471" pt_clust_10="35.04380"></scales>
<clustering>
<clus scale="   33.135">  1  9  2 -1</clus>
<clus scale="   35.044">  2 10  1 -1</clus>
<clus scale="   88.637">  7  8 -1 -1</clus>
<clus scale="   90.131">  5  6 -1 -1</clus>
<clus scale="   92.216">  1  7  2 -1</clus>
<clus scale="   35.044">  2  5  1 -1</clus>
</clustering>
</event>
<event>
10    2  0.3984345E-006  0.9444602E+02  0.7546771E-02  0.1292749E+00
         21   -1    0    0  501  502  0.00000000000E+00  0.00000000000E+00  0.29058956584E+02  0.29058956584E+02  0.00000000000E+00 0.  1.
          2   -1    0    0  503    0 -0.00000000000E+00 -0.00000000000E+00 -0.69538757060E+03  0.69538757060E+03  0.00000000000E+00 0. -1.
         23    2    1    2    0    0 -0.11547877699E+02 -0.21811425271E+01 -0.24145702882E+03  0.25825513678E+03  0.90863128086E+02 0.  0.
         23    2    1    2    0    0  0.35061264787E+02 -0.12021371339E+02 -0.27372372283E+03  0.29096464440E+03  0.91443655850E+02 0.  0.
        -11    1    4    4    0    0  0.51416382805E+02  0.23403669363E+02 -0.12438080098E+03  0.13660878381E+03  0.00000000000E+00 0.  1.
         11    1    4    4    0    0 -0.16355118018E+02 -0.35425040701E+02 -0.14934292185E+03  0.15435586060E+03  0.00000000000E+00 0. -1.
        -13    1    3    3    0    0  0.30868805569E+02 -0.28133015870E+02 -0.11706580116E+03  0.12429300681E+03  0.00000000000E+00 0.  1.
         13    1    3    3    0    0 -0.42416683267E+02  0.25951873343E+02 -0.12439122766E+03  0.13396212998E+03  0.00000000000E+00 0. -1.
         21    1    1    2  503  502  0.13860237885E+02  0.32573958482E+02 -0.11417669568E+03  0.11953864146E+03  0.00000000000E+00 0.  1.
          2    1    1    2  501    0 -0.37373624973E+02 -0.18371444617E+02 -0.36971166677E+02  0.55688104532E+02  0.00000000000E+00 0. -1.
<scales pt_clust_5="13000.00000" pt_clust_6="13000.00000" pt_clust_7="13000.00000" pt_clust_8="13000.00000" pt_clust_9="35.40013" pt_clust_10="39.54140"></scales>
<clustering>
<clus scale="   35.400">  2  9  1 -1</clus>
<clus scale="   39.541">  1 10  2 -1</clus>
<clus scale="   90.863">  7  8 -1 -1</clus>
<clus scale="   91.444">  5  6 -1 -1</clus>
<clus scale="   93.884">  2  7  1 -1</clus>
<clus scale="   39.541">  1  5  2 -1</clus>
</clustering>
</event>
<event>
10    2  0.3984345E-006  0.1303244E+03  0.7546771E-02  0.1228461E+00
         21   -1    0    0  501  502  0.00000000000E+00  0.00000000000E+00  0.44472614188E+03  0.44472614188E+03  0.00000000000E+00 0.  1.
          1   -1    0    0  503    0 -0.00000000000E+00 -0.00000000000E+00 -0.79139948117E+02  0.79139948117E+02  0.00000000000E+00 0. -1.
         23    2    1    2    0    0  0.28124005849E+02 -0.77274716555E+02  0.50343628430E+02  0.13073527686E+03  0.88288675204E+02 0.  0.
         23    2    1    2    0    0 -0.88575376965E+02  0.71155753149E+02  0.16467565045E+03  0.22098882503E+03  0.93857617311E+02 0.  0.
        -11    1    4    4    0    0 -0.81674838916E+02  0.10063041184E+02  0.11770075104E+03  0.14361584490E+03  0.00000000000E+00 0.  1.
         11    1    4    4    0    0 -0.69005380487E+01  0.61092711965E+02  0.46974899413E+02  0.77372980138E+02  0.00000000000E+00 0. -1.
        -13    1    3    3    0    0 -0.12136828388E+02 -0.17171619111E+02  0.54356858191E+02  0.58282374168E+02  0.00000000000E+00 0.  1.
         13    1    3    3    0    0  0.40260834237E+02 -0.60103097444E+02 -0.40132297607E+01  0.72452902695E+02  0.00000000000E+00 0. -1.
         21    1    1    2  503  502  0.21211876685E+02  0.11329433214E+02  0.98901726565E+01  0.26002216918E+02  0.00000000000E+00 0. -1.
          1    1    1    2  501    0  0.39239494430E+02 -0.52104698079E+01  0.14067674222E+03  0.14613977118E+03  0.00000000000E+00 0. -1.
<scales pt_clust_5="13000.00000" pt_clust_6="13000.00000" pt_clust_7="13000.00000" pt_clust_8="13000.00000" pt_clust_9="24.04786" pt_clust_10="40.33822"></scales>
<clustering>
<clus scale="   24.048">  2  9  1 -1</clus>
<clus scale="   40.338">  1 10  2 -1</clus>
<clus scale="   88.289">  7  8 -1 -1</clus>
<clus scale="   93.858">  5  6 -1 -1</clus>
<clus scale="  126.373">  2  7  1 -1</clus>
<clus scale="   40.338">  1  5  2 -1</clus>
</clustering>
</event>
<event>
10    2  0.3984345E-006  0.1487345E+03  0.7546771E-02  0.1209162E+00
          4   -1    0    0  503    0 -0.00000000000E+00  0.00000000000E+00  0.16500272315E+03  0.16500272315E+03  0.00000000000E+00 0. -1.
         21   -1    0    0  501  502  0.00000000000E+00 -0.00000000000E+00 -0.34829925268E+03  0.34829925268E+03  0.00000000000E+00 0. -1.
         23    2    1    2    0    0 -0.68722552395E+02  0.53087282814E+02 -0.15536456105E+02  0.12638964058E+03  0.90509176189E+02 0.  0.
         23    2    1    2    0    0  0.78557235694E+02 -0.51211534689E+02 -0.77736112162E+01  0.15128453579E+03  0.11845978716E+03 0.  0.
        -11    1    3    3    0    0 -0.42819802138E+02  0.67850106808E+02 -0.38274822551E+02  0.88893950808E+02  0.00000000000E+00 0.  1.
         11    1    3    3    0    0 -0.25902750258E+02 -0.14762823994E+02  0.22738366446E+02  0.37495689776E+02  0.00000000000E+00 0. -1.
        -13    1    4    4    0    0  0.34714513999E+02 -0.57398451159E+02  0.46217280531E+02  0.81459908527E+02  0.00000000000E+00 0. -1.
         13    1    4    4    0    0  0.43842721694E+02  0.61869164697E+01 -0.53990891747E+02  0.69824627265E+02  0.00000000000E+00 0.  1.
         21    1    1    2  503  502  0.19821399706E+02  0.64210685117E+01  0.33638916355E+02  0.39568860240E+02  0.00000000000E+00 0. -1.
          4    1    1    2  501    0 -0.29656083004E+02 -0.82968166368E+01 -0.19362537856E+03  0.19605893922E+03  0.00000000000E+00 0. -1.
<scales pt_clust_5="13000.00000" pt_clust_6="13000.00000" pt_clust_7="13000.00000" pt_clust_8="13000.00000" pt_clust_9="20.83550" pt_clust_10="30.59753"></scales>
<clustering>
<clus scale="   20.835">  1  9  2 -1</clus>
<clus scale="   30.598">  2 10  1 -1</clus>
<clus scale="   90.509">  5  6 -1 -1</clus>
<clus scale="  118.460">  7  8 -1 -1</clus>
<clus scale="  127.598">  1  5  2 -1</clus>
<clus scale="   30.598">  2  5  1 -1</clus>
</clustering>
</event>
<event>
10    2  0.3984345E-006  0.1237302E+03  0.7546771E-02  0.1238212E+00
         21   -1    0    0  501  502  0.00000000000E+00  0.00000000000E+00  0.19296037725E+03  0.19296037725E+03  0.00000000000E+00 0.  1.
          3   -1    0    0  503    0 -0.00000000000E+00 -0.00000000000E+00 -0.20288255299E+03  0.20288255299E+03  0.00000000000E+00 0. -1.
         23    2    1    2    0    0  0.28554167068E+02  0.41421479732E+02 -0.53865479305E+02  0.12132312772E+03  0.96367691778E+02 0.  0.
         23    2    1    2    0    0 -0.28835853933E+02 -0.10835180744E+03  0.64754785487E+01  0.14560897063E+03  0.92673727981E+02 0.  0.
        -11    1    3    3    0    0 -0.14812873091E+02  0.58758781625E+02 -0.39983292905E+02  0.72599444480E+02  0.00000000000E+00 0. -1.
         11    1    3    3    0    0  0.43367040160E+02 -0.17337301893E+02 -0.13882186400E+02  0.48723683239E+02  0.00000000000E+00 0.  1.
        -13    1    4    4    0    0  0.32930857669E+02 -0.38272316724E+02  0.12455236720E+02  0.52003312740E+02  0.00000000000E+00 0. -1.
         13    1    4    4    0    0 -0.61766711602E+02 -0.70079490719E+02 -0.59797581709E+01  0.93605657891E+02  0.00000000000E+00 0.  1.
         21    1    1    2  503  502 -0.14524898467E+02  0.34344360404E+02 -0.33051142847E+02  0.49828564203E+02  0.00000000000E+00 0. -1.
          3    1    1    2  501    0  0.14806585332E+02  0.32585967306E+02  0.70518967864E+02  0.79082267690E+02  0.00000000000E+00 0. -1.
<scales pt_clust_5="13000.00000" pt_clust_6="13000.00000" pt_clust_7="13000.00000" pt_clust_8="13000.00000" pt_clust_9="39.05553" pt_clust_10="35.79218"></scales>
<clustering>
<clus scale="   35.792">  1 10  2 -1</clus>
<clus scale="   39.056">  2  9  1 -1</clus>
<clus scale="   92.674">  7  8 -1 -1</clus>
<clus scale="   96.368">  5  6 -1 -1</clus>
<clus scale="  120.875">  1  7  2 -1</clus>
<clus scale="   35.792">  1  5  2 -1</clus>
</clustering>
</event>
<event>
10    2  0.3984345E-006  0.1623086E+03  0.7546771E-02  0.1191679E+00
         -3   -1    0    0    0  501 -0.00000000000E+00  0.00000000000E+00  0.27270752962E+03  0.27270752962E+03  0.00000000000E+00 0.  1.
         21   -1    0    0  503  502  0.00000000000E+00 -0.00000000000E+00 -0.33335892380E+03  0.33335892380E+03  0.00000000000E+00 0.  1.
         23    2    1    2    0    0  0.98752080786E+02  0.31081554159E+02  0.46342612879E+02  0.14270843781E+03  0.86602678852E+02 0.  0.
         23    2    1    2    0    0  0.15341382403E+02 -0.10705674907E+03 -0.11510420425E+02  0.14451577376E+03  0.95162038398E+02 0.  0.
        -11    1    3    3    0    0  0.31807892304E+02  0.55215834188E+02  0.19289314231E+02  0.66577834159E+02  0.00000000000E+00 0. -1.
         11    1    3    3    0    0  0.66944188482E+02 -0.24134280028E+02  0.27053298648E+02  0.76130603647E+02  0.00000000000E+00 0.  1.
        -13    1    4    4    0    0 -0.17779725021E+02 -0.10548392735E+03  0.57647982945E+01  0.10712707618E+03  0.00000000000E+00 0.  1.
         13    1    4    4    0    0  0.33121107424E+02 -0.15728217184E+01 -0.17275218719E+02  0.37388697583E+02  0.00000000000E+00 0. -1.
         21    1    1    2  503  501  0.23197508216E+02 -0.76592770080E+00  0.79935464804E+02  0.83236948323E+02  0.00000000000E+00 0.  1.
         -3    1    1    2    0  502 -0.13729097140E+03  0.76741122610E+02 -0.17541905144E+03  0.23560529352E+03  0.00000000000E+00 0.  1.
<scales pt_clust_5="13000.00000" pt_clust_6="13000.00000" pt_clust_7="13000.00000" pt_clust_8="13000.00000" pt_clust_9="23.21015" pt_clust_10="131.48492"></scales>
<clustering>
<clus scale="   23.210">  1  9  2 -1</clus>
<clus scale="   86.603">  5  6 -1 -1</clus>
<clus scale="   95.162">  7  8 -1 -1</clus>
<clus scale="  143.500">  1  5  2 -1</clus>
<clus scale="  131.485">  2 10  1 -1</clus>
<clus scale="  131.485">  2  5  1 -1</clus>
</clustering>
</event>
<event>
10    2  0.3984345E-006  0.1005716E+03  0.7546771E-02  0.1280098E+00
         21   -1    0    0  501  502  0.00000000000E+00  0.00000000000E+00  0.76595032493E+02  0.76595032493E+02  0.00000000000E+00 0.  1.
          2   -1    0    0  503    0 -0.00000000000E+00 -0.00000000000E+00 -0.44478408940E+03  0.44478408940E+03  0.00000000000E+00 0. -1.
         23    2    1    2    0    0  0.43444846292E+02  0.25397423670E+02 -0.13302216259E+03  0.16893958406E+03  0.91176770757E+02 0.  0.
         23    2    1    2    0    0 -0.21399302922E+02 -0.37063813310E+02 -0.10795418312E+03  0.14635941109E+03  0.89080385827E+02 0.  0.
        -11    1    4    4    0    0 -0.71710928249E+01 -0.65486990542E+02 -0.82889533660E+02  0.10588033478E+03  0.00000000000E+00 0. -1.
         11    1    4    4    0    0 -0.14228210098E+02  0.28423177232E+02 -0.25064649462E+02  0.40479076313E+02  0.00000000000E+00 0.  1.
        -13    1    3    3    0    0  0.66930032741E+02  0.16796997962E+02 -0.58944048705E+02  0.90753343195E+02  0.00000000000E+00 0.  1.
         13    1    3    3    0    0 -0.23485186448E+02  0.86004257079E+01 -0.74078113882E+02  0.78186240869E+02  0.00000000000E+00 0. -1.
         21    1    1    2  503  502 -0.28060923792E+02 -0.11822051880E+02 -0.16135572679E+03  0.16420367512E+03  0.00000000000E+00 0. -1.
          2    1    1    2  501    0  0.60153804224E+01  0.23488441520E+02  0.34143015591E+02  0.41876451620E+02  0.00000000000E+00 0. -1.
<scales pt_clust_5="13000.00000" pt_clust_6="13000.00000" pt_clust_7="13000.00000" pt_clust_8="13000.00000" pt_clust_9="29.91693" pt_clust_10="24.24648"></scales>
<clustering>
<clus scale="   24.246">  1 10  2 -1</clus>
<clus scale="   29.917">  2  9  1 -1</clus>
<clus scale="   89.080">  5  6 -1 -1</clus>
<clus scale="   91.177">  7  8 -1 -1</clus>
<clus scale="   98.675">  1  5  2 -1</clus>
<clus scale="   24.246">  1  5  2 -1</clus>
</clustering>
</event>
<event>
10    2  0.3984345E-006  0.3133062E+03  0.7546771E-02  0.1078910E+00
         -3   -1    0    0    0  501 -0.00000000000E+00  0.00000000000E+00  0.50683586964E+03  0.50683586964E+03  0.00000000000E+00 0.  1.
         21   -1    0    0  503  502  0.00000000000E+00 -0.00000000000E+00 -0.36315471437E+03  0.36315471437E+03  0.00000000000E+00 0.  1.
         23    2    1    2    0    0  0.33271914724E+02 -0.30134953310E+03  0.26410222378E+03  0.41238825460E+03  0.91627105796E+02 0.  0.
         23    2    1    2    0    0  0.17202717663E+02  0.27282073822E+03 -0.46346443386E+02  0.29325433949E+03  0.95514533541E+02 0.  0.
        -13    1    3    3    0    0  0.15481428674E+02 -0.16371186584E+03  0.82933114266E+02  0.18417152628E+03  0.00000000000E+00 0.  1.
         13    1    3    3    0    0  0.17790486050E+02 -0.13763766726E+03  0.18116910951E+03  0.22821672832E+03  0.00000000000E+00 0. -1.
        -13    1    4    4    0    0  0.17409926993E+02  0.55210649809E+02 -0.48670717084E+02  0.75631740108E+02  0.00000000000E+00 0. -1.
         13    1    4    4    0    0 -0.20720933061E+00  0.21761008841E+03  0.23242736981E+01  0.21762259938E+03  0.00000000000E+00 0.  1.
         21    1    1    2  503  501 -0.20792353263E+02 -0.15970543893E+02  0.34488485916E+02  0.43322464003E+02  0.00000000000E+00 0.  1.
         -3    1    1    2    0  502 -0.29682279124E+02  0.44499338771E+02 -0.10856311104E+03  0.12102552592E+03  0.00000000000E+00 0.  1.
<scales pt_clust_5="13000.00000" pt_clust_6="13000.00000" pt_clust_7="13000.00000" pt_clust_8="13000.00000" pt_clust_9="26.21794" pt_clust_10="53.46831"></scales>
<clustering>
<clus scale="   26.218">  1  9  2 -1</clus>
<clus scale="   53.468">  2 10  1 -1</clus>
<clus scale="   91.627">  5  6 -1 -1</clus>
<clus scale="   95.515">  7  8 -1 -1</clus>
<clus scale="  312.143">  1  5  2 -1</clus>
<clus scale="   53.468">  2  5  1 -1</clus>
</clustering>
</event>
<event>
10    2  0.3984345E-006  0.1188037E+03  0.7546771E-02  0.1245520E+00
         21   -1    0    0  503  502  0.00000000000E+00  0.00000000000E+00  0.34146887210E+03  0.34146887210E+03  0.00000000000E+00 0.  1.
         -1   -1    0    0    0  501 -0.00000000000E+00 -0.00000000000E+00 -0.13859317615E+03  0.13859317615E+03  0.00000000000E+00 0.  1.
         23    2    1    2    0    0  0.63367259010E+02  0.79402650113E+01  0.31351932155E+02  0.11658511110E+03  0.92361719112E+02 0.  0.
         23    2    1    2    0    0 -0.65066878015E+02 -0.61912194151E+02 -0.18597543288E+01  0.12788846185E+03  0.91022972860E+02 0.  0.
        -13    1    3    3    0    0 -0.20184766659E+02  0.67172755198E+01 -0.98215831165E+01  0.23430964351E+02  0.00000000000E+00 0.  1.
         13    1    3    3    0    0  0.83552025669E+02  0.12229894915E+01  0.41173515271E+02  0.93154146748E+02  0.00000000000E+00 0. -1.
        -13    1    4    4    0    0 -0.39041060597E+02 -0.22018398787E+02 -0.45079662999E+02  0.63570357194E+02  0.00000000000E+00 0. -1.
         13    1    4    4    0    0 -0.26025817418E+02 -0.39893795363E+02  0.43219908670E+02  0.64318104653E+02  0.00000000000E+00 0.  1.
         21    1    1    2  503  501 -0.21455410209E+02 -0.48729572376E+01 -0.21463347697E+02  0.30736877425E+02  0.00000000000E+00 0.  1.
         -1    1    1    2    0  502  0.23155029214E+02  0.58844886377E+02  0.19484686582E+03  0.20485159787E+03  0.00000000000E+00 0.  1.
<scales pt_clust_5="13000.00000" pt_clust_6="13000.00000" pt_clust_7="13000.00000" pt_clust_8="13000.00000" pt_clust_9="22.00183" pt_clust_10="62.69089"></scales>
<clustering>
<clus scale="   22.002">  2  9  1 -1</clus>
<clus scale="   62.691">  1 10  2 -1</clus>
<clus scale="   91.023">  7  8 -1 -1</clus>
<clus scale="   92.362">  5  6 -1 -1</clus>
<clus scale="  117.766">  1  7  2 -1</clus>
<clus scale="   62.691">  1  5  2 -1</clus>
</clustering>
</event>
<event>
10    2  0.3984345E-006  0.1020094E+03  0.7546771E-02  0.1277382E+00
          1   -1    0    0  503    0 -0.00000000000E+00  0.00000000000E+00  0.64889799229E+03  0.64889799229E+03  0.00000000000E+00 0. -1.
         21   -1    0    0  501  502  0.00000000000E+00 -0.00000000000E+00 -0.45927108500E+02  0.45927108500E+02  0.00000000000E+00 0.  1.
         23    2    1    2    0    0  0.15034664487E+02 -0.32230897997E+02  0.23611047097E+03  0.25622083874E+03  0.92930575056E+02 0.  0.
         23    2    1    2    0    0  0.18377250754E+02  0.27709955543E+02  0.65287546859E+02  0.11625840099E+03  0.90266201015E+02 0.  0.
        -11    1    3    3    0    0 -0.17951730896E+02  0.26233569956E+02  0.63378160659E+02  0.70903145792E+02  0.00000000000E+00 0. -1.
         11    1    3    3    0    0  0.32986395383E+02 -0.58464467953E+02  0.17273231032E+03  0.18531769295E+03  0.00000000000E+00 0.  1.
        -13    1    4    4    0    0 -0.15292122747E+02  0.31139780451E+02 -0.79393672003E+01  0.35588881637E+02  0.00000000000E+00 0.  1.
         13    1    4    4    0    0  0.33669373501E+02 -0.34298249081E+01  0.73226914059E+02  0.80669519358E+02  0.00000000000E+00 0. -1.
         21    1    1    2  503  502  0.91936348536E+01 -0.36933644352E+02  0.20824174011E+03  0.21169137756E+03  0.00000000000E+00 0.  1.
          1    1    1    2  501    0 -0.42605550095E+02  0.41454586806E+02  0.93331125845E+02  0.11065448350E+03  0.00000000000E+00 0. -1.
<scales pt_clust_5="13000.00000" pt_clust_6="13000.00000" pt_clust_7="13000.00000" pt_clust_8="13000.00000" pt_clust_9="38.06070" pt_clust_10="52.13792"></scales>
<clustering>
<clus scale="   38.061">  1  9  2 -1</clus>
<clus scale="   52.138">  2 10  1 -1</clus>
<clus scale="   90.266">  7  8 -1 -1</clus>
<clus scale="   92.931">  5  6 -1 -1</clus>
<clus scale="   99.588">  2  7  1 -1</clus>
<clus scale="   52.138">  2  5  1 -1</clus>
</clustering>
</event>
<event>
10    2  0.3984345E-006  0.1091272E+03  0.7546771E-02  0.1264036E+00
         21   -1    0    0  503  502  0.00000000000E+00  0.00000000000E+00  0.58426639507E+03  0.58426639507E+03  0.00000000000E+00 0.  1.
         -1   -1    0    0    0  501 -0.00000000000E+00 -0.00000000000E+00 -0.14214100451E+03  0.14214100451E+03  0.00000000000E+00 0.  1.
         23    2    1    2    0    0  0.20179949311E+01 -0.20144403127E+02  0.20645427589E+02  0.10020035121E+03  0.95937518318E+02 0.  0.
         23    2    1    2    0    0  0.51030174216E+02  0.90096653204E+02  0.20788332060E+03  0.24962640220E+03  0.91522566024E+02 0.  0.
        -11    1    3    3    0    0 -0.11901566445E+02  0.17617569832E+02 -0.29209755209E+02  0.36128047968E+02  0.00000000000E+00 0. -1.
         11    1    3    3    0    0  0.13919561376E+02 -0.37761972959E+02  0.49855182798E+02  0.64072303240E+02  0.00000000000E+00 0.  1.
        -13    1    4    4    0    0  0.54790132172E+02  0.49190368099E+02  0.19191113667E+03  0.20555178247E+03  0.00000000000E+00 0. -1.
         13    1    4    4    0    0 -0.37599579555E+01  0.40906285104E+02  0.15972183927E+02  0.44074619729E+02  0.00000000000E+00 0.  1.
         21    1    1    2  503  501  0.27158043143E+02 -0.37234267137E+02 -0.67896853711E+02  0.82060542896E+02  0.00000000000E+00 0.  1.
         -1    1    1    2    0  502 -0.80206212291E+02 -0.32717982940E+02  0.28149349609E+03  0.29452010328E+03  0.00000000000E+00 0.  1.
<scales pt_clust_5="13000.00000" pt_clust_6="13000.00000" pt_clust_7="13000.00000" pt_clust_8="13000.00000" pt_clust_9="46.08633" pt_clust_10="85.65791"></scales>
<clustering>
<clus scale="   46.086">  2  9  1 -1</clus>
<clus scale="   85.658">  1 10  2 -1</clus>
<clus scale="   91.523">  7  8 -1 -1</clus>
<clus scale="   95.938">  5  6 -1 -1</clus>
<clus scale="  105.267">  1  7  2 -1</clus>
<clus scale="   85.658">  1  5  2 -1</clus>
</clustering>
</event>
<event>
10    2  0.3984345E-006  0.2316788E+03  0.7546771E-02  0.1125736E+00
          2   -1    0    0  503    0 -0.00000000000E+00  0.00000000000E+00  0.11324347608E+04  0.11324347608E+04  0.00000000000E+00 0. -1.
         21   -1    0    0  501  502  0.00000000000E+00 -0.00000000000E+00 -0.13932209416E+03  0.13932209416E+03  0.00000000000E+00 0. -1.
         23    2    1    2    0    0  0.18985995992E+03  0.90570030154E+02  0.54324000010E+03  0.58957868156E+03  0.90794214018E+02 0.  0.
         23    2    1    2    0    0 -0.19066749442E+03 -0.94336353792E+02  0.48106918379E+03  0.53445638940E+03  0.94671175668E+02 0.  0.
        -11    1    3    3    0    0  0.12650803736E+03  0.10411984268E+03  0.37153535190E+03  0.40605879238E+03  0.00000000000E+00 0.  1.
         11    1    3    3    0    0  0.63351922564E+02 -0.13549812529E+02  0.17170464819E+03  0.18351988918E+03  0.00000000000E+00 0. -1.
        -11    1    4    4    0    0 -0.22231540172E+02 -0.43684198056E+02  0.55923863771E+02  0.74364165277E+02  0.00000000000E+00 0.  1.
         11    1    4    4    0    0 -0.16843595425E+03 -0.50652155736E+02  0.42514532002E+03  0.46009222413E+03  0.00000000000E+00 0. -1.
         21    1    1    2  503  502  0.76844007940E+01  0.28396554094E+02  0.52513965752E+02  0.60192448854E+02  0.00000000000E+00 0. -1.
          2    1    1    2  501    0 -0.68768662921E+01 -0.24630230456E+02 -0.83710483018E+02  0.87529335137E+02  0.00000000000E+00 0. -1.
<scales pt_clust_5="13000.00000" pt_clust_6="13000.00000" pt_clust_7="13000.00000" pt_clust_8="13000.00000" pt_clust_9="27.58979" pt_clust_10="25.57224"></scales>
<clustering>
<clus scale="   25.572">  2 10  1 -1</clus>
<clus scale="   27.590">  2  9  1 -1</clus>
<clus scale="   90.794">  5  6 -1 -1</clus>
<clus scale="   94.671">  7  8 -1 -1</clus>
<clus scale="  230.122">  1  5  2 -1</clus>
<clus scale="   25.572">  2  5  1 -1</clus>
</clustering>
</event>
<event>
10    2  0.3984345E-006  0.3498919E+03  0.7546771E-02  0.1062667E+00
         21   -1    0    0  501  502  0.00000000000E+00  0.00000000000E+00  0.39536953218E+03  0.39536953218E+03  0.00000000000E+00 0. -1.
          4   -1    0    0  503    0 -0.00000000000E+00 -0.00000000000E+00 -0.49010739621E+03  0.49010739621E+03  0.00000000000E+00 0. -1.
         23    2    1    2    0    0  0.63264128695E+02  0.30488681933E+03 -0.11538664381E+03  0.34451717705E+03  0.91758842270E+02 0.  0.
         23    2    1    2    0    0 -0.12682211296E+03 -0.34156794000E+03  0.30574501632E+02  0.37690250442E+03  0.91477820865E+02 0.  0.
        -11    1    4    4    0    0 -0.79082098534E+02 -0.92261982476E+02  0.27644141180E+01  0.12154790703E+03  0.00000000000E+00 0.  1.
         11    1    4    4    0    0 -0.47740014429E+02 -0.24930595753E+03  0.27810087514E+02  0.25535459738E+03  0.00000000000E+00 0. -1.
        -11    1    3    3    0    0 -0.21632586892E+02  0.57437781125E+02 -0.35881037023E+02  0.71095121731E+02  0.00000000000E+00 0.  1.
         11    1    3    3    0    0  0.84896715586E+02  0.24744903821E+03 -0.79505606788E+02  0.27342205532E+03  0.00000000000E+00 0. -1.
         21    1    1    2  503  502 -0.13859529599E+02  0.41209740251E+02 -0.58247188891E+02  0.72684690726E+02  0.00000000000E+00 0. -1.
          4    1    1    2  501    0  0.77417513868E+02 -0.45286195768E+01  0.48321467037E+02  0.91372556194E+02  0.00000000000E+00 0. -1.
<scales pt_clust_5="13000.00000" pt_clust_6="13000.00000" pt_clust_7="13000.00000" pt_clust_8="13000.00000" pt_clust_9="43.47792" pt_clust_10="76.75374"></scales>
<clustering>
<clus scale="   43.478">  2  9  1 -1</clus>
<clus scale="   76.754">  1 10  2 -1</clus>
<clus scale="   91.478">  5  6 -1 -1</clus>
<clus scale="   91.759">  7  8 -1 -1</clus>
<clus scale="  349.818">  1  5  2 -1</clus>
<clus scale="   76.754">  1  5  2 -1</clus>
</clustering>
</event>
<event>
10    2  0.3984345E-006  0.1058617E+03  0.7546771E-02  0.1270540E+00
         21   -1    0    0  501  502  0.00000000000E+00  0.00000000000E+00  0.43680989836E+03  0.43680989836E+03  0.00000000000E+00 0.  1.
          3   -1    0    0  503    0 -0.00000000000E+00 -0.00000000000E+00 -0.70768919448E+02  0.70768919448E+02  0.00000000000E+00 0. -1.
         23    2    1    2    0    0  0.53539566512E+02  0.34274199969E+02  0.83710132402E+02  0.14238856996E+03  0.96051614367E+02 0.  0.
         23    2    1    2    0    0 -0.35398660457E+02  0.35643824163E+02  0.12376642984E+03  0.16183002385E+03  0.91363450575E+02 0.  0.
        -11    1    3    3    0    0  0.16874833825E+02  0.26958819197E+02  0.97486782869E+02  0.10254370182E+03  0.00000000000E+00 0.  1.
         11    1    3    3    0    0  0.36664732687E+02  0.73153807723E+01 -0.13776650467E+02  0.39844868138E+02  0.00000000000E+00 0. -1.
        -13    1    4    4    0    0 -0.56798335835E+02  0.30210227590E+02  0.41275331735E+02  0.76435344014E+02  0.00000000000E+00 0.  1.
         13    1    4    4    0    0  0.21399675378E+02  0.54335965733E+01  0.82491098103E+02  0.85394679836E+02  0.00000000000E+00 0. -1.
         21    1    1    2  503  502 -0.70415676542E+01 -0.26509541174E+02 -0.98069686336E+01  0.29129299375E+02  0.00000000000E+00 0. -1.
          3    1    1    2  501    0 -0.11099338401E+02 -0.43408482959E+02  0.16837138531E+03  0.17423092463E+03  0.00000000000E+00 0. -1.
<scales pt_clust_5="13000.00000" pt_clust_6="13000.00000" pt_clust_7="13000.00000" pt_clust_8="13000.00000" pt_clust_9="27.42881" pt_clust_10="46.37143"></scales>
<clustering>
<clus scale="   27.429">  2  9  1 -1</clus>
<clus scale="   46.371">  1 10  2 -1</clus>
<clus scale="   91.363">  7  8 -1 -1</clus>
<clus scale="   96.052">  5  6 -1 -1</clus>
<clus scale="  101.627">  1  7  2 -1</clus>
<clus scale="   46.371">  1  5  2 -1</clus>
</clustering>
</event>
<event>
10    2  0.3984345E-006  0.4113991E+03  0.7546771E-02  0.1040261E+00
         21   -1    0    0  501  502  0.00000000000E+00  0.00000000000E+00  0.34506964246E+03  0.34506964246E+03  0.00000000000E+00 0. -1.
          2   -1    0    0  503    0 -0.00000000000E+00 -0.00000000000E+00 -0.99146597891E+03  0.99146597891E+03  0.00000000000E+00 0. -1.
         23    2    1    2    0    0 -0.50269995941E+03  0.12110093733E+03 -0.44179383522E+03  0.68833712612E+03  0.10608261001E+03 0.  0.
         23    2    1    2    0    0  0.29269227693E+03 -0.15206549713E+03 -0.75649898984E+02  0.34968405633E+03  0.88109861186E+02 0.  0.
        -11    1    3    3    0    0 -0.18316788536E+03  0.31972282510E+02 -0.96401437506E+02  0.20944196865E+03  0.00000000000E+00 0.  1.
         11    1    3    3    0    0 -0.31953207405E+03  0.89128654822E+02 -0.34539239771E+03  0.47889515747E+03  0.00000000000E+00 0. -1.
        -11    1    4    4    0    0  0.21584993764E+03 -0.79781002398E+02 -0.21564950222E+02  0.23113037663E+03  0.00000000000E+00 0. -1.
         11    1    4    4    0    0  0.76842339292E+02 -0.72284494736E+02 -0.54084948761E+02  0.11855367970E+03  0.00000000000E+00 0.  1.
         21    1    1    2  503  502  0.17456795694E+03  0.86318565651E+02 -0.12750571090E+03  0.23277150315E+03  0.00000000000E+00 0. -1.
          2    1    1    2  501    0  0.35439725543E+02 -0.55354005850E+02 -0.14468913464E+01  0.65742935778E+02  0.00000000000E+00 0. -1.
<scales pt_clust_5="13000.00000" pt_clust_6="13000.00000" pt_clust_7="13000.00000" pt_clust_8="13000.00000" pt_clust_9="196.26747" pt_clust_10="65.72701"></scales>
<clustering>
<clus scale="   65.727">  1 10  2 -1</clus>
<clus scale="   88.110">  7  8 -1 -1</clus>
<clus scale="  106.083">  5  6 -1 -1</clus>
<clus scale="  196.267">  2  9  1 -1</clus>
<clus scale="  407.135">  1  7  2 -1</clus>
<clus scale="   65.727">  1  5  2 -1</clus>
</clustering>
</event>
<event>
10    2  0.3984345E-006  0.2209172E+03  0.7546771E-02  0.1134147E+00
          1   -1    0    0  502    0 -0.00000000000E+00  0.00000000000E+00  0.10549126433E+04  0.10549126433E+04  0.00000000000E+00 0. -1.
         21   -1    0    0  503  502  0.00000000000E+00 -0.00000000000E+00 -0.71192456328E+02  0.71192456328E+02  0.00000000000E+00 0. -1.
         23    2    1    2    0    0  0.81039590044E+02 -0.15656134212E+03  0.38948722589E+03  0.43959581248E+03  0.10230009881E+03 0.  0.
         23    2    1    2    0    0 -0.14213032394E+03  0.16630820926E+03  0.51118053823E+03  0.56340779442E+03  0.90902974056E+02 0.  0.
        -13    1    3    3    0    0  0.53970156853E+02 -0.16556048341E+03  0.31666803173E+03  0.36138856349E+03  0.00000000000E+00 0. -1.
         13    1    3    3    0    0  0.27069433191E+02  0.89991412897E+01  0.72819194157E+02  0.78207248992E+02  0.00000000000E+00 0.  1.
        -13    1    4    4    0    0 -0.97544113101E+02  0.16572307289E+03  0.41727079201E+03  0.45944956715E+03  0.00000000000E+00 0. -1.
         13    1    4    4    0    0 -0.44586210835E+02  0.58513637178E+00  0.93909746223E+02  0.10395822727E+03  0.00000000000E+00 0.  1.
         21    1    1    2  503  501  0.26172568346E+02  0.26899988195E+02  0.50498173698E+02  0.62918027985E+02  0.00000000000E+00 0. -1.
          1    1    1    2  501    0  0.34918165546E+02 -0.36646855330E+02  0.32554249144E+02  0.60183464739E+02  0.00000000000E+00 0. -1.
<scales pt_clust_5="13000.00000" pt_clust_6="13000.00000" pt_clust_7="13000.00000" pt_clust_8="13000.00000" pt_clust_9="37.53149" pt_clust_10="50.94468"></scales>
<clustering>
<clus scale="   37.531">  2  9  1 -1</clus>
<clus scale="   50.945">  2 10  1 -1</clus>
<clus scale="   90.903">  7  8 -1 -1</clus>
<clus scale="  102.300">  5  6 -1 -1</clus>
<clus scale="  215.876">  2  7  1 -1</clus>
<clus scale="   37.531">  2  5  1 -1</clus>
</clustering>
</event>
<event>
10    2  0.3984345E-006  0.1045729E+03  0.7546771E-02  0.1271308E+00
         21   -1    0    0  503  502  0.00000000000E+00  0.00000000000E+00  0.30100024431E+03  0.30100024431E+03  0.00000000000E+00 0.  1.
         -2   -1    0    0    0  501 -0.00000000000E+00 -0.00000000000E+00 -0.25960915444E+03  0.25960915444E+03  0.00000000000E+00 0.  1.
         23    2    1    2    0    0 -0.26976525867E+02  0.38111945767E+02 -0.12288617035E+03  0.16050128773E+03  0.92083652967E+02 0.  0.
         23    2    1    2    0    0  0.20275452305E+02 -0.44520366157E+02 -0.20365964186E+02  0.10555918068E+03  0.91295186948E+02 0.  0.
        -11    1    3    3    0    0  0.19534505425E+02  0.34020086641E+02 -0.10212946463E+03  0.10940471079E+03  0.00000000000E+00 0.  1.
         11    1    3    3    0    0 -0.46511031292E+02  0.40918591254E+01 -0.20756705712E+02  0.51096576940E+02  0.00000000000E+00 0. -1.
        -11    1    4    4    0    0 -0.11749925535E+02 -0.48019402988E+02  0.20503222001E+02  0.53519210811E+02  0.00000000000E+00 0. -1.
         11    1    4    4    0    0  0.32025377840E+02  0.34990368307E+01 -0.40869186187E+02  0.52039969870E+02  0.00000000000E+00 0.  1.
         21    1    1    2  503  501  0.32218316016E+02  0.21718460163E+02 -0.47011849805E+02  0.60990371543E+02  0.00000000000E+00 0.  1.
         -2    1    1    2    0  502 -0.25517242454E+02 -0.15310039773E+02  0.23165507421E+03  0.23355855879E+03  0.00000000000E+00 0.  1.
<scales pt_clust_5="13000.00000" pt_clust_6="13000.00000" pt_clust_7="13000.00000" pt_clust_8="13000.00000" pt_clust_9="35.81858" pt_clust_10="29.75781"></scales>
<clustering>
<clus scale="   29.758">  1 10  2 -1</clus>
<clus scale="   35.819">  2  9  1 -1</clus>
<clus scale="   91.295">  7  8 -1 -1</clus>
<clus scale="   92.084">  5  6 -1 -1</clus>
<clus scale="  103.879">  1  7  2 -1</clus>
<clus scale="   29.758">  1  5  2 -1</clus>
</clustering>
</event>
<event>
10    2  0.3984345E-006  0.9995932E+02  0.7546771E-02  0.1283249E+00
         -2   -1    0    0    0  501 -0.00000000000E+00  0.00000000000E+00  0.10228361159E+03  0.10228361159E+03  0.00000000000E+00 0.  1.
         21   -1    0    0  503  502  0.00000000000E+00 -0.00000000000E+00 -0.22922495034E+03  0.22922495034E+03  0.00000000000E+00 0. -1.
         23    2    1    2    0    0  0.40269007921E+01  0.92054940641E+01  0.27488058760E+02  0.99350221316E+02  0.94941645500E+02 0.  0.
         23    2    1    2    0    0 -0.40660657457E+02 -0.53537448516E+01 -0.14283186180E+03  0.17339714206E+03  0.89351421261E+02 0.  0.
        -11    1    3    3    0    0 -0.20496641201E+02  0.27436562064E+02 -0.22346372582E+02  0.40893001920E+02  0.00000000000E+00 0. -1.
         11    1    3    3    0    0  0.24523541993E+02 -0.18231068000E+02  0.49834431342E+02  0.58457219396E+02  0.00000000000E+00 0.  1.
        -11    1    4    4    0    0 -0.62970105413E+02 -0.12018655951E+02 -0.13390733126E+03  0.14846163017E+03  0.00000000000E+00 0. -1.
         11    1    4    4    0    0  0.22309447956E+02  0.66649110994E+01 -0.89245305364E+01  0.24935511893E+02  0.00000000000E+00 0.  1.
         21    1    1    2  503  501  0.28147205333E+02  0.16996353947E+02 -0.14740440408E+02  0.36033620398E+02  0.00000000000E+00 0. -1.
         -2    1    1    2    0  502  0.84865513317E+01 -0.20848103160E+02  0.31429046956E+01  0.22727578155E+02  0.00000000000E+00 0.  1.
<scales pt_clust_5="13000.00000" pt_clust_6="13000.00000" pt_clust_7="13000.00000" pt_clust_8="13000.00000" pt_clust_9="32.57614" pt_clust_10="22.50923"></scales>
<clustering>
<clus scale="   22.509">  2 10  1 -1</clus>
<clus scale="   32.576">  1  9  2 -1</clus>
<clus scale="   89.351">  7  8 -1 -1</clus>
<clus scale="   94.666">  2  7  1 -1</clus>
<clus scale="   94.942">  5  6 -1 -1</clus>
<clus scale="   22.509">  2  5  1 -1</clus>
</clustering>
</event>
<event>
10    2  0.3984345E-006  0.1201953E+03  0.7546771E-02  0.1244150E+00
          1   -1    0    0  503    0 -0.00000000000E+00  0.00000000000E+00  0.64260741706E+03  0.64260741706E+03  0.00000000000E+00 0. -1.
         21   -1    0    0  501  502  0.00000000000E+00 -0.00000000000E+00 -0.16326191899E+03  0.16326191899E+03  0.00000000000E+00 0. -1.
         23    2    1    2    0    0 -0.43762323352E+02 -0.66598073944E+02  0.33027868311E+03  0.35067984086E+03  0.86844100961E+02 0.  0.
         23    2    1    2    0    0  0.84608548634E+02 -0.29601500042E+02  0.89493882274E+02  0.15609607990E+03  0.91224864430E+02 0.  0.
        -11    1    3    3    0    0  0.66358979423E+01 -0.64429289808E+02  0.22146188466E+03  0.23073910566E+03  0.00000000000E+00 0.  1.
         11    1    3    3    0    0 -0.50398221294E+02 -0.21687841355E+01  0.10881679845E+03  0.11994073520E+03  0.00000000000E+00 0. -1.
        -13    1    4    4    0    0  0.13353269589E+02 -0.15623027752E+02 -0.17361182055E+02  0.26903521093E+02  0.00000000000E+00 0. -1.
         13    1    4    4    0    0  0.71255279044E+02 -0.13978472290E+02  0.10685506433E+03  0.12919255881E+03  0.00000000000E+00 0.  1.
         21    1    1    2  503  502 -0.17702078230E+02 -0.17887053175E+02  0.14974438808E+03  0.15184430186E+03  0.00000000000E+00 0. -1.
          1    1    1    2  501    0 -0.23144147052E+02  0.11408662716E+03 -0.90171455389E+02  0.14724911343E+03  0.00000000000E+00 0. -1.
<scales pt_clust_5="13000.00000" pt_clust_6="13000.00000" pt_clust_7="13000.00000" pt_clust_8="13000.00000" pt_clust_9="25.16566" pt_clust_10="115.60389"></scales>
<clustering>
<clus scale="   25.166">  1  9  2 -1</clus>
<clus scale="   86.844">  5  6 -1 -1</clus>
<clus scale="   91.225">  7  8 -1 -1</clus>
<clus scale="  115.604">  2 10  1 -1</clus>
<clus scale="  116.905">  1  5  2 -1</clus>
<clus scale="  115.604">  2  5  1 -1</clus>
</clustering>
</event>
<event>
10    2  0.3984345E-006  0.1040306E+03  0.7546771E-02  0.1272127E+00
          1   -1    0    0  503    0 -0.00000000000E+00  0.00000000000E+00  0.60096951265E+03  0.60096951265E+03  0.00000000000E+00 0. -1.
         21   -1    0    0  501  502  0.00000000000E+00 -0.00000000000E+00 -0.59587134720E+02  0.59587134720E+02  0.00000000000E+00 0. -1.
         23    2    1    2    0    0 -0.48241376691E+02 -0.54677558542E+02  0.32037525413E+03  0.34090578443E+03  0.90882256586E+02 0.  0.
         23    2    1    2    0    0  0.66391650097E+01  0.27703300629E+02  0.19621127556E+03  0.21818761565E+03  0.91079194055E+02 0.  0.
        -13    1    4    4    0    0 -0.26820527116E+02 -0.48919461139E+01  0.15008050786E+03  0.15253665346E+03  0.00000000000E+00 0. -1.
         13    1    4    4    0    0  0.33459692125E+02  0.32595246743E+02  0.46130767703E+02  0.65650962189E+02  0.00000000000E+00 0.  1.
        -13    1    3    3    0    0  0.10748781277E+02 -0.54185172770E+02  0.18870404810E+03  0.19662346507E+03  0.00000000000E+00 0. -1.
         13    1    3    3    0    0 -0.58990157968E+02 -0.49238577179E+00  0.13167120604E+03  0.14428231936E+03  0.00000000000E+00 0.  1.
         21    1    1    2  503  502 -0.22839899950E+02  0.12973464390E+02  0.23897798839E+02  0.35511640309E+02  0.00000000000E+00 0.  1.
          1    1    1    2  501    0  0.64442111632E+02  0.14000793522E+02  0.89804939871E+00  0.65951606982E+02  0.00000000000E+00 0. -1.
<scales pt_clust_5="13000.00000" pt_clust_6="13000.00000" pt_clust_7="13000.00000" pt_clust_8="13000.00000" pt_clust_9="26.26731" pt_clust_10="55.14100"></scales>
<clustering>
<clus scale="   26.267">  2  9  1 -1</clus>
<clus scale="   55.141">  2 10  1 -1</clus>
<clus scale="   90.882">  7  8 -1 -1</clus>
<clus scale="   91.079">  5  6 -1 -1</clus>
<clus scale="  103.858">  1  7  2 -1</clus>
<clus scale="   26.267">  2  5  1 -1</clus>
</clustering>
</event>
<event>
10    2  0.3984345E-006  0.2804629E+03  0.7546771E-02  0.1117975E+00
          1   -1    0    0  503    0 -0.00000000000E+00  0.00000000000E+00  0.26587242294E+04  0.26587242294E+04  0.00000000000E+00 0. -1.
         21   -1    0    0  501  502  0.00000000000E+00 -0.00000000000E+00 -0.57506702463E+02  0.57506702463E+02  0.00000000000E+00 0. -1.
         23    2    1    2    0    0  0.11057390895E+03 -0.76177294059E+02  0.65694331357E+03  0.67662247905E+03  0.90630527087E+02 0.  0.
         23    2    1    2    0    0 -0.27050327421E+03 -0.13290725670E+03  0.12425902845E+04  0.12818880295E+04  0.91487401741E+02 0.  0.
        -11    1    3    3    0    0  0.21749140824E+02 -0.52087289778E+02  0.13034033256E+03  0.14203771743E+03  0.00000000000E+00 0.  1.
         11    1    3    3    0    0  0.88824768125E+02 -0.24090004281E+02  0.52660298101E+03  0.53458476162E+03  0.00000000000E+00 0. -1.
        -13    1    4    4    0    0 -0.16969311129E+03 -0.12377024462E+03  0.74133626721E+03  0.77051559786E+03  0.00000000000E+00 0.  1.
         13    1    4    4    0    0 -0.10081016292E+03 -0.91370120779E+01  0.50125401730E+03  0.51137243160E+03  0.00000000000E+00 0. -1.
         21    1    1    2  503  502 -0.14260832067E+02  0.32371028284E+02  0.58897118897E+02  0.68703168906E+02  0.00000000000E+00 0. -1.
          1    1    1    2  501    0  0.17419019733E+03  0.17671352247E+03  0.64278681000E+03  0.68901725449E+03  0.00000000000E+00 0. -1.
<scales pt_clust_5="13000.00000" pt_clust_6="13000.00000" pt_clust_7="13000.00000" pt_clust_8="13000.00000" pt_clust_9="35.37308" pt_clust_10="265.12170"></scales>
<clustering>
<clus scale="   35.373">  2  9  1 -1</clus>
<clus scale="   90.631">  5  6 -1 -1</clus>
<clus scale="   91.487">  7  8 -1 -1</clus>
<clus scale="  157.400">  1  5  2 -1</clus>
<clus scale="  265.122">  2 10  1 -1</clus>
<clus scale="   35.373">  2  5  1 -1</clus>
</clustering>
</event>
<event>
10    2  0.3984345E-006  0.1049088E+03  0.7546771E-02  0.1274357E+00
         21   -1    0    0  501  502  0.00000000000E+00  0.00000000000E+00  0.23784998296E+02  0.23784998296E+02  0.00000000000E+00 0. -1.
          1   -1    0    0  503    0 -0.00000000000E+00 -0.00000000000E+00 -0.88261219215E+03  0.88261219215E+03  0.00000000000E+00 0. -1.
         23    2    1    2    0    0  0.85687717718E+01  0.69143193097E+02 -0.39831858875E+03  0.41312020766E+03  0.84595524900E+02 0.  0.
         23    2    1    2    0    0  0.10004243695E+02 -0.25180393880E+02 -0.27053723197E+03  0.28753094085E+03  0.93538820483E+02 0.  0.
        -11    1    3    3    0    0 -0.37152088459E+02  0.32044941942E+02 -0.14600779389E+03  0.15403061987E+03  0.00000000000E+00 0. -1.
         11    1    3    3    0    0  0.45720860231E+02  0.37098251154E+02 -0.25231079486E+03  0.25908958779E+03  0.00000000000E+00 0.  1.
        -13    1    4    4    0    0  0.66452516560E+01  0.31961022638E+02 -0.15726618615E+03  0.16061855323E+03  0.00000000000E+00 0. -1.
         13    1    4    4    0    0  0.33589920387E+01 -0.57141416518E+02 -0.11327104582E+03  0.12691238762E+03  0.00000000000E+00 0.  1.
         21    1    1    2  503  502 -0.15691739772E+02 -0.16748019255E+02 -0.17079309073E+03  0.17232819470E+03  0.00000000000E+00 0. -1.
          1    1    1    2  501    0 -0.28812756948E+01 -0.27214779962E+02 -0.19178282407E+02  0.33417847239E+02  0.00000000000E+00 0. -1.
<scales pt_clust_5="13000.00000" pt_clust_6="13000.00000" pt_clust_7="13000.00000" pt_clust_8="13000.00000" pt_clust_9="22.95053" pt_clust_10="28.04863"></scales>
<clustering>
<clus scale="   22.951">  2  9  1 -1</clus>
<clus scale="   28.049">  1 10  2 -1</clus>
<clus scale="   84.596">  5  6 -1 -1</clus>
<clus scale="   93.539">  7  8 -1 -1</clus>
<clus scale="   97.019">  2  5  1 -1</clus>
<clus scale="   28.049">  1  5  2 -1</clus>
</clustering>
</event>
<event>
10    2  0.3984345E-006  0.1315873E+03  0.7546771E-02  0.1239326E+00
         21   -1    0    0  503  502  0.00000000000E+00  0.00000000000E+00  0.44755718805E+03  0.44755718805E+03  0.00000000000E+00 0.  1.
         -4   -1    0    0    0  501 -0.00000000000E+00 -0.00000000000E+00 -0.11758325311E+03  0.11758325311E+03  0.00000000000E+00 0.  1.
         23    2    1    2    0    0  0.45869998291E+02  0.44824464742E+02 -0.16035869268E+02  0.14280146560E+03  0.12657732851E+03 0.  0.
         23    2    1    2    0    0 -0.19127815261E+02  0.65157649455E+01  0.13056069382E+03  0.16066050458E+03  0.91418676708E+02 0.  0.
        -11    1    4    4    0    0  0.13251464680E+02  0.42803387104E+02  0.57585814544E+02  0.72964767528E+02  0.00000000000E+00 0.  1.
         11    1    4    4    0    0 -0.32379279941E+02 -0.36287622158E+02  0.72974879280E+02  0.87695737053E+02  0.00000000000E+00 0. -1.
        -13    1    3    3    0    0  0.16614893440E+02  0.68636850541E+02 -0.54291345669E+02  0.89076496062E+02  0.00000000000E+00 0.  1.
         13    1    3    3    0    0  0.29255104851E+02 -0.23812385799E+02  0.38255476401E+02  0.53724969539E+02  0.00000000000E+00 0. -1.
         21    1    1    2  503  501 -0.13099386244E+02 -0.20509927570E+02 -0.15124484188E+02  0.28653116250E+02  0.00000000000E+00 0. -1.
         -4    1    1    2    0  502 -0.13642796786E+02 -0.30830302117E+02  0.23057359457E+03  0.23302535473E+03  0.00000000000E+00 0.  1.
<scales pt_clust_5="13000.00000" pt_clust_6="13000.00000" pt_clust_7="13000.00000" pt_clust_8="13000.00000" pt_clust_9="24.33621" pt_clust_10="34.02220"></scales>
<clustering>
<clus scale="   24.336">  2  9  1 -1</clus>
<clus scale="   34.022">  1 10  2 -1</clus>
<clus scale="   91.419">  5  6 -1 -1</clus>
<clus scale="   98.238">  1  5  2 -1</clus>
<clus scale="  126.577">  7  8 -1 -1</clus>
<clus scale="   34.022">  1  5  2 -1</clus>
</clustering>
</event>
<event>
10    2  0.3984345E-006  0.2234142E+03  0.7546771E-02  0.1131599E+00
          1   -1    0    0  503    0 -0.00000000000E+00  0.00000000000E+00  0.49236816834E+03  0.49236816834E+03  0.00000000000E+00 0. -1.
         21   -1    0    0  501  502  0.00000000000E+00 -0.00000000000E+00 -0.27848384082E+03  0.27848384082E+03  0.00000000000E+00 0. -1.
         23    2    1    2    0    0  0.14913201081E+03 -0.84945733282E+02  0.26143866874E+03  0.32659313889E+03  0.94110395835E+02 0.  0.
         23    2    1    2    0    0 -0.21887597136E+03  0.84675159664E+02 -0.34674532743E+02  0.25408853971E+03  0.91005984904E+02 0.  0.
        -13    1    3    3    0    0  0.90830610619E+02 -0.91197511283E+02  0.13135864988E+03  0.18390834888E+03  0.00000000000E+00 0.  1.
         13    1    3    3    0    0  0.58301400196E+02  0.62517780009E+01  0.13008001886E+03  0.14268479001E+03  0.00000000000E+00 0. -1.
        -13    1    4    4    0    0 -0.18537603279E+03  0.56116239952E+02 -0.60671871641E+02  0.20296399170E+03  0.00000000000E+00 0.  1.
         13    1    4    4    0    0 -0.33499938573E+02  0.28558919712E+02  0.25997338898E+02  0.51124548011E+02  0.00000000000E+00 0. -1.
         21    1    1    2  503  502  0.31992024717E+02 -0.11223912323E+02  0.81284150268E+02  0.88071442240E+02  0.00000000000E+00 0. -1.
          1    1    1    2  501    0  0.37751935832E+02  0.11494485941E+02 -0.94163958755E+02  0.10209888831E+03  0.00000000000E+00 0. -1.
<scales pt_clust_5="13000.00000" pt_clust_6="13000.00000" pt_clust_7="13000.00000" pt_clust_8="13000.00000" pt_clust_9="33.90377" pt_clust_10="39.72954"></scales>
<clustering>
<clus scale="   33.904">  1  9  2 -1</clus>
<clus scale="   39.730">  2 10  1 -1</clus>
<clus scale="   91.006">  7  8 -1 -1</clus>
<clus scale="   94.110">  5  6 -1 -1</clus>
<clus scale="  222.124">  2  7  1 -1</clus>
<clus scale="   39.730">  2  5  1 -1</clus>
</clustering>
</event>
<event>
10    2  0.3984345E-006  0.1056493E+03  0.7546771E-02  0.1268922E+00
         -1   -1    0    0    0  501 -0.00000000000E+00  0.00000000000E+00  0.21252687897E+03  0.21252687897E+03  0.00000000000E+00 0.  1.
         21   -1    0    0  503  502  0.00000000000E+00 -0.00000000000E+00 -0.24535589235E+03  0.24535589235E+03  0.00000000000E+00 0. -1.
         23    2    1    2    0    0  0.35693562023E+02  0.12587676111E+02  0.15421023110E+03  0.18266324886E+03  0.90291678184E+02 0.  0.
         23    2    1    2    0    0 -0.32661469495E+02  0.31248638771E+02 -0.16252127099E+03  0.19124824154E+03  0.90108142548E+02 0.  0.
        -11    1    3    3    0    0  0.51329042239E+02  0.37830938284E+02  0.12822915867E+03  0.14320812687E+03  0.00000000000E+00 0. -1.
         11    1    3    3    0    0 -0.15635480216E+02 -0.25243262174E+02  0.25981072432E+02  0.39455121993E+02  0.00000000000E+00 0.  1.
        -13    1    4    4    0    0 -0.41339503380E+02  0.50886684870E+02 -0.68548874053E+02  0.94854400903E+02  0.00000000000E+00 0. -1.
         13    1    4    4    0    0  0.86780338854E+01 -0.19638046099E+02 -0.93972396935E+02  0.96393840635E+02  0.00000000000E+00 0.  1.
         21    1    1    2  503  501  0.20680698036E+02 -0.36212532644E+02  0.85526405248E+01  0.42569783318E+02  0.00000000000E+00 0.  1.
         -1    1    1    2    0  502 -0.23712790564E+02 -0.76237822374E+01 -0.33070614023E+02  0.41401497604E+02  0.00000000000E+00 0.  1.
<scales pt_clust_5="13000.00000" pt_clust_6="13000.00000" pt_clust_7="13000.00000" pt_clust_8="13000.00000" pt_clust_9="41.32979" pt_clust_10="24.90820"></scales>
<clustering>
<clus scale="   24.908">  2 10  1 -1</clus>
<clus scale="   41.330">  1  9  2 -1</clus>
<clus scale="   90.108">  7  8 -1 -1</clus>
<clus scale="   90.292">  5  6 -1 -1</clus>
<clus scale="  105.493">  2  7  1 -1</clus>
<clus scale="   24.908">  2  5  1 -1</clus>
</clustering>
</event>
<event>
10    2  0.3984345E-006  0.1155100E+03  0.7546771E-02  0.1252229E+00
         21   -1    0    0  501  502  0.00000000000E+00  0.00000000000E+00  0.51854891596E+03  0.51854891596E+03  0.00000000000E+00 0. -1.
          1   -1    0    0  503    0 -0.00000000000E+00 -0.00000000000E+00 -0.11857466962E+03  0.11857466962E+03  0.00000000000E+00 0. -1.
         23    2    1    2    0    0 -0.18840000861E+02  0.63946876665E+02 -0.19786537702E+02  0.12138365984E+03  0.99490387144E+02 0.  0.
         23    2    1    2    0    0  0.15362950989E+02 -0.36257169562E+02  0.10285249753E+03  0.14572305380E+03  0.95425203960E+02 0.  0.
        -11    1    3    3    0    0 -0.69741342748E+01 -0.19991867890E+02 -0.29222372556E+02  0.36086845088E+02  0.00000000000E+00 0.  1.
         11    1    3    3    0    0 -0.11865866586E+02  0.83938744555E+02  0.94358348539E+01  0.85296814751E+02  0.00000000000E+00 0. -1.
        -13    1    4    4    0    0  0.54342405290E+02 -0.16095114627E+02  0.73969684891E+02  0.93186179288E+02  0.00000000000E+00 0. -1.
         13    1    4    4    0    0 -0.38979454301E+02 -0.20162054936E+02  0.28882812644E+02  0.52536874508E+02  0.00000000000E+00 0.  1.
         21    1    1    2  503  502  0.78124966516E+02 -0.28706534108E+02  0.60327301352E+02  0.10279571383E+03  0.00000000000E+00 0.  1.
          1    1    1    2  501    0 -0.74647916643E+02  0.10168270053E+01  0.25658098516E+03  0.26722115811E+03  0.00000000000E+00 0. -1.
<scales pt_clust_5="13000.00000" pt_clust_6="13000.00000" pt_clust_7="13000.00000" pt_clust_8="13000.00000" pt_clust_9="61.36136" pt_clust_10="74.65484"></scales>
<clustering>
<clus scale="   74.655">  1 10  2 -1</clus>
<clus scale="   61.361">  1  9  2 -1</clus>
<clus scale="   95.425">  7  8 -1 -1</clus>
<clus scale="   99.490">  5  6 -1 -1</clus>
<clus scale="  112.028">  1  7  2 -1</clus>
<clus scale="   74.655">  1  5  2 -1</clus>
</clustering>
</event>
<event>
10    2  0.3984345E-006  0.1900411E+03  0.7546771E-02  0.1186325E+00
         21   -1    0    0  501  502  0.00000000000E+00  0.00000000000E+00  0.17839080888E+03  0.17839080888E+03  0.00000000000E+00 0.  1.
          2   -1    0    0  503    0 -0.00000000000E+00 -0.00000000000E+00 -0.67156355346E+03  0.67156355346E+03  0.00000000000E+00 0. -1.
         23    2    1    2    0    0 -0.34834297227E+02 -0.16462245289E+03 -0.27171485347E+03  0.33207236900E+03  0.90161612661E+02 0.  0.
         23    2    1    2    0    0 -0.29728857290E+02 -0.73517952802E+02  0.27706917918E+02  0.12386686151E+03  0.91030938364E+02 0.  0.
        -13    1    3    3    0    0  0.24765219912E+01 -0.11937109958E+03 -0.11939499714E+03  0.16885128936E+03  0.00000000000E+00 0.  1.
         13    1    3    3    0    0 -0.37310819218E+02 -0.45251353312E+02 -0.15231985632E+03  0.16322107964E+03  0.00000000000E+00 0. -1.
        -13    1    4    4    0    0  0.29059842314E+02 -0.85921059541E+01 -0.43164079023E+01  0.30609313896E+02  0.00000000000E+00 0. -1.
         13    1    4    4    0    0 -0.58788699604E+02 -0.64925846848E+02  0.32023325820E+02  0.93257547612E+02  0.00000000000E+00 0.  1.
         21    1    1    2  503  502  0.75475983939E+02  0.15116884989E+03 -0.25529881298E+03  0.30614723458E+03  0.00000000000E+00 0. -1.
          2    1    1    2  501    0 -0.10912829421E+02  0.86971555801E+02  0.61340039511E+01  0.87867897260E+02  0.00000000000E+00 0. -1.
<scales pt_clust_5="13000.00000" pt_clust_6="13000.00000" pt_clust_7="13000.00000" pt_clust_8="13000.00000" pt_clust_9="167.29169" pt_clust_10="87.65353"></scales>
<clustering>
<clus scale="   87.654">  1 10  2 -1</clus>
<clus scale="   90.162">  5  6 -1 -1</clus>
<clus scale="   91.031">  7  8 -1 -1</clus>
<clus scale="  100.646">  1  7  2 -1</clus>
<clus scale="  167.292">  2  9  1 -1</clus>
<clus scale="   87.654">  1  5  2 -1</clus>
</clustering>
</event>
<event>
10    2  0.3984345E-006  0.1394757E+03  0.7546771E-02  0.1215568E+00
         -3   -1    0    0    0  501 -0.00000000000E+00  0.00000000000E+00  0.24617922100E+03  0.24617922100E+03  0.00000000000E+00 0.  1.
         21   -1    0    0  503  502  0.00000000000E+00 -0.00000000000E+00 -0.18605152059E+03  0.18605152059E+03  0.00000000000E+00 0. -1.
         23    2    1    2    0    0 -0.75118624897E+02 -0.11561509279E+03  0.89183655327E+02  0.18813493722E+03  0.91822506709E+02 0.  0.
         23    2    1    2    0    0  0.35752914412E+02  0.52509320772E+02  0.20237212980E+02  0.11873657613E+03  0.98251361647E+02 0.  0.
        -11    1    3    3    0    0  0.61776877592E+01 -0.36572980823E+02 -0.89756556567E+01  0.38161618765E+02  0.00000000000E+00 0. -1.
         11    1    3    3    0    0 -0.81296312656E+02 -0.79042111965E+02  0.98159310983E+02  0.14997331845E+03  0.00000000000E+00 0.  1.
        -11    1    4    4    0    0 -0.10204529167E+02  0.23992077215E+02  0.50446533422E+02  0.56785604856E+02  0.00000000000E+00 0.  1.
         11    1    4    4    0    0  0.45957443580E+02  0.28517243556E+02 -0.30209320442E+02  0.61950971276E+02  0.00000000000E+00 0. -1.
         21    1    1    2  503  501  0.33513130407E+02  0.93009194587E+01  0.17870876700E+02  0.39102496679E+02  0.00000000000E+00 0. -1.
         -3    1    1    2    0  502  0.58525800771E+01  0.53804852557E+02 -0.67164044602E+02  0.86256731561E+02  0.00000000000E+00 0.  1.
<scales pt_clust_5="13000.00000" pt_clust_6="13000.00000" pt_clust_7="13000.00000" pt_clust_8="13000.00000" pt_clust_9="34.77984" pt_clust_10="54.70497"></scales>
<clustering>
<clus scale="   34.780">  1  9  2 -1</clus>
<clus scale="   54.705">  2 10  1 -1</clus>
<clus scale="   91.823">  5  6 -1 -1</clus>
<clus scale="   98.251">  7  8 -1 -1</clus>
<clus scale="  135.024">  1  5  2 -1</clus>
<clus scale="   54.705">  2  5  1 -1</clus>
</clustering>
</event>
<event>
10    2  0.3984345E-006  0.1662374E+03  0.7546771E-02  0.1182134E+00
          2   -1    0    0  503    0 -0.00000000000E+00  0.00000000000E+00  0.11003344713E+04  0.11003344713E+04  0.00000000000E+00 0. -1.
         21   -1    0    0  501  502  0.00000000000E+00 -0.00000000000E+00 -0.44109517322E+02  0.44109517322E+02  0.00000000000E+00 0. -1.
         23    2    1    2    0    0  0.12734141112E+03 -0.23334907138E+02  0.46825592523E+03  0.49463938653E+03  0.92973965769E+02 0.  0.
         23    2    1    2    0    0 -0.15533931707E+03 -0.14001879816E+02  0.37639617488E+03  0.41745648725E+03  0.90936693486E+02 0.  0.
        -11    1    3    3    0    0  0.12968843493E+03 -0.44572285334E+02  0.42114489994E+03  0.44290947779E+03  0.00000000000E+00 0. -1.
         11    1    3    3    0    0 -0.23470238095E+01  0.21237378195E+02  0.47111025294E+02  0.51729908734E+02  0.00000000000E+00 0.  1.
        -11    1    4    4    0    0 -0.14866945195E+03 -0.35952057416E+02  0.28758792102E+03  0.32573297146E+03  0.00000000000E+00 0. -1.
         11    1    4    4    0    0 -0.66698651178E+01  0.21950177600E+02  0.88808253857E+02  0.91723515799E+02  0.00000000000E+00 0.  1.
         21    1    1    2  503  502 -0.32855882331E+01  0.28937182513E+02  0.19264064304E+03  0.19482959983E+03  0.00000000000E+00 0. -1.
          2    1    1    2  501    0  0.31283494186E+02  0.83996044415E+01  0.18932210881E+02  0.37518515057E+02  0.00000000000E+00 0. -1.
<scales pt_clust_5="13000.00000" pt_clust_6="13000.00000" pt_clust_7="13000.00000" pt_clust_8="13000.00000" pt_clust_9="29.12311" pt_clust_10="32.53870"></scales>
<clustering>
<clus scale="   29.123">  1  9  2 -1</clus>
<clus scale="   32.539">  2 10  1 -1</clus>
<clus scale="   90.937">  7  8 -1 -1</clus>
<clus scale="   92.974">  5  6 -1 -1</clus>
<clus scale="  165.107">  2  7  1 -1</clus>
<clus scale="   32.539">  2  5  1 -1</clus>
</clustering>
</event>
<event>
10    2  0.3984345E-006  0.1306702E+03  0.7546771E-02  0.1227550E+00
         21   -1    0    0  501  502  0.00000000000E+00  0.00000000000E+00  0.17501334470E+03  0.17501334470E+03  0.00000000000E+00 0.  1.
          1   -1    0    0  503    0 -0.00000000000E+00 -0.00000000000E+00 -0.10589783410E+04  0.10589783410E+04  0.00000000000E+00 0. -1.
         23    2    1    2    0    0  0.39721554799E+02 -0.11001588106E+03 -0.14980717828E+03  0.21215132975E+03  0.94258686853E+02 0.  0.
         23    2    1    2    0    0  0.44291172536E+02  0.14834400224E+03 -0.22141033497E+01  0.17917845305E+03  0.90179625287E+02 0.  0.
        -11    1    4    4    0    0 -0.70402711677E+00  0.12571101861E+03  0.13453945106E+02  0.12643086844E+03  0.00000000000E+00 0.  1.
         11    1    4    4    0    0  0.44995199653E+02  0.22632983629E+02 -0.15668048455E+02  0.52747584609E+02  0.00000000000E+00 0. -1.
        -13    1    3    3    0    0 -0.14966020458E+02 -0.20640829104E+02  0.42416309831E+01  0.25846025378E+02  0.00000000000E+00 0.  1.
         13    1    3    3    0    0  0.54687575257E+02 -0.89375051955E+02 -0.15404880927E+03  0.18630530437E+03  0.00000000000E+00 0. -1.
         21    1    1    2  503  502 -0.78671466301E+02  0.74221265633E+02 -0.72143440004E+03  0.72949680564E+03  0.00000000000E+00 0.  1.
          1    1    1    2  501    0 -0.53412610340E+01 -0.11254938682E+03 -0.10509314621E+02  0.11316509725E+03  0.00000000000E+00 0. -1.
<scales pt_clust_5="13000.00000" pt_clust_6="13000.00000" pt_clust_7="13000.00000" pt_clust_8="13000.00000" pt_clust_9="108.15727" pt_clust_10="100.77781"></scales>
<clustering>
<clus scale="   90.180">  5  6 -1 -1</clus>
<clus scale="   94.259">  7  8 -1 -1</clus>
<clus scale="  108.157">  2  9  1 -1</clus>
<clus scale="  100.778">  1 10  2 -1</clus>
<clus scale="  127.759">  1  5  2 -1</clus>
<clus scale="  100.778">  1  5  2 -1</clus>
</clustering>
</event>
<event>
10    2  0.3984345E-006  0.3377728E+03  0.7546771E-02  0.1071346E+00
         21   -1    0    0  501  502  0.00000000000E+00  0.00000000000E+00  0.27866141462E+03  0.27866141462E+03  0.00000000000E+00 0.  1.
          1   -1    0    0  503    0 -0.00000000000E+00 -0.00000000000E+00 -0.28958616878E+04  0.28958616878E+04  0.00000000000E+00 0. -1.
         23    2    1    2    0    0 -0.65996727300E+02  0.33765405490E+03 -0.13455149219E+04  0.13918852275E+04  0.92564855966E+02 0.  0.
         23    2    1    2    0    0  0.27187489898E+03 -0.49250818527E+02 -0.12322745344E+03  0.31701527227E+03  0.94721031218E+02 0.  0.
        -11    1    3    3    0    0  0.16920236466E+02  0.15687457533E+02 -0.11183761171E+03  0.11419300380E+03  0.00000000000E+00 0.  1.
         11    1    3    3    0    0 -0.82916963766E+02  0.32196659736E+03 -0.12336773102E+04  0.12776922237E+04  0.00000000000E+00 0. -1.
        -13    1    4    4    0    0  0.54609939046E+02 -0.45624030521E+02 -0.96020751738E+01  0.71805274536E+02  0.00000000000E+00 0.  1.
         13    1    4    4    0    0  0.21726495993E+03 -0.36267880064E+01 -0.11362537827E+03  0.24520999774E+03  0.00000000000E+00 0. -1.
         21    1    1    2  503  502 -0.22914076503E+03 -0.29300962007E+03 -0.12794899742E+04  0.13324619025E+04  0.00000000000E+00 0.  1.
          1    1    1    2  501    0  0.23262593357E+02  0.46063836989E+01  0.13103207638E+03  0.13316070013E+03  0.00000000000E+00 0. -1.
<scales pt_clust_5="13000.00000" pt_clust_6="13000.00000" pt_clust_7="13000.00000" pt_clust_8="13000.00000" pt_clust_9="324.84178" pt_clust_10="23.71428"></scales>
<clustering>
<clus scale="   23.714">  1 10  2 -1</clus>
<clus scale="   92.565">  5  6 -1 -1</clus>
<clus scale="   94.721">  7  8 -1 -1</clus>
<clus scale="  305.977">  1  7  2 -1</clus>
<clus scale="  324.842">  1  9  2 -1</clus>
<clus scale="   23.714">  1  5  2 -1</clus>
</clustering>
</event>
<event>
10    2  0.3984345E-006  0.1430853E+03  0.7546771E-02  0.1209349E+00
         -1   -1    0    0    0  501 -0.00000000000E+00  0.00000000000E+00  0.15659316953E+03  0.15659316953E+03  0.00000000000E+00 0.  1.
         21   -1    0    0  503  502  0.00000000000E+00 -0.00000000000E+00 -0.72386033854E+03  0.72386033854E+03  0.00000000000E+00 0.  1.
         23    2    1    2    0    0  0.16374158232E+03 -0.90292228709E+01 -0.11276667853E+03  0.22071091193E+03  0.95415670700E+02 0.  0.
         23    2    1    2    0    0 -0.73739799358E+02  0.16041902222E+02 -0.14180334701E+03  0.18657169330E+03  0.94899456687E+02 0.  0.
        -13    1    3    3    0    0  0.12690785307E+03  0.22007842497E+02 -0.42719897926E+02  0.13570165062E+03  0.00000000000E+00 0.  1.
         13    1    3    3    0    0  0.36833729252E+02 -0.31037065368E+02 -0.70046780601E+02  0.85009261318E+02  0.00000000000E+00 0. -1.
        -13    1    4    4    0    0 -0.58619496754E+00 -0.31540785406E+02 -0.55487504535E+02  0.63828112366E+02  0.00000000000E+00 0. -1.
         13    1    4    4    0    0 -0.73153604390E+02  0.47582687628E+02 -0.86315842477E+02  0.12274358093E+03  0.00000000000E+00 0.  1.
         21    1    1    2  503  501 -0.96707344468E+02 -0.93330554683E+02  0.14066225147E+02  0.13513238546E+03  0.00000000000E+00 0.  1.
         -1    1    1    2    0  502  0.67055615080E+01  0.86317875331E+02 -0.32676336862E+03  0.33803851738E+03  0.00000000000E+00 0.  1.
<scales pt_clust_5="13000.00000" pt_clust_6="13000.00000" pt_clust_7="13000.00000" pt_clust_8="13000.00000" pt_clust_9="124.69999" pt_clust_10="86.57794"></scales>
<clustering>
<clus scale="   86.578">  2 10  1 -1</clus>
<clus scale="   94.899">  7  8 -1 -1</clus>
<clus scale="   95.416">  5  6 -1 -1</clus>
<clus scale="  124.700">  1  9  2 -1</clus>
<clus scale="  142.742">  2  7  1 -1</clus>
<clus scale="   86.578">  2  5  1 -1</clus>
</clustering>
</event>
<event>
10    2  0.3984345E-006  0.2059763E+03  0.7546771E-02  0.1177348E+00
         -1   -1    0    0    0  501 -0.00000000000E+00  0.00000000000E+00  0.24427353946E+03  0.24427353946E+03  0.00000000000E+00 0.  1.
         21   -1    0    0  503  502  0.00000000000E+00 -0.00000000000E+00 -0.60346246058E+03  0.60346246058E+03  0.00000000000E+00 0.  1.
         23    2    1    2    0    0  0.22495134352E+02  0.42568442036E+02  0.14327694851E+03  0.17669035041E+03  0.91504604414E+02 0.  0.
         23    2    1    2    0    0  0.15055356306E+03 -0.10301349006E+03 -0.26251073128E+03  0.33237380456E+03  0.91007183443E+02 0.  0.
        -11    1    3    3    0    0  0.16526839365E+02  0.67083231220E+02  0.13213846586E+03  0.14911026286E+03  0.00000000000E+00 0.  1.
         11    1    3    3    0    0  0.59682949871E+01 -0.24514789184E+02  0.11138482646E+02  0.27580087553E+02  0.00000000000E+00 0. -1.
        -11    1    4    4    0    0  0.10869511622E+03 -0.71751046869E+02 -0.24465531163E+03  0.27716252006E+03  0.00000000000E+00 0.  1.
         11    1    4    4    0    0  0.41858446832E+02 -0.31262443190E+02 -0.17855419652E+02  0.55211284502E+02  0.00000000000E+00 0. -1.
         21    1    1    2  503  501 -0.58253013061E+01 -0.24653186462E+02  0.90396540339E+01  0.26896637022E+02  0.00000000000E+00 0. -1.
         -1    1    1    2    0  502 -0.16722339610E+03  0.85098234484E+02 -0.24899479238E+03  0.31177520804E+03  0.00000000000E+00 0.  1.
<scales pt_clust_5="13000.00000" pt_clust_6="13000.00000" pt_clust_7="13000.00000" pt_clust_8="13000.00000" pt_clust_9="25.33207" pt_clust_10="184.78087"></scales>
<clustering>
<clus scale="   25.332">  1  9  2 -1</clus>
<clus scale="   91.007">  7  8 -1 -1</clus>
<clus scale="   91.505">  5  6 -1 -1</clus>
<clus scale="   96.658">  1  5  2 -1</clus>
<clus scale="  184.781">  2 10  1 -1</clus>
<clus scale="  184.781">  2  5  1 -1</clus>
</clustering>
</event>
<event>
10    2  0.3984345E-006  0.1071218E+03  0.7546771E-02  0.1266125E+00
          1   -1    0    0  503    0 -0.00000000000E+00  0.00000000000E+00  0.20919375237E+03  0.20919375237E+03  0.00000000000E+00 0. -1.
         21   -1    0    0  501  502  0.00000000000E+00 -0.00000000000E+00 -0.19570360929E+03  0.19570360929E+03  0.00000000000E+00 0.  1.
         23    2    1    2    0    0 -0.66749109502E+02  0.24322676496E+02  0.45769700710E+02  0.12488500490E+03  0.91947608646E+02 0.  0.
         23    2    1    2    0    0 -0.46953328998E+01 -0.46295439370E+02 -0.53239919646E+02  0.11574161843E+03  0.91631432021E+02 0.  0.
        -11    1    3    3    0    0 -0.61319744610E+02 -0.13603706283E+02  0.57148100637E+02  0.84918062331E+02  0.00000000000E+00 0.  1.
         11    1    3    3    0    0 -0.54293648930E+01  0.37926382779E+02 -0.11378399927E+02  0.39966942574E+02  0.00000000000E+00 0. -1.
        -13    1    4    4    0    0 -0.42291194114E+02  0.88348466793E+00 -0.24959377913E+02  0.49115131991E+02  0.00000000000E+00 0. -1.
         13    1    4    4    0    0  0.37595861214E+02 -0.47178924038E+02 -0.28280541733E+02  0.66626486434E+02  0.00000000000E+00 0.  1.
         21    1    1    2  503  502  0.28010441765E+02  0.36810662466E+02  0.78227575628E+02  0.90879938972E+02  0.00000000000E+00 0. -1.
          1    1    1    2  501    0  0.43434000638E+02 -0.14837899591E+02 -0.57267213607E+02  0.73390799355E+02  0.00000000000E+00 0. -1.
<scales pt_clust_5="13000.00000" pt_clust_6="13000.00000" pt_clust_7="13000.00000" pt_clust_8="13000.00000" pt_clust_9="47.00671" pt_clust_10="45.89854"></scales>
<clustering>
<clus scale="   45.899">  2 10  1 -1</clus>
<clus scale="   47.007">  1  9  2 -1</clus>
<clus scale="   91.631">  7  8 -1 -1</clus>
<clus scale="   91.948">  5  6 -1 -1</clus>
<clus scale="  106.851">  2  7  1 -1</clus>
<clus scale="   45.899">  2  5  1 -1</clus>
</clustering>
</event>
<event>
10    2  0.3984345E-006  0.9252739E+02  0.7546771E-02  0.1297225E+00
         21   -1    0    0  501  502  0.00000000000E+00  0.00000000000E+00  0.67377732694E+02  0.67377732694E+02  0.00000000000E+00 0. -1.
          2   -1    0    0  503    0 -0.00000000000E+00 -0.00000000000E+00 -0.79593482752E+03  0.79593482752E+03  0.00000000000E+00 0. -1.
         23    2    1    2    0    0 -0.37413184162E+02  0.16650732318E+02 -0.31862158227E+03  0.33413150589E+03  0.91908418020E+02 0.  0.
         23    2    1    2    0    0 -0.30732406847E+02  0.39104709716E+02 -0.18587499567E+03  0.21295007673E+03  0.91239037753E+02 0.  0.
        -11    1    4    4    0    0 -0.38725054045E+02  0.32151101184E+01 -0.21290827297E+02  0.44308758399E+02  0.00000000000E+00 0.  1.
         11    1    4    4    0    0  0.79926471979E+01  0.35889599597E+02 -0.16458416837E+03  0.16864131833E+03  0.00000000000E+00 0. -1.
        -13    1    3    3    0    0 -0.67057500327E+02  0.19686035189E+02 -0.24300411085E+03  0.25285419954E+03  0.00000000000E+00 0. -1.
         13    1    3    3    0    0  0.29644316165E+02 -0.30353028703E+01 -0.75617471418E+02  0.81277306353E+02  0.00000000000E+00 0.  1.
         21    1    1    2  503  502  0.21705659798E+02  0.25751430302E+02 -0.21975810195E+03  0.22232385208E+03  0.00000000000E+00 0. -1.
          2    1    1    2  501    0  0.46439931210E+02 -0.81506872336E+02 -0.43024149332E+01  0.93907125518E+02  0.00000000000E+00 0. -1.
<scales pt_clust_5="13000.00000" pt_clust_6="13000.00000" pt_clust_7="13000.00000" pt_clust_8="13000.00000" pt_clust_9="33.67895" pt_clust_10="92.85447"></scales>
<clustering>
<clus scale="   33.679">  2  9  1 -1</clus>
<clus scale="   91.239">  5  6 -1 -1</clus>
<clus scale="   91.908">  7  8 -1 -1</clus>
<clus scale="   92.854">  1 10  2 -1</clus>
<clus scale="   92.854">  1  5  2 -1</clus>
<clus scale="   92.527">  1  5  2 -1</clus>
</clustering>
</event>
<event>
10    2  0.3984345E-006  0.1086776E+03  0.7546771E-02  0.1269359E+00
         21   -1    0    0  503  502  0.00000000000E+00  0.00000000000E+00  0.38229153887E+03  0.38229153887E+03  0.00000000000E+00 0.  1.
         -3   -1    0    0    0  501 -0.00000000000E+00 -0.00000000000E+00 -0.31343884897E+03  0.31343884897E+03  0.00000000000E+00 0.  1.
         23    2    1    2    0    0 -0.50068257911E+02  0.11838421052E+02 -0.10753778285E+03  0.15074946810E+03  0.92271603040E+02 0.  0.
         23    2    1    2    0    0  0.24508498084E+02 -0.71209913588E+02  0.17821865470E+03  0.22027947186E+03  0.10530735285E+03 0.  0.
        -11    1    4    4    0    0  0.16021145166E+02  0.23361718283E+02  0.74285272454E+02  0.79503136272E+02  0.00000000000E+00 0. -1.
         11    1    4    4    0    0  0.84873529173E+01 -0.94571631871E+02  0.10393338225E+03  0.14077633558E+03  0.00000000000E+00 0.  1.
        -13    1    3    3    0    0 -0.54741629258E+02 -0.26482482270E+02 -0.39472802947E+02  0.72498758704E+02  0.00000000000E+00 0. -1.
         13    1    3    3    0    0  0.46733713473E+01  0.38320903322E+02 -0.68064979903E+02  0.78250709392E+02  0.00000000000E+00 0.  1.
         21    1    1    2  503  501  0.30013303648E+02 -0.13922909906E+02 -0.15305492150E+03  0.15659008529E+03  0.00000000000E+00 0. -1.
         -3    1    1    2    0  502 -0.44535438209E+01  0.73294402443E+02  0.15122673955E+03  0.16811136260E+03  0.00000000000E+00 0.  1.
<scales pt_clust_5="13000.00000" pt_clust_6="13000.00000" pt_clust_7="13000.00000" pt_clust_8="13000.00000" pt_clust_9="33.08543" pt_clust_10="72.60955"></scales>
<clustering>
<clus scale="   33.085">  2  9  1 -1</clus>
<clus scale="   72.610">  1 10  2 -1</clus>
<clus scale="   92.272">  7  8 -1 -1</clus>
<clus scale="   96.100">  2  7  1 -1</clus>
<clus scale="  105.307">  5  6 -1 -1</clus>
<clus scale="   72.610">  1  5  2 -1</clus>
</clustering>
</event>
<event>
10    2  0.3984345E-006  0.1311569E+03  0.7546771E-02  0.1238096E+00
         21   -1    0    0  501  502  0.00000000000E+00  0.00000000000E+00  0.88409843659E+02  0.88409843659E+02  0.00000000000E+00 0. -1.
          1   -1    0    0  503    0 -0.00000000000E+00 -0.00000000000E+00 -0.55712428024E+03  0.55712428024E+03  0.00000000000E+00 0. -1.
         23    2    1    2    0    0 -0.33560911313E+02  0.16430733452E+01 -0.16915548261E+03  0.19405319237E+03  0.88960832473E+02 0.  0.
         23    2    1    2    0    0 -0.24109322899E+02 -0.68836254347E+02 -0.13586726519E+03  0.17910781575E+03  0.91104371738E+02 0.  0.
        -11    1    4    4    0    0  0.23790867182E+02 -0.63889062538E+02 -0.86603501215E+02  0.11021789372E+03  0.00000000000E+00 0.  1.
         11    1    4    4    0    0 -0.47900190081E+02 -0.49471918093E+01 -0.49263763973E+02  0.68889922030E+02  0.00000000000E+00 0. -1.
        -11    1    3    3    0    0  0.23601309766E+02  0.32936609945E+01 -0.11725459210E+02  0.26558547006E+02  0.00000000000E+00 0.  1.
         11    1    3    3    0    0 -0.57162221078E+02 -0.16505876494E+01 -0.15743002340E+03  0.16749464536E+03  0.00000000000E+00 0. -1.
         21    1    1    2  503  502 -0.33025805372E+02  0.11725541291E+02 -0.16231090068E+03  0.16605125901E+03  0.00000000000E+00 0. -1.
          1    1    1    2  501    0  0.90696039584E+02  0.55467639711E+02 -0.13807881054E+01  0.10632185677E+03  0.00000000000E+00 0. -1.
<scales pt_clust_5="13000.00000" pt_clust_6="13000.00000" pt_clust_7="13000.00000" pt_clust_8="13000.00000" pt_clust_9="35.04557" pt_clust_10="94.35112"></scales>
<clustering>
<clus scale="   35.046">  2  9  1 -1</clus>
<clus scale="   88.961">  7  8 -1 -1</clus>
<clus scale="   91.104">  5  6 -1 -1</clus>
<clus scale="  101.724">  2  7  1 -1</clus>
<clus scale="   94.351">  1 10  2 -1</clus>
<clus scale="   94.351">  1  5  2 -1</clus>
</clustering>
</event>
<event>
10    2  0.3984345E-006  0.1187337E+03  0.7546771E-02  0.1246966E+00
          2   -1    0    0  503    0 -0.00000000000E+00  0.00000000000E+00  0.66634779806E+03  0.66634779806E+03  0.00000000000E+00 0. -1.
         21   -1    0    0  501  502  0.00000000000E+00 -0.00000000000E+00 -0.52700395572E+02  0.52700395572E+02  0.00000000000E+00 0.  1.
         23    2    1    2    0    0 -0.62046391268E+02 -0.28170904861E+01  0.32683851419E+03  0.34398199054E+03  0.87421420663E+02 0.  0.
         23    2    1    2    0    0  0.70384899776E+02 -0.11981222299E+01  0.12246285432E+03  0.16899989531E+03  0.92781163574E+02 0.  0.
        -11    1    3    3    0    0 -0.65409367306E+02 -0.35280393764E+02  0.23830086443E+03  0.24962049896E+03  0.00000000000E+00 0.  1.
         11    1    3    3    0    0  0.33629760384E+01  0.32463303277E+02  0.88537649765E+02  0.94361491581E+02  0.00000000000E+00 0. -1.
        -13    1    4    4    0    0  0.57711098776E+02 -0.43479330416E+02  0.73218218980E+02  0.10286851163E+03  0.00000000000E+00 0.  1.
         13    1    4    4    0    0  0.12673801000E+02  0.42281208186E+02  0.49244635337E+02  0.66131383676E+02  0.00000000000E+00 0. -1.
         21    1    1    2  503  502 -0.25990191041E+02  0.22277900715E+02  0.17515088024E+03  0.17846463442E+03  0.00000000000E+00 0. -1.
          2    1    1    2  501    0  0.17651682532E+02 -0.18262687999E+02 -0.10804846264E+02  0.27601673354E+02  0.00000000000E+00 0. -1.
<scales pt_clust_5="13000.00000" pt_clust_6="13000.00000" pt_clust_7="13000.00000" pt_clust_8="13000.00000" pt_clust_9="32.98090" pt_clust_10="25.39897"></scales>
<clustering>
<clus scale="   25.399">  2 10  1 -1</clus>
<clus scale="   32.981">  1  9  2 -1</clus>
<clus scale="   87.421">  5  6 -1 -1</clus>
<clus scale="   92.781">  7  8 -1 -1</clus>
<clus scale="  114.594">  1  5  2 -1</clus>
<clus scale="   25.399">  2  5  1 -1</clus>
</clustering>
</event>
<event>
10    2  0.3984345E-006  0.2114355E+03  0.7546771E-02  0.1168711E+00
         21   -1    0    0  503  502  0.00000000000E+00  0.00000000000E+00  0.29048179963E+03  0.29048179963E+03  0.00000000000E+00 0. -1.
         -2   -1    0    0    0  501 -0.00000000000E+00 -0.00000000000E+00 -0.26570127279E+03  0.26570127279E+03  0.00000000000E+00 0.  1.
         23    2    1    2    0    0 -0.46856604162E+02 -0.22019058804E+02 -0.11132104268E+02  0.10497423225E+03  0.90638211514E+02 0.  0.
         23    2    1    2    0    0  0.14530462114E+03 -0.14362871151E+03  0.25469776684E+02  0.22545038227E+03  0.91850561502E+02 0.  0.
        -11    1    4    4    0    0  0.73434337762E+02 -0.11871671881E+03 -0.13024059745E+02  0.14019945585E+03  0.00000000000E+00 0. -1.
         11    1    4    4    0    0  0.71870283380E+02 -0.24911992695E+02  0.38493836429E+02  0.85250926424E+02  0.00000000000E+00 0.  1.
        -13    1    3    3    0    0  0.17574321391E+02 -0.11774053606E+02  0.23079926196E+02  0.31307636511E+02  0.00000000000E+00 0.  1.
         13    1    3    3    0    0 -0.64430925553E+02 -0.10245005198E+02 -0.34212030463E+02  0.73666595738E+02  0.00000000000E+00 0. -1.
         21    1    1    2  503  501 -0.33550096582E+02 -0.10161139915E+02 -0.11915374658E+02  0.37024774115E+02  0.00000000000E+00 0. -1.
         -2    1    1    2    0  502 -0.64897920398E+02  0.17580891023E+03  0.22358229076E+02  0.18873368378E+03  0.00000000000E+00 0.  1.
<scales pt_clust_5="13000.00000" pt_clust_6="13000.00000" pt_clust_7="13000.00000" pt_clust_8="13000.00000" pt_clust_9="35.05507" pt_clust_10="190.44274"></scales>
<clustering>
<clus scale="   35.055">  2  9  1 -1</clus>
<clus scale="   90.638">  7  8 -1 -1</clus>
<clus scale="   91.851">  5  6 -1 -1</clus>
<clus scale="  108.771">  2  7  1 -1</clus>
<clus scale="  190.443">  1 10  2 -1</clus>
<clus scale="  190.443">  1  5  2 -1</clus>
</clustering>
</event>
<event>
10    2  0.3984345E-006  0.9771181E+02  0.7546771E-02  0.1287325E+00
         21   -1    0    0  503  502  0.00000000000E+00  0.00000000000E+00  0.22416412332E+03  0.22416412332E+03  0.00000000000E+00 0.  1.
         -2   -1    0    0    0  501 -0.00000000000E+00 -0.00000000000E+00 -0.43169296106E+03  0.43169296106E+03  0.00000000000E+00 0.  1.
         23    2    1    2    0    0  0.21810274979E+02 -0.34321800926E+02 -0.25612532355E+03  0.27616468914E+03  0.94937242708E+02 0.  0.
         23    2    1    2    0    0 -0.63686384023E+01 -0.12771136891E+02 -0.11011345847E+03  0.14353088330E+03  0.90953170542E+02 0.  0.
        -11    1    3    3    0    0  0.59063306580E+02 -0.17472526809E+02 -0.17034675216E+03  0.18114022013E+03  0.00000000000E+00 0.  1.
         11    1    3    3    0    0 -0.37253031601E+02 -0.16849274117E+02 -0.85778571390E+02  0.95024469015E+02  0.00000000000E+00 0. -1.
        -11    1    4    4    0    0  0.86380524001E+01  0.29671849244E+02 -0.79817684089E+01  0.31917757029E+02  0.00000000000E+00 0.  1.
         11    1    4    4    0    0 -0.15006690802E+02 -0.42442986134E+02 -0.10213169006E+03  0.11161312627E+03  0.00000000000E+00 0. -1.
         21    1    1    2  503  501  0.17307027325E+02 -0.37653617548E+02 -0.11686418077E+02  0.43056944582E+02  0.00000000000E+00 0.  1.
         -2    1    1    2    0  502 -0.32748663902E+02  0.84746555364E+02  0.17039636235E+03  0.19310456736E+03  0.00000000000E+00 0.  1.
<scales pt_clust_5="13000.00000" pt_clust_6="13000.00000" pt_clust_7="13000.00000" pt_clust_8="13000.00000" pt_clust_9="41.44066" pt_clust_10="54.84177"></scales>
<clustering>
<clus scale="   41.441">  1  9  2 -1</clus>
<clus scale="   54.842">  1 10  2 -1</clus>
<clus scale="   90.953">  7  8 -1 -1</clus>
<clus scale="   93.846">  1  7  2 -1</clus>
<clus scale="   94.937">  5  6 -1 -1</clus>
<clus scale="   41.441">  1  5  2 -1</clus>
</clustering>
</event>
<event>
10    2  0.5695485E-006  0.1297877E+03  0.7546771E-02  0.1238705E+00
         21   -1    0    0  501  502  0.00000000000E+00  0.00000000000E+00  0.68825842588E+03  0.68825842588E+03  0.00000000000E+00 0.  1.
          2   -1    0    0  503    0 -0.00000000000E+00 -0.00000000000E+00 -0.14680911790E+03  0.14680911790E+03  0.00000000000E+00 0. -1.
         23    2    1    2    0    0 -0.29210202366E+02  0.16920464981E+01 -0.61028472751E+02  0.11755669556E+03  0.96119733879E+02 0.  0.
         23    2    1    2    0    0 -0.78323100760E+02  0.30245439601E+02  0.53960414403E+03  0.55396012298E+03  0.93004789473E+02 0.  0.
        -13    1    3    3    0    0  0.17531123016E+02 -0.17899706421E+02  0.12699439643E+02  0.28089420275E+02  0.00000000000E+00 0.  1.
         13    1    3    3    0    0 -0.46741325381E+02  0.19591752919E+02 -0.73727912394E+02  0.89467275284E+02  0.00000000000E+00 0. -1.
        -13    1    4    4    0    0  0.15618018788E+02 -0.13671224498E+02  0.11640296908E+03  0.11823906335E+03  0.00000000000E+00 0. -1.
         13    1    4    4    0    0 -0.93941119548E+02  0.43916664099E+02  0.42320117495E+03  0.43572105963E+03  0.00000000000E+00 0.  1.
         21    1    1    2  503  502 -0.11084032119E+02  0.18705140847E+02  0.57436539824E+01  0.22488388630E+02  0.00000000000E+00 0.  1.
          2    1    1    2  501    0  0.11861733524E+03 -0.50642626946E+02  0.57129982718E+02  0.14106233661E+03  0.00000000000E+00 0. -1.
<scales pt_clust_5="13000.00000" pt_clust_6="13000.00000" pt_clust_7="13000.00000" pt_clust_8="13000.00000" pt_clust_9="21.74254" pt_clust_10="90.52597"></scales>
<clustering>
<clus scale="   21.743">  2  9  1 -1</clus>
<clus scale="   93.005">  7  8 -1 -1</clus>
<clus scale="   96.120">  5  6 -1 -1</clus>
<clus scale="  103.684">  2  5  1 -1</clus>
<clus scale="   90.526">  1 10  2 -1</clus>
<clus scale="   90.526">  1  5  2 -1</clus>
</clustering>
</event>
<event>
10    2  0.3984345E-006  0.1239140E+03  0.7546771E-02  0.1237237E+00
         21   -1    0    0  501  502  0.00000000000E+00  0.00000000000E+00  0.65974287216E+02  0.65974287216E+02  0.00000000000E+00 0.  1.
          1   -1    0    0  503    0 -0.00000000000E+00 -0.00000000000E+00 -0.46927170534E+03  0.46927170534E+03  0.00000000000E+00 0. -1.
         23    2    1    2    0    0  0.22550369954E+02  0.10570847243E+03 -0.19358268645E+03  0.24034484499E+03  0.92782475113E+02 0.  0.
         23    2    1    2    0    0 -0.71815552810E+01 -0.58569591094E+02 -0.11963597961E+03  0.16160878873E+03  0.91228620733E+02 0.  0.
        -11    1    4    4    0    0 -0.18584158907E+01  0.24897633062E+02 -0.29496868124E+02  0.38644677135E+02  0.00000000000E+00 0.  1.
         11    1    4    4    0    0 -0.53231393903E+01 -0.83467224156E+02 -0.90139111484E+02  0.12296411160E+03  0.00000000000E+00 0. -1.
        -11    1    3    3    0    0  0.53514364738E+02  0.68299648135E+02 -0.85314210760E+02  0.12168460760E+03  0.00000000000E+00 0.  1.
         11    1    3    3    0    0 -0.30963994784E+02  0.37408824300E+02 -0.10826847569E+03  0.11866023739E+03  0.00000000000E+00 0. -1.
         21    1    1    2  503  502  0.35157099407E+01 -0.19833100249E+02 -0.97260752700E+02  0.99324549320E+02  0.00000000000E+00 0.  1.
          1    1    1    2  501    0 -0.18884524614E+02 -0.27305781092E+02  0.71820006298E+01  0.33967809526E+02  0.00000000000E+00 0. -1.
<scales pt_clust_5="13000.00000" pt_clust_6="13000.00000" pt_clust_7="13000.00000" pt_clust_8="13000.00000" pt_clust_9="20.14230" pt_clust_10="33.72044"></scales>
<clustering>
<clus scale="   20.142">  2  9  1 -1</clus>
<clus scale="   33.720">  1 10  2 -1</clus>
<clus scale="   91.229">  5  6 -1 -1</clus>
<clus scale="   92.782">  7  8 -1 -1</clus>
<clus scale="  122.755">  1  5  2 -1</clus>
<clus scale="   33.720">  1  5  2 -1</clus>
</clustering>
</event>
<event>
10    2  0.3984345E-006  0.1659919E+03  0.7546771E-02  0.1194296E+00
         21   -1    0    0  503  502  0.00000000000E+00  0.00000000000E+00  0.14282758612E+03  0.14282758612E+03  0.00000000000E+00 0. -1.
          2   -1    0    0  502    0 -0.00000000000E+00 -0.00000000000E+00 -0.76281129735E+03  0.76281129735E+03  0.00000000000E+00 0. -1.
         23    2    1    2    0    0 -0.30623651347E+01  0.86455526583E+02 -0.35265961871E+01  0.12670671403E+03  0.92510639079E+02 0.  0.
         23    2    1    2    0    0 -0.13569521957E+03 -0.68836537354E+02 -0.60097599409E+03  0.62663650530E+03  0.91375613914E+02 0.  0.
        -13    1    3    3    0    0  0.72740822776E+01  0.46039024504E+02  0.43561261888E+02  0.63797238087E+02  0.00000000000E+00 0. -1.
         13    1    3    3    0    0 -0.10336447412E+02  0.40416502079E+02 -0.47087858075E+02  0.62909475944E+02  0.00000000000E+00 0.  1.
        -13    1    4    4    0    0 -0.73952964623E+02 -0.80219734379E+02 -0.45179490147E+03  0.46478261559E+03  0.00000000000E+00 0. -1.
         13    1    4    4    0    0 -0.61742254942E+02  0.11383197025E+02 -0.14918109262E+03  0.16185388971E+03  0.00000000000E+00 0.  1.
         21    1    1    2  503  501  0.34627046867E+02 -0.26690333161E+02 -0.19096347033E+02  0.47708245922E+02  0.00000000000E+00 0. -1.
          2    1    1    2  501    0  0.10413053783E+03  0.90713439319E+01  0.36152260795E+01  0.10458741822E+03  0.00000000000E+00 0. -1.
<scales pt_clust_5="13000.00000" pt_clust_6="13000.00000" pt_clust_7="13000.00000" pt_clust_8="13000.00000" pt_clust_9="37.65664" pt_clust_10="150.31305"></scales>
<clustering>
<clus scale="   37.657">  9 10 -1 -1</clus>
<clus scale="   91.376">  7  8 -1 -1</clus>
<clus scale="   92.511">  5  6 -1 -1</clus>
<clus scale="  126.658">  2  5  1 -1</clus>
<clus scale="  150.313">  1  9  2 -1</clus>
<clus scale="  150.313">  1  5  2 -1</clus>
</clustering>
</event>
<event>
10    2  0.3984345E-006  0.2449775E+03  0.7546771E-02  0.1116532E+00
         21   -1    0    0  503  502  0.00000000000E+00  0.00000000000E+00  0.11471382180E+03  0.11471382180E+03  0.00000000000E+00 0.  1.
         -2   -1    0    0    0  501 -0.00000000000E+00 -0.00000000000E+00 -0.10255375768E+04  0.10255375768E+04  0.00000000000E+00 0. -1.
         23    2    1    2    0    0  0.19853127650E+03 -0.13088368700E+03 -0.64219273727E+03  0.69093533145E+03  0.91841783379E+02 0.  0.
         23    2    1    2    0    0 -0.15291068197E+03  0.15495787439E+03 -0.15848802381E+03  0.28457252482E+03  0.92029607697E+02 0.  0.
        -11    1    4    4    0    0  0.66984830567E+01  0.36849598539E+02 -0.19694948812E+02  0.42316115092E+02  0.00000000000E+00 0. -1.
         11    1    4    4    0    0 -0.15960916503E+03  0.11810827585E+03 -0.13879307500E+03  0.24225640972E+03  0.00000000000E+00 0.  1.
        -11    1    3    3    0    0  0.22182495568E+01 -0.37171258423E+02 -0.85990002785E+02  0.93706476099E+02  0.00000000000E+00 0.  1.
         11    1    3    3    0    0  0.19631302694E+03 -0.93712428575E+02 -0.55620273448E+03  0.59722885535E+03  0.00000000000E+00 0. -1.
         21    1    1    2  503  501 -0.22596183318E+02 -0.14244711465E+02 -0.13004616089E+03  0.13276107587E+03  0.00000000000E+00 0.  1.
         -2    1    1    2    0  502 -0.23024411212E+02 -0.98294759236E+01  0.19903166939E+02  0.31982466490E+02  0.00000000000E+00 0. -1.
<scales pt_clust_5="13000.00000" pt_clust_6="13000.00000" pt_clust_7="13000.00000" pt_clust_8="13000.00000" pt_clust_9="27.08947" pt_clust_10="25.03482"></scales>
<clustering>
<clus scale="   25.035">  1 10  2 -1</clus>
<clus scale="   27.089">  2  9  1 -1</clus>
<clus scale="   91.842">  7  8 -1 -1</clus>
<clus scale="   92.030">  5  6 -1 -1</clus>
<clus scale="  244.907">  2  7  1 -1</clus>
<clus scale="   25.035">  1  5  2 -1</clus>
</clustering>
</event>
<event>
10    2  0.3984345E-006  0.1424557E+03  0.7546771E-02  0.1211008E+00
         21   -1    0    0  501  502  0.00000000000E+00  0.00000000000E+00  0.18280671141E+03  0.18280671141E+03  0.00000000000E+00 0. -1.
          3   -1    0    0  503    0 -0.00000000000E+00 -0.00000000000E+00 -0.36217439184E+03  0.36217439184E+03  0.00000000000E+00 0. -1.
         23    2    1    2    0    0  0.82827772058E+02  0.31960210536E+02 -0.18304707451E+03  0.22315677956E+03  0.91710533164E+02 0.  0.
         23    2    1    2    0    0 -0.11508797029E+03 -0.49285514587E+02 -0.73851170796E+01  0.15793065329E+03  0.95985667886E+02 0.  0.
        -11    1    4    4    0    0 -0.17696625820E+02 -0.12215971952E+02 -0.42776426155E+02  0.47877167531E+02  0.00000000000E+00 0.  1.
         11    1    4    4    0    0 -0.97391344469E+02 -0.37069542635E+02  0.35391309076E+02  0.11005348576E+03  0.00000000000E+00 0. -1.
        -11    1    3    3    0    0  0.51752384579E+02  0.57598580972E+02 -0.15735440952E+03  0.17537478734E+03  0.00000000000E+00 0. -1.
         11    1    3    3    0    0  0.31075387479E+02 -0.25638370436E+02 -0.25692664989E+02  0.47781992213E+02  0.00000000000E+00 0.  1.
         21    1    1    2  503  502  0.29437739956E+02 -0.56783752454E+02 -0.38536359441E+02  0.74672793409E+02  0.00000000000E+00 0. -1.
          3    1    1    2  501    0  0.28224582756E+01  0.74109056506E+02  0.49600870611E+02  0.89220876998E+02  0.00000000000E+00 0. -1.
<scales pt_clust_5="13000.00000" pt_clust_6="13000.00000" pt_clust_7="13000.00000" pt_clust_8="13000.00000" pt_clust_9="63.96073" pt_clust_10="70.58650"></scales>
<clustering>
<clus scale="   63.961">  2  9  1 -1</clus>
<clus scale="   70.586">  1 10  2 -1</clus>
<clus scale="   91.711">  7  8 -1 -1</clus>
<clus scale="   95.986">  5  6 -1 -1</clus>
<clus scale="  139.611">  2  7  1 -1</clus>
<clus scale="   70.586">  1  5  2 -1</clus>
</clustering>
</event>
<event>
10    2  0.3984345E-006  0.1294811E+03  0.7546771E-02  0.1229576E+00
         21   -1    0    0  503  502  0.00000000000E+00  0.00000000000E+00  0.13883074243E+03  0.13883074243E+03  0.00000000000E+00 0.  1.
         -4   -1    0    0    0  501 -0.00000000000E+00 -0.00000000000E+00 -0.52293024342E+03  0.52293024342E+03  0.00000000000E+00 0.  1.
         23    2    1    2    0    0 -0.21157359979E+02 -0.83244067167E+02 -0.28406159704E+03  0.30993258791E+03  0.89386853260E+02 0.  0.
         23    2    1    2    0    0  0.89016378032E+02  0.87547620495E+02 -0.20168533393E+02  0.15778164629E+03  0.94338628110E+02 0.  0.
        -11    1    4    4    0    0  0.58436506312E+02  0.18245769155E+02 -0.47255277066E+02  0.77335597060E+02  0.00000000000E+00 0. -1.
         11    1    4    4    0    0  0.30579871720E+02  0.69301851340E+02  0.27086743673E+02  0.80446049228E+02  0.00000000000E+00 0.  1.
        -13    1    3    3    0    0  0.21617561578E+02 -0.77878912306E+02 -0.18193010267E+03  0.19907537821E+03  0.00000000000E+00 0. -1.
         13    1    3    3    0    0 -0.42774921558E+02 -0.53651548610E+01 -0.10213149437E+03  0.11085720970E+03  0.00000000000E+00 0.  1.
         21    1    1    2  503  501 -0.23644269931E+02  0.14516493985E+02 -0.12504883605E+03  0.12808977905E+03  0.00000000000E+00 0.  1.
         -4    1    1    2    0  502 -0.44214748122E+02 -0.18820047313E+02  0.45179465499E+02  0.65956972604E+02  0.00000000000E+00 0.  1.
<scales pt_clust_5="13000.00000" pt_clust_6="13000.00000" pt_clust_7="13000.00000" pt_clust_8="13000.00000" pt_clust_9="27.74491" pt_clust_10="48.47832"></scales>
<clustering>
<clus scale="   27.745">  2  9  1 -1</clus>
<clus scale="   48.478">  1 10  2 -1</clus>
<clus scale="   89.387">  7  8 -1 -1</clus>
<clus scale="   94.339">  5  6 -1 -1</clus>
<clus scale="  125.919">  2  7  1 -1</clus>
<clus scale="   48.478">  1  5  2 -1</clus>
</clustering>
</event>
<event>
10    2  0.3984345E-006  0.1610397E+03  0.7546771E-02  0.1187588E+00
         21   -1    0    0  501  502  0.00000000000E+00  0.00000000000E+00  0.36092836026E+03  0.36092836026E+03  0.00000000000E+00 0. -1.
          2   -1    0    0  503    0 -0.00000000000E+00 -0.00000000000E+00 -0.54185914708E+03  0.54185914708E+03  0.00000000000E+00 0. -1.
         23    2    1    2    0    0  0.96758534343E+02 -0.49812833310E+02 -0.44591843029E+03  0.46848328590E+03  0.93753988563E+02 0.  0.
         23    2    1    2    0    0 -0.12690738444E+03  0.90456099515E+02  0.54316516751E+02  0.18962831497E+03  0.93385350453E+02 0.  0.
        -11    1    3    3    0    0  0.85673638206E+02  0.44911418375E+01 -0.22738081817E+03  0.24302711600E+03  0.00000000000E+00 0. -1.
         11    1    3    3    0    0  0.11084896137E+02 -0.54303975147E+02 -0.21853761211E+03  0.22545616990E+03  0.00000000000E+00 0.  1.
        -11    1    4    4    0    0 -0.11884414223E+03  0.69129251162E+02  0.76903877490E+02  0.15753409118E+03  0.00000000000E+00 0.  1.
         11    1    4    4    0    0 -0.80632422106E+01  0.21326848354E+02 -0.22587360739E+02  0.32094223792E+02  0.00000000000E+00 0. -1.
         21    1    1    2  503  502  0.13355426754E+02 -0.18964466780E+02 -0.78144100220E+01  0.24476180830E+02  0.00000000000E+00 0. -1.
          2    1    1    2  501    0  0.16793423347E+02 -0.21678799425E+02  0.21848553674E+03  0.22019972565E+03  0.00000000000E+00 0. -1.
<scales pt_clust_5="13000.00000" pt_clust_6="13000.00000" pt_clust_7="13000.00000" pt_clust_8="13000.00000" pt_clust_9="23.19522" pt_clust_10="27.46020"></scales>
<clustering>
<clus scale="   23.195">  2  9  1 -1</clus>
<clus scale="   27.460">  1 10  2 -1</clus>
<clus scale="   93.385">  7  8 -1 -1</clus>
<clus scale="   93.754">  5  6 -1 -1</clus>
<clus scale="  160.825">  1  7  2 -1</clus>
<clus scale="   27.460">  1  5  2 -1</clus>
</clustering>
</event>
<event>
10    2  0.3984345E-006  0.1008270E+03  0.7546771E-02  0.1278646E+00
          2   -1    0    0  503    0 -0.00000000000E+00  0.00000000000E+00  0.59609414414E+03  0.59609414414E+03  0.00000000000E+00 0. -1.
         21   -1    0    0  501  502  0.00000000000E+00 -0.00000000000E+00 -0.20761468486E+03  0.20761468486E+03  0.00000000000E+00 0. -1.
         23    2    1    2    0    0 -0.31671180954E+02  0.58915173513E+01  0.20204746706E+03  0.22455899051E+03  0.92551540204E+02 0.  0.
         23    2    1    2    0    0 -0.12669077744E+02 -0.72410534662E+02  0.19824329928E+03  0.23087006482E+03  0.92718876496E+02 0.  0.
        -11    1    4    4    0    0 -0.46766893255E+02 -0.12324257307E+02  0.95673359190E+02  0.10720271117E+03  0.00000000000E+00 0.  1.
         11    1    4    4    0    0  0.34097815510E+02 -0.60086277355E+02  0.10256994009E+03  0.12366735365E+03  0.00000000000E+00 0. -1.
        -13    1    3    3    0    0 -0.18552082623E+02  0.44075752386E+02  0.15673631992E+03  0.16386923354E+03  0.00000000000E+00 0.  1.
         13    1    3    3    0    0 -0.13119098332E+02 -0.38184235035E+02  0.45311147137E+02  0.60689756970E+02  0.00000000000E+00 0. -1.
         21    1    1    2  503  502  0.29465773441E+02  0.40359223699E+02  0.16321083673E+03  0.17068941376E+03  0.00000000000E+00 0.  1.
          2    1    1    2  501    0  0.14874485257E+02  0.26159793612E+02 -0.17502214380E+03  0.17759035991E+03  0.00000000000E+00 0. -1.
<scales pt_clust_5="13000.00000" pt_clust_6="13000.00000" pt_clust_7="13000.00000" pt_clust_8="13000.00000" pt_clust_9="53.54347" pt_clust_10="30.09294"></scales>
<clustering>
<clus scale="   30.093">  2 10  1 -1</clus>
<clus scale="   53.543">  1  9  2 -1</clus>
<clus scale="   92.552">  7  8 -1 -1</clus>
<clus scale="   92.719">  5  6 -1 -1</clus>
<clus scale="  100.673">  1  7  2 -1</clus>
<clus scale="   30.093">  2  5  1 -1</clus>
</clustering>
</event>
<event>
10    2  0.3984345E-006  0.1762553E+03  0.7546771E-02  0.1173679E+00
          2   -1    0    0  503    0 -0.00000000000E+00  0.00000000000E+00  0.19527813819E+03  0.19527813819E+03  0.00000000000E+00 0. -1.
         21   -1    0    0  501  502  0.00000000000E+00 -0.00000000000E+00 -0.82766648469E+03  0.82766648469E+03  0.00000000000E+00 0.  1.
         23    2    1    2    0    0 -0.15135077046E+03  0.69933846673E+02  0.11242629736E+03  0.22091440851E+03  0.91464227535E+02 0.  0.
         23    2    1    2    0    0  0.14481200831E+03 -0.60798658905E+02 -0.54398115788E+03  0.57611837033E+03  0.10644191760E+03 0.  0.
        -11    1    4    4    0    0  0.67498790306E+02 -0.10670028069E+02 -0.39557320660E+03  0.40143255719E+03  0.00000000000E+00 0.  1.
         11    1    4    4    0    0  0.77313218001E+02 -0.50128630836E+02 -0.14840795128E+03  0.17468581313E+03  0.00000000000E+00 0. -1.
        -11    1    3    3    0    0 -0.10130355891E+03  0.85239139125E+02  0.55412847530E+02  0.14352249147E+03  0.00000000000E+00 0. -1.
         11    1    3    3    0    0 -0.50047211543E+02 -0.15305292451E+02  0.57013449832E+02  0.77391917033E+02  0.00000000000E+00 0.  1.
         21    1    1    2  503  502  0.35600300338E+02  0.49426229601E+00 -0.16834221745E+02  0.39382949371E+02  0.00000000000E+00 0.  1.
          2    1    1    2  501    0 -0.29061538187E+02 -0.96294500642E+01 -0.18399926423E+03  0.18652889468E+03  0.00000000000E+00 0. -1.
<scales pt_clust_5="13000.00000" pt_clust_6="13000.00000" pt_clust_7="13000.00000" pt_clust_8="13000.00000" pt_clust_9="34.32878" pt_clust_10="30.61534"></scales>
<clustering>
<clus scale="   30.615">  2 10  1 -1</clus>
<clus scale="   34.329">  1  9  2 -1</clus>
<clus scale="   91.464">  7  8 -1 -1</clus>
<clus scale="  106.442">  5  6 -1 -1</clus>
<clus scale="  167.636">  1  7  2 -1</clus>
<clus scale="   30.615">  2  5  1 -1</clus>
</clustering>
</event>
<event>
10    2  0.3984345E-006  0.1683981E+03  0.7546771E-02  0.1200771E+00
          3   -1    0    0  503    0 -0.00000000000E+00  0.00000000000E+00  0.12957628778E+04  0.12957628778E+04  0.00000000000E+00 0. -1.
         21   -1    0    0  501  502  0.00000000000E+00 -0.00000000000E+00 -0.63790007994E+02  0.63790007994E+02  0.00000000000E+00 0. -1.
         23    2    1    2    0    0  0.70505207141E+02 -0.60931442664E+02  0.53816361148E+03  0.55334444110E+03  0.88805252265E+02 0.  0.
         23    2    1    2    0    0  0.69631340032E+01  0.14674288608E+03  0.39982791996E+03  0.43669283032E+03  0.96209680507E+02 0.  0.
        -11    1    4    4    0    0 -0.16108238543E+02  0.64127265080E+02  0.71675385833E+02  0.97514831743E+02  0.00000000000E+00 0.  1.
         11    1    4    4    0    0  0.23071372547E+02  0.82615621001E+02  0.32815253413E+03  0.33917799858E+03  0.00000000000E+00 0. -1.
        -13    1    3    3    0    0  0.45719551105E+02 -0.82497875198E+02  0.43363103069E+03  0.44377026437E+03  0.00000000000E+00 0.  1.
         13    1    3    3    0    0  0.24785656036E+02  0.21566432534E+02  0.10453258080E+03  0.10957417673E+03  0.00000000000E+00 0. -1.
         21    1    1    2  503  502 -0.57421664972E+02  0.47926262481E+02  0.17134475520E+03  0.18695774757E+03  0.00000000000E+00 0.  1.
          3    1    1    2  501    0 -0.20046676172E+02 -0.13373770590E+03  0.12263658319E+03  0.18255786683E+03  0.00000000000E+00 0. -1.
<scales pt_clust_5="13000.00000" pt_clust_6="13000.00000" pt_clust_7="13000.00000" pt_clust_8="13000.00000" pt_clust_9="74.79421" pt_clust_10="138.20854"></scales>
<clustering>
<clus scale="   74.794">  1  9  2 -1</clus>
<clus scale="   88.805">  7  8 -1 -1</clus>
<clus scale="   96.210">  5  6 -1 -1</clus>
<clus scale="  105.329">  1  7  2 -1</clus>
<clus scale="  138.209">  2 10  1 -1</clus>
<clus scale="  138.209">  2  5  1 -1</clus>
</clustering>
</event>
<event>
10    2  0.3984345E-006  0.1441708E+03  0.7546771E-02  0.1210667E+00
         -3   -1    0    0    0  501 -0.00000000000E+00  0.00000000000E+00  0.11109436959E+03  0.11109436959E+03  0.00000000000E+00 0.  1.
         21   -1    0    0  503  502  0.00000000000E+00 -0.00000000000E+00 -0.52955569087E+03  0.52955569087E+03  0.00000000000E+00 0. -1.
         23    2    1    2    0    0 -0.77255168397E+02  0.73129019385E+02 -0.10451680960E+03  0.17388363153E+03  0.89417779590E+02 0.  0.
         23    2    1    2    0    0  0.69234741382E+02 -0.53492458034E+02 -0.34641308582E+03  0.37152538830E+03  0.10185379543E+03 0.  0.
        -11    1    3    3    0    0  0.29834680908E+01  0.28529513764E+02 -0.70276429701E+02  0.75905275238E+02  0.00000000000E+00 0. -1.
         11    1    3    3    0    0 -0.80238636488E+02  0.44599505621E+02 -0.34240379898E+02  0.97978356297E+02  0.00000000000E+00 0.  1.
        -11    1    4    4    0    0 -0.26345534643E+02 -0.14770262435E+02 -0.98251880686E+02  0.10278949317E+03  0.00000000000E+00 0.  1.
         11    1    4    4    0    0  0.95580276025E+02 -0.38722195599E+02 -0.24816120514E+03  0.26873589513E+03  0.00000000000E+00 0. -1.
         21    1    1    2  503  501  0.17067782735E+02  0.22669302268E+02  0.42242297287E+02  0.50888290921E+02  0.00000000000E+00 0.  1.
         -3    1    1    2    0  502 -0.90473557200E+01 -0.42305863619E+02 -0.97737231404E+01  0.44352749702E+02  0.00000000000E+00 0.  1.
<scales pt_clust_5="13000.00000" pt_clust_6="13000.00000" pt_clust_7="13000.00000" pt_clust_8="13000.00000" pt_clust_9="28.37616" pt_clust_10="36.50724"></scales>
<clustering>
<clus scale="   28.376">  1  9  2 -1</clus>
<clus scale="   36.507">  2 10  1 -1</clus>
<clus scale="   89.418">  5  6 -1 -1</clus>
<clus scale="  101.854">  7  8 -1 -1</clus>
<clus scale="  135.671">  1  5  2 -1</clus>
<clus scale="   36.507">  2  5  1 -1</clus>
</clustering>
</event>
<event>
10    2  0.3984345E-006  0.2070771E+03  0.7546771E-02  0.1146507E+00
          1   -1    0    0  503    0 -0.00000000000E+00  0.00000000000E+00  0.57469659212E+03  0.57469659212E+03  0.00000000000E+00 0. -1.
         21   -1    0    0  501  502  0.00000000000E+00 -0.00000000000E+00 -0.35426693122E+03  0.35426693122E+03  0.00000000000E+00 0. -1.
         23    2    1    2    0    0  0.33532384530E+02 -0.15729839663E+03  0.22270320720E+03  0.28551268686E+03  0.77804687957E+02 0.  0.
         23    2    1    2    0    0 -0.11252694731E+03  0.20480692883E+03 -0.79236635518E+02  0.26825600784E+03  0.10523615998E+03 0.  0.
        -11    1    3    3    0    0  0.51043926634E+02 -0.80559478445E+02  0.89480859348E+02  0.13077513603E+03  0.00000000000E+00 0.  1.
         11    1    3    3    0    0 -0.17511542104E+02 -0.76738918182E+02  0.13322234786E+03  0.15473755084E+03  0.00000000000E+00 0. -1.
        -13    1    4    4    0    0 -0.51372211900E+02  0.17244499325E+02 -0.39386919879E+02  0.66991091721E+02  0.00000000000E+00 0.  1.
         13    1    4    4    0    0 -0.61154735411E+02  0.18756242950E+03 -0.39849715639E+02  0.20126491612E+03  0.00000000000E+00 0. -1.
         21    1    1    2  503  502 -0.10516492708E+03 -0.24714189322E+02  0.14212494759E+03  0.17852157788E+03  0.00000000000E+00 0. -1.
          1    1    1    2  501    0  0.18415948986E+03 -0.22794342880E+02 -0.65161858387E+02  0.19667325075E+03  0.00000000000E+00 0. -1.
<scales pt_clust_5="13000.00000" pt_clust_6="13000.00000" pt_clust_7="13000.00000" pt_clust_8="13000.00000" pt_clust_9="108.02987" pt_clust_10="169.58876"></scales>
<clustering>
<clus scale="   77.805">  5  6 -1 -1</clus>
<clus scale="  105.236">  7  8 -1 -1</clus>
<clus scale="  108.030">  1  9  2 -1</clus>
<clus scale="  169.589">  2 10  1 -1</clus>
<clus scale="  194.576">  1  5  2 -1</clus>
<clus scale="  169.589">  2  5  1 -1</clus>
</clustering>
</event>
<event>
10    2  0.3984345E-006  0.2242587E+03  0.7546771E-02  0.1130827E+00
          1   -1    0    0  503    0 -0.00000000000E+00  0.00000000000E+00  0.92965006004E+03  0.92965006004E+03  0.00000000000E+00 0. -1.
         21   -1    0    0  501  502  0.00000000000E+00 -0.00000000000E+00 -0.11766850929E+03  0.11766850929E+03  0.00000000000E+00 0. -1.
         23    2    1    2    0    0 -0.16638533520E+03  0.10544609083E+03  0.43514724904E+03  0.48576773676E+03  0.88398008387E+02 0.  0.
         23    2    1    2    0    0  0.19635157852E+03 -0.17853640465E+03  0.18508990620E+03  0.33570477750E+03  0.89499911094E+02 0.  0.
        -13    1    4    4    0    0  0.20285482313E+03 -0.15478075982E+03  0.17290272636E+03  0.30822478106E+03  0.00000000000E+00 0. -1.
         13    1    4    4    0    0 -0.65032446100E+01 -0.23755644829E+02  0.12187179839E+02  0.27479996436E+02  0.00000000000E+00 0.  1.
        -13    1    3    3    0    0 -0.31603251562E+02  0.60462542706E+02  0.19668981464E+03  0.20818589712E+03  0.00000000000E+00 0. -1.
         13    1    3    3    0    0 -0.13478208364E+03  0.44983548122E+02  0.23845743440E+03  0.27758183963E+03  0.00000000000E+00 0.  1.
         21    1    1    2  503  502  0.17447837518E+02 -0.10995395992E+02  0.52570668986E+02  0.56471240510E+02  0.00000000000E+00 0.  1.
          1    1    1    2  501    0 -0.47414080838E+02  0.84085709809E+02  0.13917372652E+03  0.16937481457E+03  0.00000000000E+00 0. -1.
<scales pt_clust_5="13000.00000" pt_clust_6="13000.00000" pt_clust_7="13000.00000" pt_clust_8="13000.00000" pt_clust_9="20.62343" pt_clust_10="93.34922"></scales>
<clustering>
<clus scale="   20.623">  1  9  2 -1</clus>
<clus scale="   88.398">  7  8 -1 -1</clus>
<clus scale="   89.500">  5  6 -1 -1</clus>
<clus scale="   93.349">  2 10  1 -1</clus>
<clus scale="  223.821">  1  7  2 -1</clus>
<clus scale="   93.349">  2  5  1 -1</clus>
</clustering>
</event>
<event>
10    2  0.3984345E-006  0.1763260E+03  0.7546771E-02  0.1172084E+00
         -2   -1    0    0    0  501 -0.00000000000E+00  0.00000000000E+00  0.18768401476E+03  0.18768401476E+03  0.00000000000E+00 0.  1.
         21   -1    0    0  501  502  0.00000000000E+00 -0.00000000000E+00 -0.27848290689E+03  0.27848290689E+03  0.00000000000E+00 0.  1.
         23    2    1    2    0    0 -0.11522098865E+03  0.11381354846E+03  0.65464724579E+02  0.19702052294E+03  0.91115620261E+02 0.  0.
         23    2    1    2    0    0  0.62515716166E+02 -0.93001569781E+02 -0.14289413303E+03  0.20548536911E+03  0.96166506207E+02 0.  0.
        -11    1    3    3    0    0 -0.92554867466E+02  0.34083218895E+02  0.14433133512E+02  0.99681415745E+02  0.00000000000E+00 0.  1.
         11    1    3    3    0    0 -0.22666121185E+02  0.79730329567E+02  0.51031591067E+02  0.97339107193E+02  0.00000000000E+00 0. -1.
        -13    1    4    4    0    0  0.53769692627E+02 -0.70390915536E+02 -0.15489566224E+03  0.17843409712E+03  0.00000000000E+00 0.  1.
         13    1    4    4    0    0  0.87460235386E+01 -0.22610654245E+02  0.12001529208E+02  0.27051271993E+02  0.00000000000E+00 0. -1.
         21    1    1    2  503  502  0.24828937665E+02  0.13972546106E+01  0.17828697954E+01  0.24932049469E+02  0.00000000000E+00 0.  1.
         -2    1    1    2    0  503  0.27876334820E+02 -0.22209233292E+02 -0.15152353479E+02  0.38728980136E+02  0.00000000000E+00 0.  1.
<scales pt_clust_5="13000.00000" pt_clust_6="13000.00000" pt_clust_7="13000.00000" pt_clust_8="13000.00000" pt_clust_9="21.50795" pt_clust_10="62.24133"></scales>
<clustering>
<clus scale="   21.508">  9 10 -1 -1</clus>
<clus scale="   62.241">  2  9  1 -1</clus>
<clus scale="   91.116">  5  6 -1 -1</clus>
<clus scale="   96.167">  7  8 -1 -1</clus>
<clus scale="  173.623">  1  5  2 -1</clus>
<clus scale="   62.241">  2  5  1 -1</clus>
</clustering>
</event>
<event>
10    2  0.3984345E-006  0.1221149E+03  0.7546771E-02  0.1240405E+00
         21   -1    0    0  501  502  0.00000000000E+00  0.00000000000E+00  0.10282414683E+03  0.10282414683E+03  0.00000000000E+00 0.  1.
          2   -1    0    0  503    0 -0.00000000000E+00 -0.00000000000E+00 -0.31847015742E+03  0.31847015742E+03  0.00000000000E+00 0. -1.
         23    2    1    2    0    0  0.48094348331E+02  0.57255483139E+02 -0.17916996701E+03  0.21506040844E+03  0.92508623986E+02 0.  0.
         23    2    1    2    0    0 -0.49054691324E+02 -0.76576697246E+02 -0.65836958860E+02  0.14391510725E+03  0.90037212536E+02 0.  0.
        -11    1    3    3    0    0 -0.98810272358E+01  0.57282952570E+02 -0.66317875396E+02  0.88187481829E+02  0.00000000000E+00 0.  1.
         11    1    3    3    0    0  0.57975375567E+02 -0.27469430941E-01 -0.11285209161E+03  0.12687292662E+03  0.00000000000E+00 0. -1.
        -13    1    4    4    0    0 -0.20087809235E+02 -0.67786663357E+02 -0.83069186717E+02  0.10908272820E+03  0.00000000000E+00 0. -1.
         13    1    4    4    0    0 -0.28966882089E+02 -0.87900338893E+01  0.17232227857E+02  0.34832379055E+02  0.00000000000E+00 0.  1.
         21    1    1    2  503  502  0.21975908077E+02  0.10914961087E+02 -0.87082495683E+00  0.24552703465E+02  0.00000000000E+00 0.  1.
          2    1    1    2  501    0 -0.21015565084E+02  0.84062530207E+01  0.30231740234E+02  0.37766085092E+02  0.00000000000E+00 0. -1.
<scales pt_clust_5="13000.00000" pt_clust_6="13000.00000" pt_clust_7="13000.00000" pt_clust_8="13000.00000" pt_clust_9="22.13370" pt_clust_10="22.63447"></scales>
<clustering>
<clus scale="   22.634">  1 10  2 -1</clus>
<clus scale="   22.134">  1  9  2 -1</clus>
<clus scale="   90.037">  7  8 -1 -1</clus>
<clus scale="   92.509">  5  6 -1 -1</clus>
<clus scale="  120.254">  1  7  2 -1</clus>
<clus scale="   22.634">  1  5  2 -1</clus>
</clustering>
</event>
<event>
10    2  0.3984345E-006  0.1255720E+03  0.7546771E-02  0.1245976E+00
         21   -1    0    0  501  502  0.00000000000E+00  0.00000000000E+00  0.12508889881E+03  0.12508889881E+03  0.00000000000E+00 0. -1.
          2   -1    0    0  503    0 -0.00000000000E+00 -0.00000000000E+00 -0.40851948211E+03  0.40851948211E+03  0.00000000000E+00 0. -1.
         23    2    1    2    0    0  0.36161539021E+02  0.52572879290E+01 -0.18421482959E+03  0.20921204583E+03  0.92191543543E+02 0.  0.
         23    2    1    2    0    0 -0.12508972883E+02  0.56636794450E+02 -0.74419488985E+02  0.15298565751E+03  0.12042487357E+03 0.  0.
        -11    1    3    3    0    0  0.18392740307E+02 -0.37707170042E+02 -0.41086678669E+02  0.58721705805E+02  0.00000000000E+00 0.  1.
         11    1    3    3    0    0  0.17768798715E+02  0.42964457971E+02 -0.14312815092E+03  0.15049034003E+03  0.00000000000E+00 0. -1.
        -11    1    4    4    0    0  0.13844544620E+02 -0.26670577267E+02 -0.56200918350E+02  0.63730168138E+02  0.00000000000E+00 0.  1.
         11    1    4    4    0    0 -0.26353517503E+02  0.83307371717E+02 -0.18218570635E+02  0.89255489373E+02  0.00000000000E+00 0. -1.
         21    1    1    2  503  502  0.46309891636E+00 -0.21945057723E+02 -0.89209964987E+02  0.91870658385E+02  0.00000000000E+00 0. -1.
          2    1    1    2  501    0 -0.24115665055E+02 -0.39949024656E+02  0.64413700260E+02  0.79540019193E+02  0.00000000000E+00 0. -1.
<scales pt_clust_5="13000.00000" pt_clust_6="13000.00000" pt_clust_7="13000.00000" pt_clust_8="13000.00000" pt_clust_9="21.94994" pt_clust_10="47.10557"></scales>
<clustering>
<clus scale="   21.950">  2  9  1 -1</clus>
<clus scale="   47.106">  1 10  2 -1</clus>
<clus scale="   92.192">  5  6 -1 -1</clus>
<clus scale="   98.820">  2  5  1 -1</clus>
<clus scale="  120.425">  7  8 -1 -1</clus>
<clus scale="   47.106">  1  5  2 -1</clus>
</clustering>
</event>
<event>
10    2  0.3984345E-006  0.1086117E+03  0.7546771E-02  0.1263851E+00
          1   -1    0    0  503    0 -0.00000000000E+00  0.00000000000E+00  0.36830552617E+03  0.36830552617E+03  0.00000000000E+00 0. -1.
         21   -1    0    0  501  502  0.00000000000E+00 -0.00000000000E+00 -0.75064579748E+02  0.75064579748E+02  0.00000000000E+00 0.  1.
         23    2    1    2    0    0 -0.65581811113E+02  0.29503790355E+02  0.21204364909E+03  0.24168741050E+03  0.90988173294E+02 0.  0.
         23    2    1    2    0    0  0.38463124766E+02  0.11471878273E+02  0.33380200957E+02  0.10638364707E+03  0.92694264060E+02 0.  0.
        -11    1    3    3    0    0 -0.46982072081E+02  0.43083002815E+02  0.20894281500E+03  0.21845036088E+03  0.00000000000E+00 0. -1.
         11    1    3    3    0    0 -0.18599739032E+02 -0.13579212460E+02  0.31008340967E+01  0.23237049623E+02  0.00000000000E+00 0.  1.
        -11    1    4    4    0    0  0.39687178134E+02 -0.35964625301E+02  0.17598328283E+02  0.56375770857E+02  0.00000000000E+00 0.  1.
         11    1    4    4    0    0 -0.12240533688E+01  0.47436503575E+02  0.15781872673E+02  0.50007876211E+02  0.00000000000E+00 0. -1.
         21    1    1    2  503  502  0.16593467991E+01 -0.29476022660E+02  0.58390015578E+02  0.65429223310E+02  0.00000000000E+00 0. -1.
          1    1    1    2  501    0  0.25459339548E+02 -0.11499645968E+02 -0.10572919204E+02  0.29869825043E+02  0.00000000000E+00 0. -1.
<scales pt_clust_5="13000.00000" pt_clust_6="13000.00000" pt_clust_7="13000.00000" pt_clust_8="13000.00000" pt_clust_9="30.39297" pt_clust_10="27.93600"></scales>
<clustering>
<clus scale="   27.936">  2 10  1 -1</clus>
<clus scale="   30.393">  1  9  2 -1</clus>
<clus scale="   90.988">  5  6 -1 -1</clus>
<clus scale="   92.694">  7  8 -1 -1</clus>
<clus scale="  107.159">  1  5  2 -1</clus>
<clus scale="   27.936">  2  5  1 -1</clus>
</clustering>
</event>
<event>
10    2  0.3984345E-006  0.1185127E+03  0.7546771E-02  0.1246288E+00
          3   -1    0    0  503    0 -0.00000000000E+00  0.00000000000E+00  0.21548507336E+03  0.21548507336E+03  0.00000000000E+00 0. -1.
         21   -1    0    0  501  502  0.00000000000E+00 -0.00000000000E+00 -0.22257763323E+03  0.22257763323E+03  0.00000000000E+00 0. -1.
         23    2    1    2    0    0 -0.23071479062E+02  0.80702652349E+02  0.15480346812E+02  0.12517514814E+03  0.91563995823E+02 0.  0.
         23    2    1    2    0    0  0.10040289985E+03 -0.11906206128E+02 -0.30645129427E+02  0.14122720890E+03  0.93720331491E+02 0.  0.
        -11    1    4    4    0    0  0.30652272708E+02 -0.12263346781E+02 -0.57647204730E+02  0.66431556580E+02  0.00000000000E+00 0.  1.
         11    1    4    4    0    0  0.69750627138E+02  0.35714065327E+00  0.27002075304E+02  0.74795652322E+02  0.00000000000E+00 0. -1.
        -11    1    3    3    0    0 -0.34795203793E+02  0.28365508308E+01  0.28869499778E+02  0.45301216817E+02  0.00000000000E+00 0.  1.
         11    1    3    3    0    0  0.11723724732E+02  0.77866101518E+02 -0.13389152966E+02  0.79873931319E+02  0.00000000000E+00 0. -1.
         21    1    1    2  503  502  0.15492111430E+02 -0.13037775239E+02  0.51235523720E+02  0.55091451158E+02  0.00000000000E+00 0. -1.
          3    1    1    2  501    0 -0.92823532214E+02 -0.55758670982E+02 -0.43163300975E+02  0.11656889840E+03  0.00000000000E+00 0. -1.
<scales pt_clust_5="13000.00000" pt_clust_6="13000.00000" pt_clust_7="13000.00000" pt_clust_8="13000.00000" pt_clust_9="20.24819" pt_clust_10="106.88610"></scales>
<clustering>
<clus scale="   20.248">  1  9  2 -1</clus>
<clus scale="   91.564">  7  8 -1 -1</clus>
<clus scale="   93.720">  5  6 -1 -1</clus>
<clus scale="  106.886">  2 10  1 -1</clus>
<clus scale="  116.815">  1  7  2 -1</clus>
<clus scale="  106.886">  2  5  1 -1</clus>
</clustering>
</event>
<event>
10    2  0.3984345E-006  0.1860894E+03  0.7546771E-02  0.1162067E+00
         21   -1    0    0  501  502  0.00000000000E+00  0.00000000000E+00  0.13670825642E+03  0.13670825642E+03  0.00000000000E+00 0. -1.
          1   -1    0    0  503    0 -0.00000000000E+00 -0.00000000000E+00 -0.93248633910E+03  0.93248633910E+03  0.00000000000E+00 0. -1.
         23    2    1    2    0    0  0.55822527725E+02 -0.13257909429E+03 -0.34503908929E+03  0.38516231787E+03  0.92761345009E+02 0.  0.
         23    2    1    2    0    0 -0.27293013429E+02  0.23895121802E+03 -0.32571392245E+03  0.41543478319E+03  0.93026375987E+02 0.  0.
        -11    1    4    4    0    0 -0.52010273751E+02  0.72059499363E+02 -0.12182583963E+03  0.15079514324E+03  0.00000000000E+00 0.  1.
         11    1    4    4    0    0  0.24717260322E+02  0.16689171866E+03 -0.20388808282E+03  0.26463963994E+03  0.00000000000E+00 0. -1.
        -11    1    3    3    0    0 -0.90442057740E+01 -0.96182826814E+02 -0.18615358651E+03  0.20972861417E+03  0.00000000000E+00 0.  1.
         11    1    3    3    0    0  0.64866733499E+02 -0.36396267476E+02 -0.15888550278E+03  0.17543370370E+03  0.00000000000E+00 0. -1.
         21    1    1    2  503  502  0.55706562785E+01  0.42419314983E+02 -0.10656962724E+03  0.11483691021E+03  0.00000000000E+00 0.  1.
          1    1    1    2  501    0 -0.34100170575E+02 -0.14879143872E+03 -0.18455443698E+02  0.15376058425E+03  0.00000000000E+00 0. -1.
<scales pt_clust_5="13000.00000" pt_clust_6="13000.00000" pt_clust_7="13000.00000" pt_clust_8="13000.00000" pt_clust_9="42.78353" pt_clust_10="148.18675"></scales>
<clustering>
<clus scale="   42.784">  2  9  1 -1</clus>
<clus scale="   92.761">  7  8 -1 -1</clus>
<clus scale="   93.026">  5  6 -1 -1</clus>
<clus scale="  148.187">  1 10  2 -1</clus>
<clus scale="  185.957">  2  7  1 -1</clus>
<clus scale="  148.187">  1  5  2 -1</clus>
</clustering>
</event>
<event>
10    2  0.3984345E-006  0.1135041E+03  0.7546771E-02  0.1259174E+00
         21   -1    0    0  501  502  0.00000000000E+00  0.00000000000E+00  0.58261766889E+02  0.58261766889E+02  0.00000000000E+00 0.  1.
          1   -1    0    0  503    0 -0.00000000000E+00 -0.00000000000E+00 -0.56322963093E+03  0.56322963093E+03  0.00000000000E+00 0. -1.
         23    2    1    2    0    0  0.25686137342E+02  0.62894098288E+00 -0.27786943391E+03  0.29750478780E+03  0.10313827245E+03 0.  0.
         23    2    1    2    0    0 -0.67878196334E+02 -0.76742620496E+01 -0.63966230925E+02  0.13077703058E+03  0.91348832461E+02 0.  0.
        -11    1    4    4    0    0 -0.16057686478E+02  0.29936103440E+02 -0.57017903306E+02  0.66370632675E+02  0.00000000000E+00 0. -1.
         11    1    4    4    0    0 -0.51820509856E+02 -0.37610365489E+02 -0.69483276185E+01  0.64406397902E+02  0.00000000000E+00 0.  1.
        -13    1    3    3    0    0  0.55495499059E+02  0.27369027833E+02 -0.20760331055E+03  0.21662859610E+03  0.00000000000E+00 0. -1.
         13    1    3    3    0    0 -0.29809361717E+02 -0.26740086850E+02 -0.70266123362E+02  0.80876191694E+02  0.00000000000E+00 0.  1.
         21    1    1    2  503  502  0.21417172336E+02  0.69720056672E+01 -0.16987966129E+03  0.17136628447E+03  0.00000000000E+00 0.  1.
          1    1    1    2  501    0  0.20774886656E+02  0.73315399499E-01  0.67474620811E+01  0.21843294972E+02  0.00000000000E+00 0. -1.
<scales pt_clust_5="13000.00000" pt_clust_6="13000.00000" pt_clust_7="13000.00000" pt_clust_8="13000.00000" pt_clust_9="22.85803" pt_clust_10="20.77502"></scales>
<clustering>
<clus scale="   20.775">  1 10  2 -1</clus>
<clus scale="   22.858">  2  9  1 -1</clus>
<clus scale="   91.349">  5  6 -1 -1</clus>
<clus scale="  102.909">  1  5  2 -1</clus>
<clus scale="  103.138">  7  8 -1 -1</clus>
<clus scale="   20.775">  1  5  2 -1</clus>
</clustering>
</event>
<event>
10    2  0.3984345E-006  0.1594742E+03  0.7546771E-02  0.1197237E+00
          1   -1    0    0  503    0 -0.00000000000E+00  0.00000000000E+00  0.13354892559E+04  0.13354892559E+04  0.00000000000E+00 0. -1.
         21   -1    0    0  501  502  0.00000000000E+00 -0.00000000000E+00 -0.66455913299E+02  0.66455913299E+02  0.00000000000E+00 0.  1.
         23    2    1    2    0    0  0.12864508459E+03  0.11273332259E+03  0.57895114759E+03  0.61486693120E+03  0.11669855173E+03 0.  0.
         23    2    1    2    0    0 -0.50920539055E+02 -0.55023788234E+02  0.17722570481E+03  0.20773432245E+03  0.78256499470E+02 0.  0.
        -13    1    4    4    0    0 -0.55618537027E+01 -0.62105599592E+02  0.10667424356E+03  0.12356145822E+03  0.00000000000E+00 0.  1.
         13    1    4    4    0    0 -0.45358685352E+02  0.70818113579E+01  0.70551461250E+02  0.84172864235E+02  0.00000000000E+00 0. -1.
        -13    1    3    3    0    0 -0.55875992967E+01  0.59018374743E+02  0.12298542704E+03  0.13652767151E+03  0.00000000000E+00 0.  1.
         13    1    3    3    0    0  0.13423268389E+03  0.53714947847E+02  0.45596572054E+03  0.47833925968E+03  0.00000000000E+00 0. -1.
         21    1    1    2  503  502 -0.86841165818E+02 -0.73517183553E+01  0.52037113175E+03  0.52761875497E+03  0.00000000000E+00 0.  1.
          1    1    1    2  501    0  0.91166202849E+01 -0.50357816001E+02 -0.75146415568E+01  0.51725160565E+02  0.00000000000E+00 0. -1.
<scales pt_clust_5="13000.00000" pt_clust_6="13000.00000" pt_clust_7="13000.00000" pt_clust_8="13000.00000" pt_clust_9="86.82082" pt_clust_10="51.17639"></scales>
<clustering>
<clus scale="   51.176">  2 10  1 -1</clus>
<clus scale="   78.256">  5  6 -1 -1</clus>
<clus scale="   86.821">  1  9  2 -1</clus>
<clus scale="  116.699">  7  8 -1 -1</clus>
<clus scale="  133.931">  2  5  1 -1</clus>
<clus scale="   51.176">  2  5  1 -1</clus>
</clustering>
</event>
<event>
10    2  0.3984345E-006  0.1391837E+03  0.7546771E-02  0.1214624E+00
         21   -1    0    0  503  502  0.00000000000E+00  0.00000000000E+00  0.87374292495E+03  0.87374292495E+03  0.00000000000E+00 0.  1.
         -1   -1    0    0    0  501 -0.00000000000E+00 -0.00000000000E+00 -0.10996130767E+03  0.10996130767E+03  0.00000000000E+00 0.  1.
         23    2    1    2    0    0  0.33581294133E+02 -0.96892800655E+02  0.10343139096E+03  0.17199043120E+03  0.91469872927E+02 0.  0.
         23    2    1    2    0    0 -0.97001890088E+02  0.13003996805E+03  0.56896552436E+03  0.59880370741E+03  0.92327418090E+02 0.  0.
        -11    1    4    4    0    0 -0.83540293728E+02  0.37520149172E+02  0.24256469861E+03  0.25927663852E+03  0.00000000000E+00 0.  1.
         11    1    4    4    0    0 -0.13461596359E+02  0.92519818878E+02  0.32640082575E+03  0.33952706889E+03  0.00000000000E+00 0. -1.
        -11    1    3    3    0    0  0.74465241092E+01 -0.10620361167E+03  0.65514004848E+02  0.12500697054E+03  0.00000000000E+00 0.  1.
         11    1    3    3    0    0  0.26134770024E+02  0.93108110107E+01  0.37917386112E+02  0.46983460659E+02  0.00000000000E+00 0. -1.
         21    1    1    2  503  501 -0.41451067186E+02  0.86976406096E+01 -0.26271009520E+02  0.49839802008E+02  0.00000000000E+00 0.  1.
         -1    1    1    2    0  502  0.10487166314E+03 -0.41844808005E+02  0.11765571149E+03  0.16307029200E+03  0.00000000000E+00 0.  1.
<scales pt_clust_5="13000.00000" pt_clust_6="13000.00000" pt_clust_7="13000.00000" pt_clust_8="13000.00000" pt_clust_9="42.35375" pt_clust_10="99.76256"></scales>
<clustering>
<clus scale="   42.354">  2  9  1 -1</clus>
<clus scale="   91.470">  7  8 -1 -1</clus>
<clus scale="   92.327">  5  6 -1 -1</clus>
<clus scale="   99.763">  1 10  2 -1</clus>
<clus scale="  138.616">  2  7  1 -1</clus>
<clus scale="   99.763">  1  5  2 -1</clus>
</clustering>
</event>
<event>
10    2  0.3984345E-006  0.1553831E+03  0.7546771E-02  0.1199991E+00
          2   -1    0    0  503    0 -0.00000000000E+00  0.00000000000E+00  0.45320276681E+03  0.45320276681E+03  0.00000000000E+00 0. -1.
         21   -1    0    0  501  502  0.00000000000E+00 -0.00000000000E+00 -0.15614994986E+03  0.15614994986E+03  0.00000000000E+00 0. -1.
         23    2    1    2    0    0 -0.56344948083E+02 -0.83794219802E+02 -0.19259090391E+02  0.13673073376E+03  0.90156289554E+02 0.  0.
         23    2    1    2    0    0  0.11460769904E+03 -0.23297609611E+02  0.12351726090E+03  0.19346331027E+03  0.92162006208E+02 0.  0.
        -11    1    3    3    0    0 -0.49439965599E+01 -0.65155278584E+02  0.21219241029E+02  0.68701598375E+02  0.00000000000E+00 0. -1.
         11    1    3    3    0    0 -0.51400951523E+02 -0.18638941217E+02 -0.40478331420E+02  0.68029135388E+02  0.00000000000E+00 0.  1.
        -11    1    4    4    0    0  0.68200200514E+02  0.66870921118E+01  0.12781667115E+02  0.69709078070E+02  0.00000000000E+00 0.  1.
         11    1    4    4    0    0  0.46407498525E+02 -0.29984701722E+02  0.11073559379E+03  0.12375423220E+03  0.00000000000E+00 0. -1.
         21    1    1    2  503  502  0.22130250181E+02 -0.23871360844E+02  0.86190239537E+02  0.92132226897E+02  0.00000000000E+00 0. -1.
          2    1    1    2  501    0 -0.80393001138E+02  0.13096319026E+03  0.10660440690E+03  0.18702644573E+03  0.00000000000E+00 0. -1.
<scales pt_clust_5="13000.00000" pt_clust_6="13000.00000" pt_clust_7="13000.00000" pt_clust_8="13000.00000" pt_clust_9="32.55134" pt_clust_10="125.10031"></scales>
<clustering>
<clus scale="   32.551">  1  9  2 -1</clus>
<clus scale="   90.156">  5  6 -1 -1</clus>
<clus scale="   92.162">  7  8 -1 -1</clus>
<clus scale="  136.364">  1  5  2 -1</clus>
<clus scale="  125.100">  2 10  1 -1</clus>
<clus scale="  125.100">  2  5  1 -1</clus>
</clustering>
</event>
<event>
10    2  0.3984345E-006  0.1185273E+03  0.7546771E-02  0.1246044E+00
         21   -1    0    0  501  502  0.00000000000E+00  0.00000000000E+00  0.40400690312E+03  0.40400690312E+03  0.00000000000E+00 0. -1.
          2   -1    0    0  503    0 -0.00000000000E+00 -0.00000000000E+00 -0.23860336944E+03  0.23860336944E+03  0.00000000000E+00 0. -1.
         23    2    1    2    0    0  0.59695529900E+02  0.28977291933E+02 -0.15568962534E+03  0.19161464658E+03  0.89853623220E+02 0.  0.
         23    2    1    2    0    0 -0.97475975593E+02  0.58636269601E+02  0.10476120854E+03  0.17962942286E+03  0.91389500564E+02 0.  0.
        -11    1    3    3    0    0  0.87669242000E+01  0.40130608332E+02 -0.18880911952E+02  0.45208555840E+02  0.00000000000E+00 0.  1.
         11    1    3    3    0    0  0.50928605700E+02 -0.11153316399E+02 -0.13680871339E+03  0.14640609074E+03  0.00000000000E+00 0. -1.
        -13    1    4    4    0    0 -0.53635337762E+02  0.11195474952E+01  0.91553424032E+02  0.10611329933E+03  0.00000000000E+00 0.  1.
         13    1    4    4    0    0 -0.43840637831E+02  0.57516722105E+02  0.13207784504E+02  0.73516123528E+02  0.00000000000E+00 0. -1.
         21    1    1    2  503  502  0.14916590981E+02 -0.22993337666E+02 -0.14193900868E+02  0.30865273129E+02  0.00000000000E+00 0. -1.
          2    1    1    2  501    0  0.22863854712E+02 -0.64620223868E+02  0.23052585135E+03  0.24050092999E+03  0.00000000000E+00 0. -1.
<scales pt_clust_5="13000.00000" pt_clust_6="13000.00000" pt_clust_7="13000.00000" pt_clust_8="13000.00000" pt_clust_9="27.40800" pt_clust_10="69.16117"></scales>
<clustering>
<clus scale="   27.408">  2  9  1 -1</clus>
<clus scale="   69.161">  1 10  2 -1</clus>
<clus scale="   89.854">  5  6 -1 -1</clus>
<clus scale="   91.390">  7  8 -1 -1</clus>
<clus scale="  117.347">  2  5  1 -1</clus>
<clus scale="   69.161">  1  5  2 -1</clus>
</clustering>
</event>
<event>
10    2  0.3984345E-006  0.2422624E+03  0.7546771E-02  0.1152392E+00
          2   -1    0    0  503    0 -0.00000000000E+00  0.00000000000E+00  0.53909982733E+03  0.53909982733E+03  0.00000000000E+00 0. -1.
         21   -1    0    0  501  502  0.00000000000E+00 -0.00000000000E+00 -0.20030629440E+03  0.20030629440E+03  0.00000000000E+00 0.  1.
         23    2    1    2    0    0 -0.18920511000E+02 -0.50895474694E+02  0.11337172511E+03  0.15551506760E+03  0.91561198737E+02 0.  0.
         23    2    1    2    0    0 -0.93271541050E+02  0.20051925436E+03  0.12524669267E+03  0.26985991071E+03  0.90719819478E+02 0.  0.
        -11    1    4    4    0    0 -0.32029047303E+02  0.43793151683E+02 -0.84948401726E+01  0.54916867309E+02  0.00000000000E+00 0.  1.
         11    1    4    4    0    0 -0.61242493747E+02  0.15672610268E+03  0.13374153284E+03  0.21494304340E+03  0.00000000000E+00 0. -1.
        -11    1    3    3    0    0  0.12162104521E+02 -0.53722162514E+02  0.22618280419E+02  0.59544723869E+02  0.00000000000E+00 0.  1.
         11    1    3    3    0    0 -0.31082615522E+02  0.28266878202E+01  0.90753444691E+02  0.95970343726E+02  0.00000000000E+00 0. -1.
         21    1    1    2  503  502  0.15629499117E+03 -0.18292385073E+03  0.94435787001E+02  0.25847123108E+03  0.00000000000E+00 0.  1.
          2    1    1    2  501    0 -0.44102939118E+02  0.33300071066E+02  0.57393281498E+01  0.55559912342E+02  0.00000000000E+00 0. -1.
<scales pt_clust_5="13000.00000" pt_clust_6="13000.00000" pt_clust_7="13000.00000" pt_clust_8="13000.00000" pt_clust_9="224.63526" pt_clust_10="55.26268"></scales>
<clustering>
<clus scale="   55.263">  2 10  1 -1</clus>
<clus scale="   90.720">  5  6 -1 -1</clus>
<clus scale="   91.561">  7  8 -1 -1</clus>
<clus scale="  105.684">  1  7  2 -1</clus>
<clus scale="  224.635">  2  9  1 -1</clus>
<clus scale="   55.263">  2  5  1 -1</clus>
</clustering>
</event>
<event>
10    2  0.3984345E-006  0.1102758E+03  0.7546771E-02  0.1260234E+00
          1   -1    0    0  503    0 -0.00000000000E+00  0.00000000000E+00  0.27247801758E+03  0.27247801758E+03  0.00000000000E+00 0. -1.
         21   -1    0    0  501  502  0.00000000000E+00 -0.00000000000E+00 -0.19667579384E+03  0.19667579384E+03  0.00000000000E+00 0. -1.
         23    2    1    2    0    0  0.35240826246E+02  0.40299581415E+02  0.45164205964E+02  0.11621411866E+03  0.92735881827E+02 0.  0.
         23    2    1    2    0    0  0.30172668076E+01 -0.80539069459E+02 -0.12709118584E+02  0.12318418113E+03  0.92288543041E+02 0.  0.
        -11    1    4    4    0    0  0.25055363036E+02  0.45938775333E+00 -0.28305547047E+02  0.37804579718E+02  0.00000000000E+00 0. -1.
         11    1    4    4    0    0 -0.22038096229E+02 -0.80998457212E+02  0.15596428463E+02  0.85379601410E+02  0.00000000000E+00 0.  1.
        -11    1    3    3    0    0 -0.30336328659E+02  0.44422828249E+00  0.13004182926E+02  0.33009073735E+02  0.00000000000E+00 0.  1.
         11    1    3    3    0    0  0.65577154905E+02  0.39855353133E+02  0.32160023038E+02  0.83205044922E+02  0.00000000000E+00 0. -1.
         21    1    1    2  503  502 -0.28310645092E+02  0.12931975695E+02  0.13243692472E+03  0.13604509418E+03  0.00000000000E+00 0.  1.
          1    1    1    2  501    0 -0.99474479611E+01  0.27307512349E+02 -0.89089788353E+02  0.93710417459E+02  0.00000000000E+00 0. -1.
<scales pt_clust_5="13000.00000" pt_clust_6="13000.00000" pt_clust_7="13000.00000" pt_clust_8="13000.00000" pt_clust_9="31.47590" pt_clust_10="29.06290"></scales>
<clustering>
<clus scale="   29.063">  2 10  1 -1</clus>
<clus scale="   31.476">  1  9  2 -1</clus>
<clus scale="   92.289">  5  6 -1 -1</clus>
<clus scale="   92.736">  7  8 -1 -1</clus>
<clus scale="  109.900">  2  5  1 -1</clus>
<clus scale="   29.063">  2  5  1 -1</clus>
</clustering>
</event>
<event>
10    2  0.3984345E-006  0.1051027E+03  0.7546771E-02  0.1270364E+00
          1   -1    0    0  503    0 -0.00000000000E+00  0.00000000000E+00  0.66913297197E+03  0.66913297197E+03  0.00000000000E+00 0. -1.
         21   -1    0    0  501  502  0.00000000000E+00 -0.00000000000E+00 -0.67032113094E+02  0.67032113094E+02  0.00000000000E+00 0. -1.
         23    2    1    2    0    0 -0.26660420545E+01 -0.12376215771E+02  0.31460404354E+03  0.32746223457E+03  0.89975176354E+02 0.  0.
         23    2    1    2    0    0  0.76854301539E+02  0.46693844254E+02  0.19449297769E+03  0.23280682946E+03  0.91019792978E+02 0.  0.
        -11    1    4    4    0    0  0.67966088075E+02  0.72924212235E+02  0.16078840446E+03  0.18918308822E+03  0.00000000000E+00 0. -1.
         11    1    4    4    0    0  0.88882134642E+01 -0.26230367981E+02  0.33704573233E+02  0.43623741241E+02  0.00000000000E+00 0.  1.
        -11    1    3    3    0    0  0.10793220254E+02 -0.49608844074E+02  0.19359542373E+03  0.20014174753E+03  0.00000000000E+00 0.  1.
         11    1    3    3    0    0 -0.13459262309E+02  0.37232628303E+02  0.12100861980E+03  0.12732048703E+03  0.00000000000E+00 0. -1.
         21    1    1    2  503  502 -0.56610643517E+02 -0.12865905534E+02  0.12240757730E+03  0.13547660855E+03  0.00000000000E+00 0. -1.
          1    1    1    2  501    0 -0.17577615968E+02 -0.21451722948E+02 -0.29403739651E+02  0.40419412490E+02  0.00000000000E+00 0. -1.
<scales pt_clust_5="13000.00000" pt_clust_6="13000.00000" pt_clust_7="13000.00000" pt_clust_8="13000.00000" pt_clust_9="62.60429" pt_clust_10="27.73354"></scales>
<clustering>
<clus scale="   27.734">  2 10  1 -1</clus>
<clus scale="   62.604">  1  9  2 -1</clus>
<clus scale="   89.975">  7  8 -1 -1</clus>
<clus scale="   91.020">  5  6 -1 -1</clus>
<clus scale="  104.199">  1  7  2 -1</clus>
<clus scale="   27.734">  2  5  1 -1</clus>
</clustering>
</event>
<event>
10    2  0.3984345E-006  0.1141391E+03  0.7546771E-02  0.1254841E+00
         -1   -1    0    0    0  501 -0.00000000000E+00  0.00000000000E+00  0.27471815901E+03  0.27471815901E+03  0.00000000000E+00 0.  1.
         21   -1    0    0  503  502  0.00000000000E+00 -0.00000000000E+00 -0.94852338437E+02  0.94852338437E+02  0.00000000000E+00 0. -1.
         23    2    1    2    0    0 -0.43908518770E+01 -0.58740522236E+02  0.13497510487E+03  0.17589886347E+03  0.96189410550E+02 0.  0.
         23    2    1    2    0    0  0.49764970920E+02  0.57524816624E+02  0.42580981932E+02  0.12640028091E+03  0.91532694341E+02 0.  0.
        -11    1    3    3    0    0 -0.20822459105E+02 -0.81837271200E+02  0.10055935009E+03  0.13131297214E+03  0.00000000000E+00 0. -1.
         11    1    3    3    0    0  0.16431607228E+02  0.23096748964E+02  0.34415754781E+02  0.44585891333E+02  0.00000000000E+00 0.  1.
        -11    1    4    4    0    0 -0.20058007396E+02 -0.55444934934E+00 -0.89581924964E+01  0.21974537255E+02  0.00000000000E+00 0.  1.
         11    1    4    4    0    0  0.69822978316E+02  0.58079265973E+02  0.51539174429E+02  0.10442574365E+03  0.00000000000E+00 0. -1.
         21    1    1    2  503  501 -0.26654122193E+02  0.17401807083E+02  0.19325196753E+02  0.37238801661E+02  0.00000000000E+00 0.  1.
         -1    1    1    2    0  502 -0.18719996849E+02 -0.16186101471E+02 -0.17015462991E+02  0.30032551401E+02  0.00000000000E+00 0.  1.
<scales pt_clust_5="13000.00000" pt_clust_6="13000.00000" pt_clust_7="13000.00000" pt_clust_8="13000.00000" pt_clust_9="32.82522" pt_clust_10="24.74729"></scales>
<clustering>
<clus scale="   24.747">  2 10  1 -1</clus>
<clus scale="   32.825">  2  9  1 -1</clus>
<clus scale="   91.533">  7  8 -1 -1</clus>
<clus scale="   96.189">  5  6 -1 -1</clus>
<clus scale="  110.243">  2  7  1 -1</clus>
<clus scale="   24.747">  2  5  1 -1</clus>
</clustering>
</event>
<event>
10    2  0.3984345E-006  0.1013715E+03  0.7546771E-02  0.1278953E+00
          1   -1    0    0  503    0 -0.00000000000E+00  0.00000000000E+00  0.42168028526E+03  0.42168028526E+03  0.00000000000E+00 0. -1.
         21   -1    0    0  501  502  0.00000000000E+00 -0.00000000000E+00 -0.11516232472E+03  0.11516232472E+03  0.00000000000E+00 0. -1.
         23    2    1    2    0    0  0.44234554043E+02 -0.21424368087E+02  0.24233979246E+02  0.10934301521E+03  0.94619817727E+02 0.  0.
         23    2    1    2    0    0  0.38037728529E+02  0.53268541285E+02 -0.16131138312E+02  0.11366664835E+03  0.91517687046E+02 0.  0.
        -11    1    4    4    0    0  0.41394475022E+01 -0.22121845472E+02 -0.21108987401E+02  0.30856124543E+02  0.00000000000E+00 0.  1.
         11    1    4    4    0    0  0.33898281026E+02  0.75390386757E+02  0.49778490888E+01  0.82810523809E+02  0.00000000000E+00 0. -1.
        -11    1    3    3    0    0 -0.28757903072E+02  0.41673070235E+01  0.97458348880E+01  0.30649057646E+02  0.00000000000E+00 0.  1.
         11    1    3    3    0    0  0.72992457116E+02 -0.25591675111E+02  0.14488144358E+02  0.78693957568E+02  0.00000000000E+00 0. -1.
         21    1    1    2  503  502 -0.19650661827E+02 -0.11392835354E+02  0.14648444971E+03  0.14823508091E+03  0.00000000000E+00 0.  1.
          1    1    1    2  501    0 -0.62621620745E+02 -0.20451337844E+02  0.15193066989E+03  0.16559786550E+03  0.00000000000E+00 0. -1.
<scales pt_clust_5="13000.00000" pt_clust_6="13000.00000" pt_clust_7="13000.00000" pt_clust_8="13000.00000" pt_clust_9="22.71443" pt_clust_10="78.78216"></scales>
<clustering>
<clus scale="   22.714">  1  9  2 -1</clus>
<clus scale="   78.782">  2 10  1 -1</clus>
<clus scale="   91.518">  5  6 -1 -1</clus>
<clus scale="   94.620">  7  8 -1 -1</clus>
<clus scale="   98.482">  2  5  1 -1</clus>
<clus scale="   78.782">  2  5  1 -1</clus>
</clustering>
</event>
<event>
10    2  0.3984345E-006  0.2144616E+03  0.7546771E-02  0.1148816E+00
         -2   -1    0    0    0  501 -0.00000000000E+00  0.00000000000E+00  0.12177895021E+03  0.12177895021E+03  0.00000000000E+00 0.  1.
         21   -1    0    0  503  502  0.00000000000E+00 -0.00000000000E+00 -0.14871869296E+04  0.14871869296E+04  0.00000000000E+00 0. -1.
         23    2    1    2    0    0  0.82506076154E+02 -0.11599612442E+03 -0.43412140576E+03  0.46574871493E+03  0.90543453865E+02 0.  0.
         23    2    1    2    0    0  0.10571647840E+03  0.14930611789E+03 -0.20333684745E+03  0.29275619213E+03  0.10436485928E+03 0.  0.
        -13    1    4    4    0    0  0.63671886100E+02  0.67632611673E+02 -0.17239050309E+03  0.19582329994E+03  0.00000000000E+00 0. -1.
         13    1    4    4    0    0  0.42044592303E+02  0.81673506214E+02 -0.30946344358E+02  0.96932892190E+02  0.00000000000E+00 0.  1.
        -13    1    3    3    0    0 -0.51080757925E+01 -0.63697029831E+02 -0.20969599536E+03  0.21921636462E+03  0.00000000000E+00 0. -1.
         13    1    3    3    0    0  0.87614151946E+02 -0.52299094587E+02 -0.22442541041E+03  0.24653235032E+03  0.00000000000E+00 0.  1.
         21    1    1    2  503  501  0.17993910728E+01  0.21011589355E+02  0.46570776193E+02  0.51123007449E+02  0.00000000000E+00 0.  1.
         -2    1    1    2    0  502 -0.19002194563E+03 -0.54321582823E+02 -0.77452050238E+03  0.79933796531E+03  0.00000000000E+00 0.  1.
<scales pt_clust_5="13000.00000" pt_clust_6="13000.00000" pt_clust_7="13000.00000" pt_clust_8="13000.00000" pt_clust_9="21.08850" pt_clust_10="187.35464"></scales>
<clustering>
<clus scale="   21.088">  1  9  2 -1</clus>
<clus scale="   90.543">  7  8 -1 -1</clus>
<clus scale="  104.365">  5  6 -1 -1</clus>
<clus scale="  165.798">  1  7  2 -1</clus>
<clus scale="  187.355">  2 10  1 -1</clus>
<clus scale="  187.355">  2  5  1 -1</clus>
</clustering>
</event>
<event>
10    2  0.3984345E-006  0.9548546E+02  0.7546771E-02  0.1292318E+00
         21   -1    0    0  501  502  0.00000000000E+00  0.00000000000E+00  0.54883325230E+03  0.54883325230E+03  0.00000000000E+00 0. -1.
          3   -1    0    0  503    0 -0.00000000000E+00 -0.00000000000E+00 -0.74124162455E+02  0.74124162455E+02  0.00000000000E+00 0. -1.
         23    2    1    2    0    0 -0.56201346741E+02  0.58794096035E+02  0.96568425139E+02  0.15551547532E+03  0.90797936239E+02 0.  0.
         23    2    1    2    0    0  0.50434902066E+01  0.15818037689E+02  0.98243028440E+02  0.13206684877E+03  0.86685135958E+02 0.  0.
        -11    1    4    4    0    0 -0.11292326968E+02  0.48159006643E+02  0.71891412796E+02  0.87265009042E+02  0.00000000000E+00 0. -1.
         11    1    4    4    0    0  0.16335817175E+02 -0.32340968954E+02  0.26351615644E+02  0.44801839725E+02  0.00000000000E+00 0.  1.
        -13    1    3    3    0    0 -0.58434626206E+02  0.10070062938E+02  0.87816863205E+02  0.10596137584E+03  0.00000000000E+00 0.  1.
         13    1    3    3    0    0  0.22332794650E+01  0.48724033097E+02  0.87515619335E+01  0.49554099474E+02  0.00000000000E+00 0. -1.
         21    1    1    2  503  502  0.67853601471E+02 -0.23648275643E+02  0.26853187494E+02  0.76710141781E+02  0.00000000000E+00 0. -1.
          3    1    1    2  501    0 -0.16695744937E+02 -0.50963858081E+02  0.25304444877E+03  0.25866494889E+03  0.00000000000E+00 0. -1.
<scales pt_clust_5="13000.00000" pt_clust_6="13000.00000" pt_clust_7="13000.00000" pt_clust_8="13000.00000" pt_clust_9="72.65511" pt_clust_10="53.62894"></scales>
<clustering>
<clus scale="   53.629">  1 10  2 -1</clus>
<clus scale="   72.655">  2  9  1 -1</clus>
<clus scale="   86.685">  5  6 -1 -1</clus>
<clus scale="   90.798">  7  8 -1 -1</clus>
<clus scale="   91.583">  1  5  2 -1</clus>
<clus scale="   53.629">  1  5  2 -1</clus>
</clustering>
</event>
<event>
10    2  0.3984345E-006  0.9540963E+02  0.7546771E-02  0.1290759E+00
         21   -1    0    0  501  502  0.00000000000E+00  0.00000000000E+00  0.43249997422E+02  0.43249997422E+02  0.00000000000E+00 0. -1.
          4   -1    0    0  503    0 -0.00000000000E+00 -0.00000000000E+00 -0.67509354021E+03  0.67509354021E+03  0.00000000000E+00 0. -1.
         23    2    1    2    0    0  0.51824390379E+01  0.33343212087E+02 -0.25750620942E+03  0.27583910859E+03  0.92946965903E+02 0.  0.
         23    2    1    2    0    0 -0.33930678298E+02  0.84991616787E+01 -0.21042068428E+03  0.23231414382E+03  0.92029725453E+02 0.  0.
        -11    1    4    4    0    0 -0.60539883403E+02 -0.23242793227E+01 -0.89841616068E+02  0.10836048973E+03  0.00000000000E+00 0. -1.
         11    1    4    4    0    0  0.26609205105E+02  0.10823441001E+02 -0.12057906821E+03  0.12395365409E+03  0.00000000000E+00 0.  1.
        -13    1    3    3    0    0  0.20755948947E+01 -0.32646445273E+02 -0.91427293692E+02  0.97103287869E+02  0.00000000000E+00 0.  1.
         13    1    3    3    0    0  0.31068441432E+01  0.65989657360E+02 -0.16607891573E+03  0.17873582072E+03  0.00000000000E+00 0. -1.
         21    1    1    2  503  502 -0.58981585224E+01 -0.20033005133E+02 -0.16777494416E+03  0.16906963494E+03  0.00000000000E+00 0. -1.
          4    1    1    2  501    0  0.34646397783E+02 -0.21809368633E+02  0.38582950717E+01  0.41120650291E+02  0.00000000000E+00 0. -1.
<scales pt_clust_5="13000.00000" pt_clust_6="13000.00000" pt_clust_7="13000.00000" pt_clust_8="13000.00000" pt_clust_9="20.88324" pt_clust_10="41.15476"></scales>
<clustering>
<clus scale="   20.883">  2  9  1 -1</clus>
<clus scale="   41.155">  1 10  2 -1</clus>
<clus scale="   92.030">  5  6 -1 -1</clus>
<clus scale="   92.947">  7  8 -1 -1</clus>
<clus scale="   94.516">  1  5  2 -1</clus>
<clus scale="   41.155">  1  5  2 -1</clus>
</clustering>
</event>
<event>
10    2  0.3984345E-006  0.9284925E+02  0.7546771E-02  0.1296204E+00
         21   -1    0    0  501  502  0.00000000000E+00  0.00000000000E+00  0.23553226262E+03  0.23553226262E+03  0.00000000000E+00 0. -1.
          3   -1    0    0  503    0 -0.00000000000E+00 -0.00000000000E+00 -0.52909780893E+03  0.52909780893E+03  0.00000000000E+00 0. -1.
         23    2    1    2    0    0 -0.40792479087E+01 -0.12167287605E+02 -0.25751913717E+03  0.27339160084E+03  0.90896524973E+02 0.  0.
         23    2    1    2    0    0  0.12276519692E+02 -0.91362849827E+01 -0.11869601703E+03  0.15016775125E+03  0.90705150997E+02 0.  0.
        -11    1    3    3    0    0  0.13507734597E+02 -0.49071781356E+02 -0.13995859216E+03  0.14892584107E+03  0.00000000000E+00 0. -1.
         11    1    3    3    0    0 -0.17586982506E+02  0.36904493752E+02 -0.11756054501E+03  0.12446575977E+03  0.00000000000E+00 0.  1.
        -13    1    4    4    0    0  0.80120454378E+01 -0.49864513745E+02 -0.73496130290E+02  0.89175914745E+02  0.00000000000E+00 0. -1.
         13    1    4    4    0    0  0.42644742546E+01  0.40728228762E+02 -0.45199886740E+02  0.60991836503E+02  0.00000000000E+00 0.  1.
         21    1    1    2  503  502 -0.27549695336E+02 -0.37233656147E+02 -0.12032881730E+03  0.12893546888E+03  0.00000000000E+00 0. -1.
          3    1    1    2  501    0  0.19352423553E+02  0.58537228735E+02  0.20297842518E+03  0.21213525057E+03  0.00000000000E+00 0. -1.
<scales pt_clust_5="13000.00000" pt_clust_6="13000.00000" pt_clust_7="13000.00000" pt_clust_8="13000.00000" pt_clust_9="46.31772" pt_clust_10="61.15541"></scales>
<clustering>
<clus scale="   46.318">  2  9  1 -1</clus>
<clus scale="   61.155">  1 10  2 -1</clus>
<clus scale="   90.705">  7  8 -1 -1</clus>
<clus scale="   90.897">  5  6 -1 -1</clus>
<clus scale="   92.662">  1  7  2 -1</clus>
<clus scale="   61.155">  1  5  2 -1</clus>
</clustering>
</event>
<event>
10    2  0.3984345E-006  0.9418749E+02  0.7546771E-02  0.1294879E+00
          1   -1    0    0  503    0 -0.00000000000E+00  0.00000000000E+00  0.15283502829E+03  0.15283502829E+03  0.00000000000E+00 0. -1.
         21   -1    0    0  501  502  0.00000000000E+00 -0.00000000000E+00 -0.15959763756E+03  0.15959763756E+03  0.00000000000E+00 0.  1.
         23    2    1    2    0    0 -0.47109864468E+02  0.10654083726E+02  0.59313380688E+02  0.11956851770E+03  0.91900513955E+02 0.  0.
         23    2    1    2    0    0 -0.21212616323E+02 -0.77383087138E+01 -0.24993241791E+02  0.94794038895E+02  0.88608076166E+02 0.  0.
        -11    1    4    4    0    0  0.31633234962E+02 -0.16025607466E+02 -0.20863255665E+02  0.41143129266E+02  0.00000000000E+00 0. -1.
         11    1    4    4    0    0 -0.52845851285E+02  0.82872987524E+01 -0.41299861258E+01  0.53650909629E+02  0.00000000000E+00 0.  1.
        -11    1    3    3    0    0 -0.34369880852E+02 -0.39197144652E+02  0.25831538432E+02  0.58180522827E+02  0.00000000000E+00 0.  1.
         11    1    3    3    0    0 -0.12739983616E+02  0.49851228378E+02  0.33481842256E+02  0.61387994870E+02  0.00000000000E+00 0. -1.
         21    1    1    2  503  502  0.25038525080E+02  0.18954075446E+02  0.42452817781E+01  0.31689227374E+02  0.00000000000E+00 0.  1.
          1    1    1    2  501    0  0.43283955711E+02 -0.21869850458E+02 -0.45328029949E+02  0.66380881887E+02  0.00000000000E+00 0. -1.
<scales pt_clust_5="13000.00000" pt_clust_6="13000.00000" pt_clust_7="13000.00000" pt_clust_8="13000.00000" pt_clust_9="31.40358" pt_clust_10="49.62124"></scales>
<clustering>
<clus scale="   31.404">  1  9  2 -1</clus>
<clus scale="   49.621">  2 10  1 -1</clus>
<clus scale="   88.608">  5  6 -1 -1</clus>
<clus scale="   90.978">  2  5  1 -1</clus>
<clus scale="   91.901">  7  8 -1 -1</clus>
<clus scale="   49.621">  2  5  1 -1</clus>
</clustering>
</event>
<event>
10    2  0.3984345E-006  0.1484873E+03  0.7546771E-02  0.1224299E+00
         21   -1    0    0  503  502  0.00000000000E+00  0.00000000000E+00  0.25065254945E+03  0.25065254945E+03  0.00000000000E+00 0.  1.
          1   -1    0    0  502    0 -0.00000000000E+00 -0.00000000000E+00 -0.27226527778E+03  0.27226527778E+03  0.00000000000E+00 0. -1.
         23    2    1    2    0    0 -0.11750890706E+02  0.81105329851E+01 -0.17749868278E+03  0.20045896359E+03  0.92055143895E+02 0.  0.
         23    2    1    2    0    0 -0.10481172038E+02  0.11279428542E+03  0.10865538736E+03  0.18140800664E+03  0.90942101790E+02 0.  0.
        -11    1    3    3    0    0 -0.48597349622E+02  0.16263611112E+02 -0.13038725307E+03  0.14009654957E+03  0.00000000000E+00 0.  1.
         11    1    3    3    0    0  0.36846458916E+02 -0.81530781272E+01 -0.47111429701E+02  0.60362414018E+02  0.00000000000E+00 0. -1.
        -13    1    4    4    0    0 -0.47982492540E+02  0.64094060887E+02  0.81378855777E+02  0.11416166782E+03  0.00000000000E+00 0.  1.
         13    1    4    4    0    0  0.37501320502E+02  0.48700224537E+02  0.27276531580E+02  0.67246338818E+02  0.00000000000E+00 0. -1.
         21    1    1    2  503  501 -0.15857931492E+02 -0.25180721513E+02  0.13173374615E+02  0.32543517417E+02  0.00000000000E+00 0. -1.
          1    1    1    2  501    0  0.38089994235E+02 -0.95724096896E+02  0.34057192473E+02  0.10850733960E+03  0.00000000000E+00 0. -1.
<scales pt_clust_5="13000.00000" pt_clust_6="13000.00000" pt_clust_7="13000.00000" pt_clust_8="13000.00000" pt_clust_9="27.15224" pt_clust_10="127.79043"></scales>
<clustering>
<clus scale="   27.152">  9 10 -1 -1</clus>
<clus scale="   90.942">  7  8 -1 -1</clus>
<clus scale="   92.055">  5  6 -1 -1</clus>
<clus scale="   93.156">  2  5  1 -1</clus>
<clus scale="  127.790">  1  9  2 -1</clus>
<clus scale="  127.790">  1  5  2 -1</clus>
</clustering>
</event>
<event>
10    2  0.3984345E-006  0.1123306E+03  0.7546771E-02  0.1274761E+00
         21   -1    0    0  503  502  0.00000000000E+00  0.00000000000E+00  0.98112295645E+02  0.98112295645E+02  0.00000000000E+00 0.  1.
         -3   -1    0    0    0  501 -0.00000000000E+00 -0.00000000000E+00 -0.25085667835E+03  0.25085667835E+03  0.00000000000E+00 0.  1.
         23    2    1    2    0    0  0.51032590057E+02 -0.13565933479E+02 -0.55301950049E+02  0.97582012982E+02  0.60626593004E+02 0.  0.
         23    2    1    2    0    0 -0.49674249510E+02 -0.28227059952E+01 -0.80075050396E+02  0.13795453434E+03  0.10071713416E+03 0.  0.
        -11    1    4    4    0    0 -0.34587751669E+02 -0.46103404029E+02 -0.70621616485E+02  0.91155082928E+02  0.00000000000E+00 0.  1.
         11    1    4    4    0    0 -0.15086497842E+02  0.43280698033E+02 -0.94534339101E+01  0.46799451408E+02  0.00000000000E+00 0. -1.
        -11    1    3    3    0    0  0.25993933445E+02 -0.37575005879E+02 -0.30378583592E+02  0.54867330752E+02  0.00000000000E+00 0.  1.
         11    1    3    3    0    0  0.25038656612E+02  0.24009072400E+02 -0.24923366457E+02  0.42714682230E+02  0.00000000000E+00 0. -1.
         21    1    1    2  503  501 -0.27051138024E+02  0.98662572842E+00 -0.57382601873E+02  0.63446832044E+02  0.00000000000E+00 0. -1.
         -3    1    1    2    0  502  0.25692797478E+02  0.15402013746E+02  0.40015219616E+02  0.49985594630E+02  0.00000000000E+00 0.  1.
<scales pt_clust_5="13000.00000" pt_clust_6="13000.00000" pt_clust_7="13000.00000" pt_clust_8="13000.00000" pt_clust_9="27.06912" pt_clust_10="29.36414"></scales>
<clustering>
<clus scale="   27.069">  2  9  1 -1</clus>
<clus scale="   29.364">  1 10  2 -1</clus>
<clus scale="   60.627">  7  8 -1 -1</clus>
<clus scale="   78.421">  2  7  1 -1</clus>
<clus scale="  100.717">  5  6 -1 -1</clus>
<clus scale="   29.364">  1  5  2 -1</clus>
</clustering>
</event>
<event>
10    2  0.3984345E-006  0.2580066E+03  0.7546771E-02  0.1108354E+00
          1   -1    0    0  503    0 -0.00000000000E+00  0.00000000000E+00  0.52694458992E+03  0.52694458992E+03  0.00000000000E+00 0. -1.
         21   -1    0    0  501  502  0.00000000000E+00 -0.00000000000E+00 -0.86459859738E+03  0.86459859738E+03  0.00000000000E+00 0.  1.
         23    2    1    2    0    0  0.18547009303E+03  0.18353655894E+03  0.13132549092E+03  0.30605977011E+03  0.91331125229E+02 0.  0.
         23    2    1    2    0    0 -0.20175616626E+03 -0.88860701972E+02 -0.66876504012E+03  0.71004557795E+03  0.91193579291E+02 0.  0.
        -11    1    3    3    0    0  0.31093924501E+02  0.82090237343E+02  0.18838009726E+02  0.89780342048E+02  0.00000000000E+00 0.  1.
         11    1    3    3    0    0  0.15437616853E+03  0.10144632160E+03  0.11248748120E+03  0.21627942806E+03  0.00000000000E+00 0. -1.
        -11    1    4    4    0    0 -0.93213527492E+02 -0.90424367421E+02 -0.35150893552E+03  0.37473171694E+03  0.00000000000E+00 0.  1.
         11    1    4    4    0    0 -0.10854263877E+03  0.15636654494E+01 -0.31725610459E+03  0.33531386100E+03  0.00000000000E+00 0. -1.
         21    1    1    2  503  502  0.18362825721E+02 -0.51924961605E+02  0.27954543925E+03  0.28491937037E+03  0.00000000000E+00 0. -1.
          1    1    1    2  501    0 -0.20767524928E+01 -0.42750895366E+02 -0.79759897520E+02  0.90518468877E+02  0.00000000000E+00 0. -1.
<scales pt_clust_5="13000.00000" pt_clust_6="13000.00000" pt_clust_7="13000.00000" pt_clust_8="13000.00000" pt_clust_9="55.21285" pt_clust_10="42.80131"></scales>
<clustering>
<clus scale="   42.801">  2 10  1 -1</clus>
<clus scale="   55.213">  1  9  2 -1</clus>
<clus scale="   91.194">  7  8 -1 -1</clus>
<clus scale="   91.331">  5  6 -1 -1</clus>
<clus scale="  257.958">  2  7  1 -1</clus>
<clus scale="   42.801">  2  5  1 -1</clus>
</clustering>
</event>
<event>
10    2  0.3984345E-006  0.3299348E+03  0.7546771E-02  0.1071281E+00
         21   -1    0    0  503  502  0.00000000000E+00  0.00000000000E+00  0.68343932158E+03  0.68343932158E+03  0.00000000000E+00 0. -1.
         -1   -1    0    0    0  501 -0.00000000000E+00 -0.00000000000E+00 -0.59968798778E+03  0.59968798778E+03  0.00000000000E+00 0.  1.
         23    2    1    2    0    0  0.13002804087E+03  0.15582626637E+03 -0.32231081405E+03  0.39135177024E+03  0.89904563360E+02 0.  0.
         23    2    1    2    0    0 -0.26323158192E+03 -0.22650297831E+03  0.24374806169E+03  0.43448479057E+03  0.93645345598E+02 0.  0.
        -11    1    3    3    0    0  0.14315889844E+03  0.13641510487E+03 -0.27703523973E+03  0.34037049680E+03  0.00000000000E+00 0.  1.
         11    1    3    3    0    0 -0.13130857574E+02  0.19411161501E+02 -0.45275574319E+02  0.50981273438E+02  0.00000000000E+00 0. -1.
        -13    1    4    4    0    0 -0.13869157548E+03 -0.10245439000E+03  0.66370503366E+02  0.18476281784E+03  0.00000000000E+00 0.  1.
         13    1    4    4    0    0 -0.12454000645E+03 -0.12404858831E+03  0.17737755832E+03  0.24972197273E+03  0.00000000000E+00 0. -1.
         21    1    1    2  503  501  0.16664843744E+03  0.31836800863E+02 -0.95321646920E+02  0.19460601214E+03  0.00000000000E+00 0.  1.
         -1    1    1    2    0  502 -0.33444896386E+02  0.38839911083E+02  0.25763573308E+03  0.26268473642E+03  0.00000000000E+00 0.  1.
<scales pt_clust_5="13000.00000" pt_clust_6="13000.00000" pt_clust_7="13000.00000" pt_clust_8="13000.00000" pt_clust_9="166.74571" pt_clust_10="51.25524"></scales>
<clustering>
<clus scale="   51.255">  1 10  2 -1</clus>
<clus scale="   89.905">  5  6 -1 -1</clus>
<clus scale="   93.645">  7  8 -1 -1</clus>
<clus scale="  166.746">  2  9  1 -1</clus>
<clus scale="  328.893">  2  5  1 -1</clus>
<clus scale="   51.255">  1  5  2 -1</clus>
</clustering>
</event>
<event>
10    2  0.3984345E-006  0.1524118E+03  0.7546771E-02  0.1197587E+00
          2   -1    0    0  503    0 -0.00000000000E+00  0.00000000000E+00  0.10563725317E+04  0.10563725317E+04  0.00000000000E+00 0. -1.
         21   -1    0    0  501  502  0.00000000000E+00 -0.00000000000E+00 -0.62662586630E+02  0.62662586630E+02  0.00000000000E+00 0. -1.
         23    2    1    2    0    0  0.62491825444E+02  0.90819432980E+02  0.49281188131E+03  0.51335930572E+03  0.92308335270E+02 0.  0.
         23    2    1    2    0    0 -0.96192022782E+02 -0.98614316293E+02  0.45081837458E+03  0.48039875812E+03  0.92563876991E+02 0.  0.
        -11    1    4    4    0    0 -0.33980354665E+02  0.14405359532E+02  0.95413899006E+02  0.10230342619E+03  0.00000000000E+00 0. -1.
         11    1    4    4    0    0 -0.62211668117E+02 -0.11301967583E+03  0.35540447557E+03  0.37809533193E+03  0.00000000000E+00 0.  1.
        -13    1    3    3    0    0  0.50753128571E+02  0.76946069330E+01  0.27850725102E+03  0.28319847440E+03  0.00000000000E+00 0.  1.
         13    1    3    3    0    0  0.11738696873E+02  0.83124826047E+02  0.21430463029E+03  0.23016083132E+03  0.00000000000E+00 0. -1.
         21    1    1    2  503  502  0.18347344099E+02  0.21712605191E+02  0.82242513514E+02  0.87016626507E+02  0.00000000000E+00 0. -1.
          2    1    1    2  501    0  0.15352853239E+02 -0.13917721878E+02 -0.32162824296E+02  0.38260428011E+02  0.00000000000E+00 0. -1.
<scales pt_clust_5="13000.00000" pt_clust_6="13000.00000" pt_clust_7="13000.00000" pt_clust_8="13000.00000" pt_clust_9="28.42082" pt_clust_10="20.72228"></scales>
<clustering>
<clus scale="   20.722">  2 10  1 -1</clus>
<clus scale="   28.421">  2  9  1 -1</clus>
<clus scale="   92.308">  7  8 -1 -1</clus>
<clus scale="   92.564">  5  6 -1 -1</clus>
<clus scale="  152.257">  1  7  2 -1</clus>
<clus scale="   20.722">  2  5  1 -1</clus>
</clustering>
</event>
<event>
10    2  0.3984345E-006  0.1036560E+03  0.7546771E-02  0.1273711E+00
         -3   -1    0    0    0  501 -0.00000000000E+00  0.00000000000E+00  0.18852278745E+03  0.18852278745E+03  0.00000000000E+00 0.  1.
         21   -1    0    0  503  502  0.00000000000E+00 -0.00000000000E+00 -0.33400709886E+03  0.33400709886E+03  0.00000000000E+00 0.  1.
         23    2    1    2    0    0  0.13315106393E+02  0.48063817557E+02  0.27952828520E+02  0.10782033969E+03  0.91413578927E+02 0.  0.
         23    2    1    2    0    0 -0.26884673916E+02 -0.29208032972E+02  0.54840819552E+01  0.10166833927E+03  0.93437043908E+02 0.  0.
        -11    1    3    3    0    0  0.37443043666E+02 -0.12047480663E+02  0.11764622482E+02  0.41055202489E+02  0.00000000000E+00 0. -1.
         11    1    3    3    0    0 -0.24127937273E+02  0.60111298220E+02  0.16188206038E+02  0.66765137201E+02  0.00000000000E+00 0.  1.
        -13    1    4    4    0    0 -0.28489408367E+02  0.25598860590E+02 -0.17631962642E+02  0.42164370732E+02  0.00000000000E+00 0.  1.
         13    1    4    4    0    0  0.16047344517E+01 -0.54806893561E+02  0.23116044597E+02  0.59503968543E+02  0.00000000000E+00 0. -1.
         21    1    1    2  503  501  0.40159857647E+02  0.35787723571E+01  0.59621636292E+02  0.71974726759E+02  0.00000000000E+00 0.  1.
         -3    1    1    2    0  502 -0.26590290124E+02 -0.22434556942E+02 -0.23854285818E+03  0.24106648058E+03  0.00000000000E+00 0.  1.
<scales pt_clust_5="13000.00000" pt_clust_6="13000.00000" pt_clust_7="13000.00000" pt_clust_8="13000.00000" pt_clust_9="38.47420" pt_clust_10="34.79013"></scales>
<clustering>
<clus scale="   34.790">  2 10  1 -1</clus>
<clus scale="   38.474">  1  9  2 -1</clus>
<clus scale="   91.414">  5  6 -1 -1</clus>
<clus scale="   93.437">  7  8 -1 -1</clus>
<clus scale="  101.836">  1  5  2 -1</clus>
<clus scale="   34.790">  2  5  1 -1</clus>
</clustering>
</event>
<event>
10    2  0.3984345E-006  0.1431354E+03  0.7546771E-02  0.1209210E+00
          3   -1    0    0  503    0 -0.00000000000E+00  0.00000000000E+00  0.14779240288E+03  0.14779240288E+03  0.00000000000E+00 0. -1.
         21   -1    0    0  501  502  0.00000000000E+00 -0.00000000000E+00 -0.44083796962E+03  0.44083796962E+03  0.00000000000E+00 0. -1.
         23    2    1    2    0    0  0.10565948796E+03  0.67840669461E+00  0.78554690445E+02  0.16016146360E+03  0.91194667615E+02 0.  0.
         23    2    1    2    0    0 -0.93519893031E+02  0.12318801777E+02 -0.28363070255E+03  0.31256122635E+03  0.91380640848E+02 0.  0.
        -13    1    4    4    0    0 -0.31426947286E+02 -0.27308139423E+02 -0.18403570374E+03  0.18868632103E+03  0.00000000000E+00 0. -1.
         13    1    4    4    0    0 -0.62092945745E+02  0.39626941200E+02 -0.99594998808E+02  0.12387490532E+03  0.00000000000E+00 0.  1.
        -13    1    3    3    0    0  0.92218402072E+02 -0.24377309867E+02  0.88421571628E+02  0.13006483478E+03  0.00000000000E+00 0. -1.
         13    1    3    3    0    0  0.13441085883E+02  0.25055716562E+02 -0.98668811830E+01  0.30096628822E+02  0.00000000000E+00 0.  1.
         21    1    1    2  503  502  0.59041336180E+01 -0.30593657945E+02 -0.81540112626E+01  0.32207430819E+02  0.00000000000E+00 0.  1.
          3    1    1    2  501    0 -0.18043728543E+02  0.17596449474E+02 -0.79815543379E+02  0.83700251724E+02  0.00000000000E+00 0. -1.
<scales pt_clust_5="13000.00000" pt_clust_6="13000.00000" pt_clust_7="13000.00000" pt_clust_8="13000.00000" pt_clust_9="30.00586" pt_clust_10="25.20340"></scales>
<clustering>
<clus scale="   25.203">  2 10  1 -1</clus>
<clus scale="   30.006">  1  9  2 -1</clus>
<clus scale="   91.195">  7  8 -1 -1</clus>
<clus scale="   91.381">  5  6 -1 -1</clus>
<clus scale="  143.017">  1  7  2 -1</clus>
<clus scale="   25.203">  2  5  1 -1</clus>
</clustering>
</event>
<event>
10    2  0.3984345E-006  0.9608173E+02  0.7546771E-02  0.1289722E+00
          1   -1    0    0  503    0 -0.00000000000E+00  0.00000000000E+00  0.36122758736E+03  0.36122758736E+03  0.00000000000E+00 0. -1.
         21   -1    0    0  501  502  0.00000000000E+00 -0.00000000000E+00 -0.67555486463E+02  0.67555486463E+02  0.00000000000E+00 0.  1.
         23    2    1    2    0    0 -0.74571170611E+01 -0.11493624982E+02  0.16220767784E+03  0.18722262680E+03  0.92483886305E+02 0.  0.
         23    2    1    2    0    0  0.30074104478E+02 -0.32306005938E+02  0.95849239544E+02  0.14147879539E+03  0.94239286098E+02 0.  0.
        -11    1    4    4    0    0  0.11656325345E+02  0.25281779297E+02 -0.36804999051E+00  0.27841942205E+02  0.00000000000E+00 0.  1.
         11    1    4    4    0    0  0.18417779133E+02 -0.57587785235E+02  0.96217289535E+02  0.11363685319E+03  0.00000000000E+00 0. -1.
        -13    1    3    3    0    0  0.26989818023E+02 -0.15309386695E+01  0.14490978814E+03  0.14740977155E+03  0.00000000000E+00 0.  1.
         13    1    3    3    0    0 -0.34446935084E+02 -0.99626863127E+01  0.17297889705E+02  0.39812855255E+02  0.00000000000E+00 0. -1.
         21    1    1    2  503  502 -0.13095148990E+02 -0.18041908081E+02  0.29836234864E+02  0.37245057190E+02  0.00000000000E+00 0. -1.
          1    1    1    2  501    0 -0.95218384274E+01  0.61841539001E+02  0.57789486458E+01  0.62836594437E+02  0.00000000000E+00 0. -1.
<scales pt_clust_5="13000.00000" pt_clust_6="13000.00000" pt_clust_7="13000.00000" pt_clust_8="13000.00000" pt_clust_9="22.29335" pt_clust_10="60.93414"></scales>
<clustering>
<clus scale="   22.293">  1  9  2 -1</clus>
<clus scale="   60.934">  2 10  1 -1</clus>
<clus scale="   92.484">  7  8 -1 -1</clus>
<clus scale="   94.239">  5  6 -1 -1</clus>
<clus scale="   94.361">  1  7  2 -1</clus>
<clus scale="   60.934">  2  5  1 -1</clus>
</clustering>
</event>
<event>
10    2  0.3984345E-006  0.1149704E+03  0.7546771E-02  0.1258591E+00
          2   -1    0    0  503    0 -0.00000000000E+00  0.00000000000E+00  0.63525040826E+03  0.63525040826E+03  0.00000000000E+00 0. -1.
         21   -1    0    0  501  502  0.00000000000E+00 -0.00000000000E+00 -0.33959615161E+02  0.33959615161E+02  0.00000000000E+00 0.  1.
         23    2    1    2    0    0 -0.16488121441E+02  0.35255578871E+02  0.26303282562E+03  0.28689621676E+03  0.10774208950E+03 0.  0.
         23    2    1    2    0    0  0.14994815866E+02 -0.34725610351E+02  0.17406462222E+03  0.20038039518E+03  0.91777434852E+02 0.  0.
        -13    1    3    3    0    0  0.27331591016E+02 -0.34904949361E+01  0.13657360096E+02  0.30752608136E+02  0.00000000000E+00 0.  1.
         13    1    3    3    0    0 -0.43819712456E+02  0.38746073807E+02  0.24937546552E+03  0.25614360863E+03  0.00000000000E+00 0. -1.
        -13    1    4    4    0    0  0.28182433677E+02 -0.61403245325E+02  0.13777679355E+03  0.15345049021E+03  0.00000000000E+00 0.  1.
         13    1    4    4    0    0 -0.13187617811E+02  0.26677634974E+02  0.36287828674E+02  0.46929904978E+02  0.00000000000E+00 0. -1.
         21    1    1    2  503  502 -0.23305625736E+02  0.15632253729E+02  0.14249389175E+03  0.14523094964E+03  0.00000000000E+00 0.  1.
          2    1    1    2  501    0  0.24798931310E+02 -0.16162222249E+02  0.21699453512E+02  0.36702461837E+02  0.00000000000E+00 0. -1.
<scales pt_clust_5="13000.00000" pt_clust_6="13000.00000" pt_clust_7="13000.00000" pt_clust_8="13000.00000" pt_clust_9="28.06278" pt_clust_10="27.93326"></scales>
<clustering>
<clus scale="   28.063">  1  9  2 -1</clus>
<clus scale="   27.933">  2 10  1 -1</clus>
<clus scale="   91.777">  7  8 -1 -1</clus>
<clus scale="  100.165">  2  7  1 -1</clus>
<clus scale="  107.742">  5  6 -1 -1</clus>
<clus scale="   27.933">  2  5  1 -1</clus>
</clustering>
</event>
<event>
10    2  0.3984345E-006  0.9667743E+02  0.7546771E-02  0.1289605E+00
          1   -1    0    0  503    0 -0.00000000000E+00  0.00000000000E+00  0.95670411462E+03  0.95670411462E+03  0.00000000000E+00 0. -1.
         21   -1    0    0  501  502  0.00000000000E+00 -0.00000000000E+00 -0.36833807994E+02  0.36833807994E+02  0.00000000000E+00 0.  1.
         23    2    1    2    0    0 -0.67476555952E+01 -0.13070768793E+02  0.38547235088E+03  0.39647683149E+03  0.91589130167E+02 0.  0.
         23    2    1    2    0    0  0.20326254336E+02  0.17922819386E+02  0.28637021895E+03  0.30308391251E+03  0.95485976191E+02 0.  0.
        -11    1    3    3    0    0 -0.41313399196E+02  0.17085761642E+02  0.23313484264E+03  0.23738276065E+03  0.00000000000E+00 0.  1.
         11    1    3    3    0    0  0.34565743601E+02 -0.30156530435E+02  0.15233750824E+03  0.15909407084E+03  0.00000000000E+00 0. -1.
        -11    1    4    4    0    0 -0.12636657695E+02  0.44049061501E+02  0.21837069859E+03  0.22312724383E+03  0.00000000000E+00 0.  1.
         11    1    4    4    0    0  0.32962912031E+02 -0.26126242115E+02  0.67999520359E+02  0.79956668676E+02  0.00000000000E+00 0. -1.
         21    1    1    2  503  502 -0.27076310977E+01  0.43553206387E+02  0.23973961239E+03  0.24367867121E+03  0.00000000000E+00 0.  1.
          1    1    1    2  501    0 -0.10870967643E+02 -0.48405256980E+02  0.82881244027E+01  0.50298507403E+02  0.00000000000E+00 0. -1.
<scales pt_clust_5="13000.00000" pt_clust_6="13000.00000" pt_clust_7="13000.00000" pt_clust_8="13000.00000" pt_clust_9="43.63729" pt_clust_10="47.89686"></scales>
<clustering>
<clus scale="   43.637">  1  9  2 -1</clus>
<clus scale="   47.897">  2 10  1 -1</clus>
<clus scale="   91.589">  5  6 -1 -1</clus>
<clus scale="   92.831">  1  5  2 -1</clus>
<clus scale="   95.486">  7  8 -1 -1</clus>
<clus scale="   47.897">  2  5  1 -1</clus>
</clustering>
</event>
<event>
10    2  0.3984345E-006  0.1590170E+03  0.7546771E-02  0.1221395E+00
         21   -1    0    0  501  502  0.00000000000E+00  0.00000000000E+00  0.85118088889E+02  0.85118088889E+02  0.00000000000E+00 0.  1.
         -1   -1    0    0    0  501 -0.00000000000E+00 -0.00000000000E+00 -0.57777305075E+03  0.57777305075E+03  0.00000000000E+00 0.  1.
         23    2    1    2    0    0 -0.12190971615E+01  0.47080899027E+01 -0.11536671192E+03  0.14073002333E+03  0.80447553970E+02 0.  0.
         23    2    1    2    0    0 -0.12670288652E+03 -0.26011260186E+02 -0.34771286340E+03  0.38226054863E+03  0.92134057503E+02 0.  0.
        -13    1    3    3    0    0 -0.40558252421E+02  0.61212431074E+01 -0.53760221665E+02  0.67621024024E+02  0.00000000000E+00 0.  1.
         13    1    3    3    0    0  0.39339155259E+02 -0.14131532047E+01 -0.61606490256E+02  0.73108999310E+02  0.00000000000E+00 0. -1.
        -13    1    4    4    0    0 -0.32654922783E+02  0.32520227311E+02 -0.13113495074E+03  0.13899742613E+03  0.00000000000E+00 0. -1.
         13    1    4    4    0    0 -0.94047963738E+02 -0.58531487498E+02 -0.21657791267E+03  0.24326312250E+03  0.00000000000E+00 0.  1.
         21    1    1    2  503  502  0.54308201566E+02  0.15060125195E+02 -0.34122507255E+02  0.65882726337E+02  0.00000000000E+00 0.  1.
         -1    1    1    2    0  503  0.73613782116E+02  0.62430450888E+01  0.45471207213E+01  0.74017841337E+02  0.00000000000E+00 0.  1.
<scales pt_clust_5="13000.00000" pt_clust_6="13000.00000" pt_clust_7="13000.00000" pt_clust_8="13000.00000" pt_clust_9="37.86625" pt_clust_10="136.66504"></scales>
<clustering>
<clus scale="   37.866">  9 10 -1 -1</clus>
<clus scale="   80.448">  5  6 -1 -1</clus>
<clus scale="   80.594">  2  5  1 -1</clus>
<clus scale="   92.134">  7  8 -1 -1</clus>
<clus scale="  136.665">  1  9  2 -1</clus>
<clus scale="  136.665">  1  5  2 -1</clus>
</clustering>
</event>
<event>
10    2  0.3984345E-006  0.1396474E+03  0.7546771E-02  0.1214170E+00
          2   -1    0    0  503    0 -0.00000000000E+00  0.00000000000E+00  0.68821642360E+03  0.68821642360E+03  0.00000000000E+00 0. -1.
         21   -1    0    0  501  502  0.00000000000E+00 -0.00000000000E+00 -0.61799567981E+02  0.61799567981E+02  0.00000000000E+00 0.  1.
         23    2    1    2    0    0 -0.56996947608E+02 -0.10621422128E+03  0.44500872951E+03  0.46989641346E+03  0.90773108419E+02 0.  0.
         23    2    1    2    0    0  0.37056470380E+02  0.10552927147E+03  0.81497060345E+02  0.16640701524E+03  0.92411659136E+02 0.  0.
        -11    1    3    3    0    0 -0.17381325889E+02 -0.71248156728E+02  0.37544164954E+03  0.38253737404E+03  0.00000000000E+00 0. -1.
         11    1    3    3    0    0 -0.39615621719E+02 -0.34966064552E+02  0.69567079962E+02  0.87359039422E+02  0.00000000000E+00 0.  1.
        -11    1    4    4    0    0  0.42763530348E+02  0.66628632331E+02  0.96058381548E+02  0.12448014637E+03  0.00000000000E+00 0. -1.
         11    1    4    4    0    0 -0.57070599675E+01  0.38900639135E+02 -0.14561321203E+02  0.41926868876E+02  0.00000000000E+00 0.  1.
         21    1    1    2  503  502  0.82231557701E+01  0.24637282664E+02  0.63290309910E+02  0.68412566948E+02  0.00000000000E+00 0. -1.
          2    1    1    2  501    0  0.11717321457E+02 -0.23952332850E+02  0.36620755859E+02  0.45299995925E+02  0.00000000000E+00 0. -1.
<scales pt_clust_5="13000.00000" pt_clust_6="13000.00000" pt_clust_7="13000.00000" pt_clust_8="13000.00000" pt_clust_9="25.97337" pt_clust_10="25.47427"></scales>
<clustering>
<clus scale="   25.973">  1  9  2 -1</clus>
<clus scale="   25.474">  2 10  1 -1</clus>
<clus scale="   90.773">  5  6 -1 -1</clus>
<clus scale="   92.412">  7  8 -1 -1</clus>
<clus scale="  138.568">  1  5  2 -1</clus>
<clus scale="   25.474">  2  5  1 -1</clus>
</clustering>
</event>
<event>
10    2  0.3984345E-006  0.1250914E+03  0.7546771E-02  0.1238967E+00
          1   -1    0    0  502    0 -0.00000000000E+00  0.00000000000E+00  0.65911307882E+02  0.65911307882E+02  0.00000000000E+00 0. -1.
         21   -1    0    0  503  502  0.00000000000E+00 -0.00000000000E+00 -0.69052763041E+03  0.69052763041E+03  0.00000000000E+00 0.  1.
         23    2    1    2    0    0 -0.41359843498E+02  0.61097640772E+02 -0.32550256263E+02  0.13228858069E+03  0.10486749275E+03 0.  0.
         23    2    1    2    0    0 -0.27251684634E+02 -0.67277621205E+02 -0.32009936473E+03  0.34110118155E+03  0.92830383603E+02 0.  0.
        -13    1    3    3    0    0 -0.16738413808E+02  0.85796277663E+02 -0.40776793825E+02  0.96456843574E+02  0.00000000000E+00 0.  1.
         13    1    3    3    0    0 -0.24621429690E+02 -0.24698636892E+02  0.82265375618E+01  0.35831737113E+02  0.00000000000E+00 0. -1.
        -13    1    4    4    0    0 -0.52549869525E+02 -0.67915862381E+02 -0.28615350520E+03  0.29876057586E+03  0.00000000000E+00 0. -1.
         13    1    4    4    0    0  0.25298184890E+02  0.63824117581E+00 -0.33945859535E+02  0.42340605689E+02  0.00000000000E+00 0.  1.
         21    1    1    2  503  501  0.32282710107E+02  0.21341852329E+02 -0.12123799124E+03  0.12726467912E+03  0.00000000000E+00 0.  1.
          1    1    1    2  501    0  0.36328818026E+02 -0.15161871896E+02 -0.15072871030E+03  0.15578449694E+03  0.00000000000E+00 0. -1.
<scales pt_clust_5="13000.00000" pt_clust_6="13000.00000" pt_clust_7="13000.00000" pt_clust_8="13000.00000" pt_clust_9="37.16759" pt_clust_10="78.42799"></scales>
<clustering>
<clus scale="   37.168">  9 10 -1 -1</clus>
<clus scale="   78.428">  2  9  1 -1</clus>
<clus scale="   92.830">  7  8 -1 -1</clus>
<clus scale="  104.867">  5  6 -1 -1</clus>
<clus scale="  115.187">  2  7  1 -1</clus>
<clus scale="   78.428">  2  5  1 -1</clus>
</clustering>
</event>
<event>
10    2  0.3984345E-006  0.1011443E+03  0.7546771E-02  0.1284042E+00
         21   -1    0    0  501  502  0.00000000000E+00  0.00000000000E+00  0.68906007941E+03  0.68906007941E+03  0.00000000000E+00 0. -1.
          2   -1    0    0  503    0 -0.00000000000E+00 -0.00000000000E+00 -0.17630457076E+03  0.17630457076E+03  0.00000000000E+00 0. -1.
         23    2    1    2    0    0 -0.26078760877E+01 -0.51626968067E+01 -0.62114369449E+01  0.83130469378E+02  0.82696061177E+02 0.  0.
         23    2    1    2    0    0 -0.73862966982E+02  0.48680946434E+02  0.67635857154E+02  0.14617070090E+03  0.94687339129E+02 0.  0.
        -11    1    3    3    0    0 -0.16817358881E+02 -0.21573864315E+02 -0.36657059822E+02  0.45738334207E+02  0.00000000000E+00 0.  1.
         11    1    3    3    0    0  0.14209482793E+02  0.16411167508E+02  0.30445622878E+02  0.37392135171E+02  0.00000000000E+00 0. -1.
        -13    1    4    4    0    0 -0.25502834302E+02  0.70906143924E+02  0.48501487967E+02  0.89612890471E+02  0.00000000000E+00 0. -1.
         13    1    4    4    0    0 -0.48360132680E+02 -0.22225197490E+02  0.19134369187E+02  0.56557810428E+02  0.00000000000E+00 0.  1.
         21    1    1    2  503  502 -0.22393674542E+00 -0.42690372177E+02 -0.84552554948E+02  0.94718807913E+02  0.00000000000E+00 0. -1.
          2    1    1    2  501    0  0.76694779815E+02 -0.82787745096E+00  0.53588364338E+03  0.54134467198E+03  0.00000000000E+00 0. -1.
<scales pt_clust_5="13000.00000" pt_clust_6="13000.00000" pt_clust_7="13000.00000" pt_clust_8="13000.00000" pt_clust_9="42.69096" pt_clust_10="76.71850"></scales>
<clustering>
<clus scale="   42.691">  2  9  1 -1</clus>
<clus scale="   76.719">  1 10  2 -1</clus>
<clus scale="   82.696">  5  6 -1 -1</clus>
<clus scale="   90.017">  2  5  1 -1</clus>
<clus scale="   94.687">  7  8 -1 -1</clus>
<clus scale="   76.719">  1  5  2 -1</clus>
</clustering>
</event>
<event>
10    2  0.3984345E-006  0.1054761E+03  0.7546771E-02  0.1270396E+00
          2   -1    0    0  503    0 -0.00000000000E+00  0.00000000000E+00  0.49328438205E+03  0.49328438205E+03  0.00000000000E+00 0. -1.
         21   -1    0    0  501  502  0.00000000000E+00 -0.00000000000E+00 -0.40411317065E+02  0.40411317065E+02  0.00000000000E+00 0.  1.
         23    2    1    2    0    0  0.48239502007E+02 -0.20913970485E+02  0.24131443902E+03  0.26334957004E+03  0.91410578401E+02 0.  0.
         23    2    1    2    0    0 -0.50306901048E+02  0.22664322085E+02  0.14012899201E+03  0.17761203140E+03  0.94156484153E+02 0.  0.
        -11    1    3    3    0    0 -0.18507576998E+02 -0.16023684559E+02  0.18453604374E+02  0.30656555377E+02  0.00000000000E+00 0.  1.
         11    1    3    3    0    0  0.66747079005E+02 -0.48902859261E+01  0.22286083465E+03  0.23269301466E+03  0.00000000000E+00 0. -1.
        -13    1    4    4    0    0 -0.75766009939E+02  0.11704542786E+02  0.12328303471E+03  0.14517641417E+03  0.00000000000E+00 0.  1.
         13    1    4    4    0    0  0.25459108891E+02  0.10959779299E+02  0.16845957300E+02  0.32435617231E+02  0.00000000000E+00 0. -1.
         21    1    1    2  503  502 -0.20339659425E+02  0.13035392069E+02  0.57759656909E+02  0.62608315408E+02  0.00000000000E+00 0.  1.
          2    1    1    2  501    0  0.22407058465E+02 -0.14785743669E+02  0.13669977045E+02  0.30125782269E+02  0.00000000000E+00 0. -1.
<scales pt_clust_5="13000.00000" pt_clust_6="13000.00000" pt_clust_7="13000.00000" pt_clust_8="13000.00000" pt_clust_9="24.15829" pt_clust_10="25.62441"></scales>
<clustering>
<clus scale="   24.158">  1  9  2 -1</clus>
<clus scale="   25.624">  2 10  1 -1</clus>
<clus scale="   91.411">  5  6 -1 -1</clus>
<clus scale="   94.156">  7  8 -1 -1</clus>
<clus scale="  103.032">  1  5  2 -1</clus>
<clus scale="   25.624">  2  5  1 -1</clus>
</clustering>
</event>
<event>
10    2  0.3984345E-006  0.1633862E+03  0.7546771E-02  0.1185712E+00
         21   -1    0    0  501  502  0.00000000000E+00  0.00000000000E+00  0.16834490287E+03  0.16834490287E+03  0.00000000000E+00 0.  1.
          1   -1    0    0  503    0 -0.00000000000E+00 -0.00000000000E+00 -0.48498069896E+03  0.48498069896E+03  0.00000000000E+00 0. -1.
         23    2    1    2    0    0  0.65181926682E+02  0.13008024738E+03 -0.33388680346E+03  0.37639458817E+03  0.94989126526E+02 0.  0.
         23    2    1    2    0    0 -0.28886359293E+02 -0.89344067165E+02  0.66962342454E+02  0.14630375821E+03  0.90022498684E+02 0.  0.
        -13    1    4    4    0    0 -0.56907827017E+02 -0.32127232196E+02  0.24758871206E+02  0.69883199180E+02  0.00000000000E+00 0. -1.
         13    1    4    4    0    0  0.28021467723E+02 -0.57216834970E+02  0.42203471248E+02  0.76420559032E+02  0.00000000000E+00 0.  1.
        -13    1    3    3    0    0  0.27322375897E+02  0.30258378870E+02 -0.21131505891E+02  0.45919737126E+02  0.00000000000E+00 0.  1.
         13    1    3    3    0    0  0.37859550785E+02  0.99821868511E+02 -0.31275529757E+03  0.33047485105E+03  0.00000000000E+00 0. -1.
         21    1    1    2  503  502  0.24613826209E+02 -0.19312053122E+02 -0.57631617607E+02  0.65575903992E+02  0.00000000000E+00 0.  1.
          1    1    1    2  501    0 -0.60909393598E+02 -0.21424127093E+02  0.79202825243E+01  0.65051351450E+02  0.00000000000E+00 0. -1.
<scales pt_clust_5="13000.00000" pt_clust_6="13000.00000" pt_clust_7="13000.00000" pt_clust_8="13000.00000" pt_clust_9="31.28571" pt_clust_10="63.45808"></scales>
<clustering>
<clus scale="   31.286">  2  9  1 -1</clus>
<clus scale="   63.458">  1 10  2 -1</clus>
<clus scale="   90.022">  5  6 -1 -1</clus>
<clus scale="   94.989">  7  8 -1 -1</clus>
<clus scale="  160.550">  1  5  2 -1</clus>
<clus scale="   63.458">  1  5  2 -1</clus>
</clustering>
</event>
<event>
10    2  0.3984345E-006  0.9709594E+02  0.7546771E-02  0.1287266E+00
         21   -1    0    0  501  502  0.00000000000E+00  0.00000000000E+00  0.19830421253E+03  0.19830421253E+03  0.00000000000E+00 0. -1.
          1   -1    0    0  503    0 -0.00000000000E+00 -0.00000000000E+00 -0.51710179436E+03  0.51710179436E+03  0.00000000000E+00 0. -1.
         23    2    1    2    0    0  0.41750762532E+02  0.76610368757E+01 -0.29956021561E+03  0.31585532361E+03  0.90699752030E+02 0.  0.
         23    2    1    2    0    0  0.35186168675E+01  0.50593666882E+02 -0.13094419690E+03  0.16638919516E+03  0.89257390572E+02 0.  0.
        -13    1    4    4    0    0  0.28083301134E+02  0.66587549776E+02 -0.81649359151E+02  0.10903756893E+03  0.00000000000E+00 0. -1.
         13    1    4    4    0    0 -0.24564684266E+02 -0.15993882894E+02 -0.49294837750E+02  0.57351626236E+02  0.00000000000E+00 0.  1.
        -13    1    3    3    0    0 -0.25652443932E+02  0.15937217321E+01 -0.14304197866E+03  0.14533270619E+03  0.00000000000E+00 0.  1.
         13    1    3    3    0    0  0.67403206464E+02  0.60673151436E+01 -0.15651823694E+03  0.17052261742E+03  0.00000000000E+00 0. -1.
         21    1    1    2  503  502  0.68099273986E+01 -0.27343269867E+02 -0.51706764534E+02  0.58886492651E+02  0.00000000000E+00 0.  1.
          1    1    1    2  501    0 -0.52079306798E+02 -0.30911433891E+02  0.16341359522E+03  0.17427499546E+03  0.00000000000E+00 0. -1.
<scales pt_clust_5="13000.00000" pt_clust_6="13000.00000" pt_clust_7="13000.00000" pt_clust_8="13000.00000" pt_clust_9="28.17853" pt_clust_10="60.65821"></scales>
<clustering>
<clus scale="   28.179">  2  9  1 -1</clus>
<clus scale="   60.658">  1 10  2 -1</clus>
<clus scale="   89.257">  5  6 -1 -1</clus>
<clus scale="   90.700">  7  8 -1 -1</clus>
<clus scale="   95.750">  1  5  2 -1</clus>
<clus scale="   60.658">  1  5  2 -1</clus>
</clustering>
</event>
<event>
10    2  0.3984345E-006  0.1113747E+03  0.7546771E-02  0.1258658E+00
         -3   -1    0    0    0  501 -0.00000000000E+00  0.00000000000E+00  0.22645974761E+03  0.22645974761E+03  0.00000000000E+00 0.  1.
         21   -1    0    0  503  502  0.00000000000E+00 -0.00000000000E+00 -0.44709774793E+03  0.44709774793E+03  0.00000000000E+00 0.  1.
         23    2    1    2    0    0  0.11036219951E+02 -0.90498894280E+02  0.11902807438E+03  0.17543325890E+03  0.91089504456E+02 0.  0.
         23    2    1    2    0    0 -0.14605330652E+01  0.26328343644E+02 -0.65132922896E+02  0.11374941565E+03  0.89450081492E+02 0.  0.
        -11    1    4    4    0    0  0.43996444607E+02  0.12474986043E+02 -0.31428518961E+02  0.55489316259E+02  0.00000000000E+00 0. -1.
         11    1    4    4    0    0 -0.45456977672E+02  0.13853357601E+02 -0.33704403935E+02  0.58260099387E+02  0.00000000000E+00 0.  1.
        -11    1    3    3    0    0 -0.36737557093E+02 -0.38195785531E+02  0.27533489520E+02  0.59721513533E+02  0.00000000000E+00 0.  1.
         11    1    3    3    0    0  0.47773777044E+02 -0.52303108750E+02  0.91494584861E+02  0.11571174537E+03  0.00000000000E+00 0. -1.
         21    1    1    2  503  501  0.43198412875E+00  0.20707531884E+02  0.51393825656E+02  0.55410412402E+02  0.00000000000E+00 0. -1.
         -3    1    1    2    0  502 -0.10007671015E+02  0.43463018752E+02 -0.32592697746E+03  0.32896440858E+03  0.00000000000E+00 0.  1.
<scales pt_clust_5="13000.00000" pt_clust_6="13000.00000" pt_clust_7="13000.00000" pt_clust_8="13000.00000" pt_clust_9="20.71204" pt_clust_10="44.77657"></scales>
<clustering>
<clus scale="   20.712">  1  9  2 -1</clus>
<clus scale="   44.777">  2 10  1 -1</clus>
<clus scale="   89.450">  5  6 -1 -1</clus>
<clus scale="   91.090">  7  8 -1 -1</clus>
<clus scale="  110.038">  2  5  1 -1</clus>
<clus scale="   44.777">  2  5  1 -1</clus>
</clustering>
</event>
<event>
10    2  0.3984345E-006  0.1281483E+03  0.7546771E-02  0.1230863E+00
          1   -1    0    0  503    0 -0.00000000000E+00  0.00000000000E+00  0.69119571234E+03  0.69119571234E+03  0.00000000000E+00 0. -1.
         21   -1    0    0  501  502  0.00000000000E+00 -0.00000000000E+00 -0.96104562955E+02  0.96104562955E+02  0.00000000000E+00 0. -1.
         23    2    1    2    0    0  0.68918893778E+02 -0.12016877081E+03  0.48765758011E+03  0.51496633526E+03  0.90498970248E+02 0.  0.
         23    2    1    2    0    0 -0.21888665327E+02  0.23036782325E+02  0.92240816384E+02  0.13465587310E+03  0.92811793126E+02 0.  0.
        -11    1    4    4    0    0 -0.54380825067E+02  0.26074407808E+02  0.79117207575E+02  0.99482065781E+02  0.00000000000E+00 0.  1.
         11    1    4    4    0    0  0.32492159740E+02 -0.30376254833E+01  0.13123608809E+02  0.35173807319E+02  0.00000000000E+00 0. -1.
        -13    1    3    3    0    0 -0.11450248916E+02 -0.64038276787E+02  0.15323834885E+03  0.16647522534E+03  0.00000000000E+00 0.  1.
         13    1    3    3    0    0  0.80369142694E+02 -0.56130494019E+02  0.33441923126E+03  0.34849110992E+03  0.00000000000E+00 0. -1.
         21    1    1    2  503  502 -0.10560362590E+02  0.22738310903E+02  0.43429439299E+02  0.50146467857E+02  0.00000000000E+00 0.  1.
          1    1    1    2  501    0 -0.36469865861E+02  0.74393677578E+02 -0.28236686401E+02  0.87531599085E+02  0.00000000000E+00 0. -1.
<scales pt_clust_5="13000.00000" pt_clust_6="13000.00000" pt_clust_7="13000.00000" pt_clust_8="13000.00000" pt_clust_9="25.07094" pt_clust_10="84.00529"></scales>
<clustering>
<clus scale="   25.071">  1  9  2 -1</clus>
<clus scale="   84.005">  2 10  1 -1</clus>
<clus scale="   90.499">  7  8 -1 -1</clus>
<clus scale="   92.812">  5  6 -1 -1</clus>
<clus scale="  126.483">  1  7  2 -1</clus>
<clus scale="   84.005">  2  5  1 -1</clus>
</clustering>
</event>
<event>
10    2  0.3984345E-006  0.1066196E+03  0.7546771E-02  0.1269189E+00
          2   -1    0    0  503    0 -0.00000000000E+00  0.00000000000E+00  0.79268865607E+03  0.79268865607E+03  0.00000000000E+00 0. -1.
         21   -1    0    0  501  502  0.00000000000E+00 -0.00000000000E+00 -0.75352488343E+02  0.75352488343E+02  0.00000000000E+00 0. -1.
         23    2    1    2    0    0  0.22649123982E+02  0.16932411746E+02  0.24073265104E+03  0.25890834348E+03  0.91003470594E+02 0.  0.
         23    2    1    2    0    0 -0.21545067183E+02  0.10463275412E+03  0.18544113242E+03  0.23457127993E+03  0.96036808680E+02 0.  0.
        -11    1    4    4    0    0 -0.23996313881E+02 -0.30973434076E+00  0.31327983256E+01  0.24201930514E+02  0.00000000000E+00 0.  1.
         11    1    4    4    0    0  0.24512466982E+01  0.10494248846E+03  0.18230833409E+03  0.21036934942E+03  0.00000000000E+00 0. -1.
        -13    1    3    3    0    0  0.23830421553E+02  0.53561249324E+02  0.14524571327E+03  0.15663018114E+03  0.00000000000E+00 0.  1.
         13    1    3    3    0    0 -0.11812975706E+01 -0.36628837578E+02  0.95486937772E+02  0.10227816234E+03  0.00000000000E+00 0. -1.
         21    1    1    2  503  502  0.45646703798E+02 -0.46458717416E+02  0.27750461465E+03  0.28504533875E+03  0.00000000000E+00 0.  1.
          2    1    1    2  501    0 -0.46750760597E+02 -0.75106448450E+02  0.13657769624E+02  0.89516182259E+02  0.00000000000E+00 0. -1.
<scales pt_clust_5="13000.00000" pt_clust_6="13000.00000" pt_clust_7="13000.00000" pt_clust_8="13000.00000" pt_clust_9="65.13090" pt_clust_10="90.23970"></scales>
<clustering>
<clus scale="   65.131">  1  9  2 -1</clus>
<clus scale="   90.240">  2 10  1 -1</clus>
<clus scale="   91.003">  7  8 -1 -1</clus>
<clus scale="   96.037">  5  6 -1 -1</clus>
<clus scale="  102.109">  1  7  2 -1</clus>
<clus scale="   90.240">  2  5  1 -1</clus>
</clustering>
</event>
<event>
10    2  0.3984345E-006  0.9429987E+02  0.7546771E-02  0.1293468E+00
         21   -1    0    0  501  502  0.00000000000E+00  0.00000000000E+00  0.51824310697E+03  0.51824310697E+03  0.00000000000E+00 0. -1.
          3   -1    0    0  503    0 -0.00000000000E+00 -0.00000000000E+00 -0.11588345848E+03  0.11588345848E+03  0.00000000000E+00 0. -1.
         23    2    1    2    0    0  0.45694958767E+02 -0.53158188928E+02 -0.20065488558E+02  0.11709566140E+03  0.91623947639E+02 0.  0.
         23    2    1    2    0    0 -0.78155414443E+01 -0.31581424523E+02  0.55950541508E+02  0.11114195208E+03  0.90352649961E+02 0.  0.
        -11    1    4    4    0    0  0.38707993788E+02 -0.94355718173E+01  0.41718896849E+02  0.57687131606E+02  0.00000000000E+00 0.  1.
         11    1    4    4    0    0 -0.46523535232E+02 -0.22145852706E+02  0.14231644659E+02  0.53454820478E+02  0.00000000000E+00 0. -1.
        -11    1    3    3    0    0  0.70192318251E+02 -0.51386341833E+02 -0.27328732828E+01  0.87034397021E+02  0.00000000000E+00 0. -1.
         11    1    3    3    0    0 -0.24497359484E+02 -0.17718470949E+01 -0.17332615275E+02  0.30061264379E+02  0.00000000000E+00 0.  1.
         21    1    1    2  503  502 -0.30819995612E+02  0.38005785082E+02  0.14897691190E+02  0.51149320934E+02  0.00000000000E+00 0. -1.
          3    1    1    2  501    0 -0.70594217103E+01  0.46733828370E+02  0.35157690435E+03  0.35473963103E+03  0.00000000000E+00 0. -1.
<scales pt_clust_5="13000.00000" pt_clust_6="13000.00000" pt_clust_7="13000.00000" pt_clust_8="13000.00000" pt_clust_9="57.28308" pt_clust_10="47.26400"></scales>
<clustering>
<clus scale="   47.264">  1 10  2 -1</clus>
<clus scale="   57.283">  2  9  1 -1</clus>
<clus scale="   90.353">  5  6 -1 -1</clus>
<clus scale="   91.624">  7  8 -1 -1</clus>
<clus scale="   93.065">  1  5  2 -1</clus>
<clus scale="   47.264">  1  5  2 -1</clus>
</clustering>
</event>
<event>
10    2  0.3984345E-006  0.9484262E+02  0.7546771E-02  0.1291932E+00
         21   -1    0    0  501  502  0.00000000000E+00  0.00000000000E+00  0.13664128971E+03  0.13664128971E+03  0.00000000000E+00 0. -1.
          2   -1    0    0  503    0 -0.00000000000E+00 -0.00000000000E+00 -0.20858364222E+03  0.20858364222E+03  0.00000000000E+00 0. -1.
         23    2    1    2    0    0 -0.29199516407E+01  0.10090056397E+02 -0.77022797583E+02  0.11960752506E+03  0.90901668559E+02 0.  0.
         23    2    1    2    0    0  0.15764470108E+02 -0.30729678577E+02 -0.30607734078E+02  0.10128602800E+03  0.90162045337E+02 0.  0.
        -13    1    3    3    0    0 -0.18951161041E+02  0.44981024627E+02 -0.60684477330E+02  0.77878397968E+02  0.00000000000E+00 0. -1.
         13    1    3    3    0    0  0.16031209400E+02 -0.34890968229E+02 -0.16338320252E+02  0.41729127088E+02  0.00000000000E+00 0.  1.
        -13    1    4    4    0    0 -0.30718361463E+02 -0.71294304796E+01 -0.37168842839E+02  0.48743916420E+02  0.00000000000E+00 0.  1.
         13    1    4    4    0    0  0.46482831571E+02 -0.23600248098E+02  0.65611087608E+01  0.52542111580E+02  0.00000000000E+00 0. -1.
         21    1    1    2  503  502 -0.55077986896E+01  0.41077619313E+02 -0.32564116723E+02  0.52707953411E+02  0.00000000000E+00 0.  1.
          2    1    1    2  501    0 -0.73367197778E+01 -0.20437997133E+02  0.68252295869E+02  0.71623425465E+02  0.00000000000E+00 0. -1.
<scales pt_clust_5="13000.00000" pt_clust_6="13000.00000" pt_clust_7="13000.00000" pt_clust_8="13000.00000" pt_clust_9="38.56327" pt_clust_10="21.71495"></scales>
<clustering>
<clus scale="   21.715">  1 10  2 -1</clus>
<clus scale="   38.563">  2  9  1 -1</clus>
<clus scale="   90.162">  7  8 -1 -1</clus>
<clus scale="   90.902">  5  6 -1 -1</clus>
<clus scale="   94.134">  1  7  2 -1</clus>
<clus scale="   21.715">  1  5  2 -1</clus>
</clustering>
</event>
<event>
10    2  0.3984345E-006  0.1915975E+03  0.7546771E-02  0.1158794E+00
          1   -1    0    0  503    0 -0.00000000000E+00  0.00000000000E+00  0.14425415022E+04  0.14425415022E+04  0.00000000000E+00 0. -1.
         21   -1    0    0  501  502  0.00000000000E+00 -0.00000000000E+00 -0.18915978361E+03  0.18915978361E+03  0.00000000000E+00 0. -1.
         23    2    1    2    0    0  0.39198097315E+02  0.15837054731E+03  0.47019853872E+03  0.50550240126E+03  0.88477628691E+02 0.  0.
         23    2    1    2    0    0  0.74992063272E+02 -0.15778818455E+03 -0.45549323276E+01  0.20316991106E+03  0.10361633372E+03 0.  0.
        -11    1    4    4    0    0 -0.21920225496E+02 -0.56751724403E+02 -0.15376488596E+02  0.62751023180E+02  0.00000000000E+00 0. -1.
         11    1    4    4    0    0  0.96912288768E+02 -0.10103646015E+03  0.10821556268E+02  0.14041888788E+03  0.00000000000E+00 0.  1.
        -13    1    3    3    0    0  0.45132771619E+02  0.51507632060E+02  0.10853620383E+03  0.12833592940E+03  0.00000000000E+00 0.  1.
         13    1    3    3    0    0 -0.59346743036E+01  0.10686291525E+03  0.36166233489E+03  0.37716647186E+03  0.00000000000E+00 0. -1.
         21    1    1    2  503  502 -0.13743546339E+03 -0.21012774268E+02  0.84584465231E+03  0.85719497147E+03  0.00000000000E+00 0. -1.
          1    1    1    2  501    0  0.23245302799E+02  0.20430411506E+02 -0.58106540111E+02  0.65834002006E+02  0.00000000000E+00 0. -1.
<scales pt_clust_5="13000.00000" pt_clust_6="13000.00000" pt_clust_7="13000.00000" pt_clust_8="13000.00000" pt_clust_9="137.87148" pt_clust_10="30.94747"></scales>
<clustering>
<clus scale="   30.947">  2 10  1 -1</clus>
<clus scale="   88.478">  7  8 -1 -1</clus>
<clus scale="  103.616">  5  6 -1 -1</clus>
<clus scale="  137.871">  1  9  2 -1</clus>
<clus scale="  183.852">  1  7  2 -1</clus>
<clus scale="   30.947">  2  5  1 -1</clus>
</clustering>
</event>
<event>
10    2  0.3984345E-006  0.1160701E+03  0.7546771E-02  0.1250099E+00
         21   -1    0    0  503  502  0.00000000000E+00  0.00000000000E+00  0.20479873078E+03  0.20479873078E+03  0.00000000000E+00 0. -1.
         -3   -1    0    0    0  501 -0.00000000000E+00 -0.00000000000E+00 -0.15365675572E+03  0.15365675572E+03  0.00000000000E+00 0.  1.
         23    2    1    2    0    0  0.13300258899E+02  0.66921975726E+02 -0.97517379763E+00  0.11373189262E+03  0.90986508409E+02 0.  0.
         23    2    1    2    0    0 -0.57592931171E+02 -0.59743141312E+02  0.21621775092E+02  0.12422714265E+03  0.89881550713E+02 0.  0.
        -11    1    4    4    0    0 -0.44365919082E+02 -0.83308705391E+02  0.10367504627E+02  0.94953463982E+02  0.00000000000E+00 0.  1.
         11    1    4    4    0    0 -0.13227012089E+02  0.23565564079E+02  0.11254270465E+02  0.29273678670E+02  0.00000000000E+00 0. -1.
        -13    1    3    3    0    0  0.26287842717E+02  0.82521439299E+02  0.15005587504E+02  0.87897703468E+02  0.00000000000E+00 0. -1.
         13    1    3    3    0    0 -0.12987583818E+02 -0.15599463573E+02 -0.15980761301E+02  0.25834189149E+02  0.00000000000E+00 0.  1.
         21    1    1    2  503  501  0.21582845023E+02 -0.78476674219E+01 -0.40168494416E+02  0.46270001371E+02  0.00000000000E+00 0. -1.
         -3    1    1    2    0  502  0.22709827248E+02  0.66883300855E+00  0.70663868190E+02  0.74226449860E+02  0.00000000000E+00 0.  1.
<scales pt_clust_5="13000.00000" pt_clust_6="13000.00000" pt_clust_7="13000.00000" pt_clust_8="13000.00000" pt_clust_9="23.45278" pt_clust_10="22.71967"></scales>
<clustering>
<clus scale="   22.720">  1 10  2 -1</clus>
<clus scale="   23.453">  2  9  1 -1</clus>
<clus scale="   89.882">  5  6 -1 -1</clus>
<clus scale="   90.987">  7  8 -1 -1</clus>
<clus scale="  115.206">  1  5  2 -1</clus>
<clus scale="   22.720">  1  5  2 -1</clus>
</clustering>
</event>
<event>
10    2  0.3984345E-006  0.1687739E+03  0.7546771E-02  0.1179791E+00
          3   -1    0    0  503    0 -0.00000000000E+00  0.00000000000E+00  0.14203038187E+04  0.14203038187E+04  0.00000000000E+00 0. -1.
         21   -1    0    0  501  502  0.00000000000E+00 -0.00000000000E+00 -0.69996443327E+02  0.69996443327E+02  0.00000000000E+00 0. -1.
         23    2    1    2    0    0  0.15989620891E+03  0.46877350847E+02  0.78120489635E+03  0.80393695222E+03  0.90935413420E+02 0.  0.
         23    2    1    2    0    0 -0.11618502396E+03 -0.65549618375E+01  0.44122615022E+03  0.46617973189E+03  0.95399682753E+02 0.  0.
        -11    1    3    3    0    0  0.55839073340E+02  0.53083592463E+02  0.21918491304E+03  0.23233143568E+03  0.00000000000E+00 0.  1.
         11    1    3    3    0    0  0.10405713557E+03 -0.62062416165E+01  0.56201998331E+03  0.57160551654E+03  0.00000000000E+00 0. -1.
        -13    1    4    4    0    0 -0.10699321124E+03  0.30302937231E+02  0.35361745963E+03  0.37069006328E+03  0.00000000000E+00 0.  1.
         13    1    4    4    0    0 -0.91918127143E+01 -0.36857899068E+02  0.87608690583E+02  0.95489668605E+02  0.00000000000E+00 0. -1.
         21    1    1    2  503  502 -0.18606710659E+02 -0.29097974688E+02  0.16801503121E+03  0.17152828492E+03  0.00000000000E+00 0. -1.
          3    1    1    2  501    0 -0.25104474296E+02 -0.11224414322E+02 -0.40138702407E+02  0.48655293006E+02  0.00000000000E+00 0. -1.
<scales pt_clust_5="13000.00000" pt_clust_6="13000.00000" pt_clust_7="13000.00000" pt_clust_8="13000.00000" pt_clust_9="36.13021" pt_clust_10="27.49949"></scales>
<clustering>
<clus scale="   27.499">  2 10  1 -1</clus>
<clus scale="   36.130">  1  9  2 -1</clus>
<clus scale="   90.935">  5  6 -1 -1</clus>
<clus scale="   95.400">  7  8 -1 -1</clus>
<clus scale="  166.291">  1  5  2 -1</clus>
<clus scale="   27.499">  2  5  1 -1</clus>
</clustering>
</event>
<event>
10    2  0.3984345E-006  0.2569314E+03  0.7546771E-02  0.1146182E+00
          1   -1    0    0  503    0 -0.00000000000E+00  0.00000000000E+00  0.44556126191E+03  0.44556126191E+03  0.00000000000E+00 0. -1.
         21   -1    0    0  501  502  0.00000000000E+00 -0.00000000000E+00 -0.42252041773E+03  0.42252041773E+03  0.00000000000E+00 0. -1.
         23    2    1    2    0    0  0.16752229789E+03 -0.18383403101E+03  0.73282359109E+02  0.27495346628E+03  0.91490071693E+02 0.  0.
         23    2    1    2    0    0 -0.65827988673E+02  0.64188553102E+02 -0.11027990594E+03  0.16681240469E+03  0.84918939350E+02 0.  0.
        -11    1    3    3    0    0  0.13016021531E+03 -0.18492056251E+03  0.52359649852E+02  0.23211813591E+03  0.00000000000E+00 0. -1.
         11    1    3    3    0    0  0.37362082577E+02  0.10865314987E+01  0.20922709257E+02  0.42835330369E+02  0.00000000000E+00 0.  1.
        -11    1    4    4    0    0  0.20155419554E+02  0.20272962902E+02 -0.26528927638E+02  0.39000230305E+02  0.00000000000E+00 0.  1.
         11    1    4    4    0    0 -0.85983408227E+02  0.43915590200E+02 -0.83750978307E+02  0.12781217438E+03  0.00000000000E+00 0. -1.
         21    1    1    2  503  502 -0.18112765801E+03  0.15089628448E+03  0.16741469814E+03  0.28914459760E+03  0.00000000000E+00 0. -1.
          1    1    1    2  501    0  0.79433348799E+02 -0.31250806577E+02 -0.10737630712E+03  0.13717121106E+03  0.00000000000E+00 0. -1.
<scales pt_clust_5="13000.00000" pt_clust_6="13000.00000" pt_clust_7="13000.00000" pt_clust_8="13000.00000" pt_clust_9="240.09020" pt_clust_10="85.35965"></scales>
<clustering>
<clus scale="   84.919">  7  8 -1 -1</clus>
<clus scale="   85.360">  2 10  1 -1</clus>
<clus scale="   91.490">  5  6 -1 -1</clus>
<clus scale="  102.661">  2  7  1 -1</clus>
<clus scale="  240.090">  1  9  2 -1</clus>
<clus scale="   85.360">  2  5  1 -1</clus>
</clustering>
</event>
<event>
10    2  0.3984345E-006  0.1421821E+03  0.7546771E-02  0.1210566E+00
          1   -1    0    0  503    0 -0.00000000000E+00  0.00000000000E+00  0.25507943089E+03  0.25507943089E+03  0.00000000000E+00 0. -1.
         21   -1    0    0  501  502  0.00000000000E+00 -0.00000000000E+00 -0.13341937815E+03  0.13341937815E+03  0.00000000000E+00 0.  1.
         23    2    1    2    0    0  0.62057377609E+02 -0.93514659380E+02  0.80884766066E+02  0.16581254195E+03  0.91407571082E+02 0.  0.
         23    2    1    2    0    0 -0.72421333170E+01  0.10895889314E+03  0.30705583577E+02  0.14610419686E+03  0.92082107853E+02 0.  0.
        -11    1    4    4    0    0 -0.21318788550E+02  0.94358623114E+02  0.57472470746E+02  0.11252166634E+03  0.00000000000E+00 0. -1.
         11    1    4    4    0    0  0.14076655233E+02  0.14600270026E+02 -0.26766887170E+02  0.33582530520E+02  0.00000000000E+00 0.  1.
        -13    1    3    3    0    0  0.35569577092E+02 -0.10655765868E+03  0.49614332452E+02  0.12280599099E+03  0.00000000000E+00 0.  1.
         13    1    3    3    0    0  0.26487800517E+02  0.13042999301E+02  0.31270433614E+02  0.43006550959E+02  0.00000000000E+00 0. -1.
         21    1    1    2  503  502 -0.18782231316E+02 -0.16475705928E+02  0.26974397541E+02  0.36767366260E+02  0.00000000000E+00 0.  1.
          1    1    1    2  501    0 -0.36033012976E+02  0.10314721671E+01 -0.16904694444E+02  0.39814703982E+02  0.00000000000E+00 0. -1.
<scales pt_clust_5="13000.00000" pt_clust_6="13000.00000" pt_clust_7="13000.00000" pt_clust_8="13000.00000" pt_clust_9="24.98442" pt_clust_10="36.99738"></scales>
<clustering>
<clus scale="   24.984">  1  9  2 -1</clus>
<clus scale="   36.997">  2 10  1 -1</clus>
<clus scale="   91.408">  7  8 -1 -1</clus>
<clus scale="   92.082">  5  6 -1 -1</clus>
<clus scale="  141.746">  1  7  2 -1</clus>
<clus scale="   36.997">  2  5  1 -1</clus>
</clustering>
</event>
<event>
10    2  0.3984345E-006  0.1046009E+03  0.7546771E-02  0.1271482E+00
         21   -1    0    0  503  502  0.00000000000E+00  0.00000000000E+00  0.62890193231E+03  0.62890193231E+03  0.00000000000E+00 0. -1.
         -1   -1    0    0    0  501 -0.00000000000E+00 -0.00000000000E+00 -0.27929629240E+03  0.27929629240E+03  0.00000000000E+00 0.  1.
         23    2    1    2    0    0 -0.92965070595E+01  0.76862015709E+02 -0.22567070564E+03  0.25482149635E+03  0.89512753909E+02 0.  0.
         23    2    1    2    0    0  0.46330504488E+02 -0.75487420619E+02  0.53475989608E+03  0.54916816553E+03  0.88162697624E+02 0.  0.
        -11    1    3    3    0    0  0.25612704872E+02 -0.64132662122E+01 -0.34921399203E+02  0.43779501558E+02  0.00000000000E+00 0. -1.
         11    1    3    3    0    0 -0.34909211932E+02  0.83275281921E+02 -0.19074930644E+03  0.21104199479E+03  0.00000000000E+00 0.  1.
        -13    1    4    4    0    0  0.69556812451E+02 -0.64897910166E+02  0.47055690040E+03  0.48007674951E+03  0.00000000000E+00 0. -1.
         13    1    4    4    0    0 -0.23226307963E+02 -0.10589510454E+02  0.64202995685E+02  0.69091416024E+02  0.00000000000E+00 0.  1.
         21    1    1    2  503  501 -0.13275743342E+02 -0.30474393460E+02 -0.15567644465E+02  0.36705388872E+02  0.00000000000E+00 0. -1.
         -1    1    1    2    0  502 -0.23758254086E+02  0.29099798371E+02  0.56084093933E+02  0.67503173960E+02  0.00000000000E+00 0.  1.
<scales pt_clust_5="13000.00000" pt_clust_6="13000.00000" pt_clust_7="13000.00000" pt_clust_8="13000.00000" pt_clust_9="33.24055" pt_clust_10="37.22958"></scales>
<clustering>
<clus scale="   33.241">  2  9  1 -1</clus>
<clus scale="   37.230">  1 10  2 -1</clus>
<clus scale="   88.163">  7  8 -1 -1</clus>
<clus scale="   89.513">  5  6 -1 -1</clus>
<clus scale="  103.448">  1  7  2 -1</clus>
<clus scale="   37.230">  1  5  2 -1</clus>
</clustering>
</event>
<event>
10    2  0.3984345E-006  0.1016431E+03  0.7546771E-02  0.1279599E+00
         21   -1    0    0  501  502  0.00000000000E+00  0.00000000000E+00  0.73177163694E+02  0.73177163694E+02  0.00000000000E+00 0. -1.
          1   -1    0    0  503    0 -0.00000000000E+00 -0.00000000000E+00 -0.40359786507E+03  0.40359786507E+03  0.00000000000E+00 0. -1.
         23    2    1    2    0    0 -0.43977068324E+02  0.49522786782E+01 -0.13074684531E+03  0.16424613715E+03  0.89014315757E+02 0.  0.
         23    2    1    2    0    0  0.49613384883E+02 -0.72439735870E+01 -0.17597711963E+03  0.20096392346E+03  0.83093855283E+02 0.  0.
        -13    1    3    3    0    0 -0.48184367780E+02  0.40690631951E+02 -0.89803070079E+02  0.10973628489E+03  0.00000000000E+00 0.  1.
         13    1    3    3    0    0  0.42072994556E+01 -0.35738353273E+02 -0.40943775229E+02  0.54509852260E+02  0.00000000000E+00 0. -1.
        -13    1    4    4    0    0  0.11382356838E+02 -0.24038932816E+02 -0.78543253527E+01  0.27732990550E+02  0.00000000000E+00 0. -1.
         13    1    4    4    0    0  0.38231028045E+02  0.16794959229E+02 -0.16812279427E+03  0.17323093290E+03  0.00000000000E+00 0.  1.
         21    1    1    2  503  502  0.31501776904E+02  0.10184408637E+01 -0.54726131060E+02  0.63153373550E+02  0.00000000000E+00 0.  1.
          1    1    1    2  501    0 -0.37138093463E+02  0.12732540451E+01  0.31029394617E+02  0.48411594605E+02  0.00000000000E+00 0. -1.
<scales pt_clust_5="13000.00000" pt_clust_6="13000.00000" pt_clust_7="13000.00000" pt_clust_8="13000.00000" pt_clust_9="31.51824" pt_clust_10="36.36693"></scales>
<clustering>
<clus scale="   31.518">  2  9  1 -1</clus>
<clus scale="   36.367">  1 10  2 -1</clus>
<clus scale="   83.094">  7  8 -1 -1</clus>
<clus scale="   89.014">  5  6 -1 -1</clus>
<clus scale="   96.501">  1  7  2 -1</clus>
<clus scale="   36.367">  1  5  2 -1</clus>
</clustering>
</event>
<event>
10    2  0.3984345E-006  0.2352846E+03  0.7546771E-02  0.1136979E+00
         21   -1    0    0  503  502  0.00000000000E+00  0.00000000000E+00  0.38376177863E+03  0.38376177863E+03  0.00000000000E+00 0. -1.
         -1   -1    0    0    0  501 -0.00000000000E+00 -0.00000000000E+00 -0.32871677556E+03  0.32871677556E+03  0.00000000000E+00 0.  1.
         23    2    1    2    0    0  0.86608768580E+02 -0.10896467582E+03 -0.77802312035E+02  0.18321822040E+03  0.90229358621E+02 0.  0.
         23    2    1    2    0    0  0.39758995194E+02  0.24373152600E+03  0.11292898623E+03  0.28674150684E+03  0.92097238536E+02 0.  0.
        -11    1    4    4    0    0  0.67017239977E+02  0.13049968897E+03  0.55100657588E+02  0.15670852479E+03  0.00000000000E+00 0.  1.
         11    1    4    4    0    0 -0.27258244783E+02  0.11323183703E+03  0.57828328646E+02  0.13003298205E+03  0.00000000000E+00 0. -1.
        -13    1    3    3    0    0  0.55916867259E+02 -0.21642577466E+02  0.34459550368E+01  0.60058070312E+02  0.00000000000E+00 0. -1.
         13    1    3    3    0    0  0.30691901320E+02 -0.87322098354E+02 -0.81248267072E+02  0.12316015009E+03  0.00000000000E+00 0.  1.
         21    1    1    2  503  501  0.19318351363E+02  0.13152222111E+02 -0.20402824349E+02  0.31023457049E+02  0.00000000000E+00 0. -1.
         -1    1    1    2    0  502 -0.14568611514E+03 -0.14791907229E+03  0.40321153225E+02  0.21149536990E+03  0.00000000000E+00 0.  1.
<scales pt_clust_5="13000.00000" pt_clust_6="13000.00000" pt_clust_7="13000.00000" pt_clust_8="13000.00000" pt_clust_9="23.37049" pt_clust_10="216.51095"></scales>
<clustering>
<clus scale="   23.370">  2  9  1 -1</clus>
<clus scale="   90.229">  7  8 -1 -1</clus>
<clus scale="   92.097">  5  6 -1 -1</clus>
<clus scale="  166.805">  2  7  1 -1</clus>
<clus scale="  216.511">  1 10  2 -1</clus>
<clus scale="  216.511">  1  5  2 -1</clus>
</clustering>
</event>
<event>
10    2  0.3984345E-006  0.1688158E+03  0.7546771E-02  0.1179343E+00
         21   -1    0    0  503  502  0.00000000000E+00  0.00000000000E+00  0.12225229718E+03  0.12225229718E+03  0.00000000000E+00 0.  1.
         -2   -1    0    0    0  501 -0.00000000000E+00 -0.00000000000E+00 -0.70649429962E+03  0.70649429962E+03  0.00000000000E+00 0.  1.
         23    2    1    2    0    0 -0.13999919808E+03  0.28332781261E+02 -0.53694513838E+03  0.56332060057E+03  0.92830466124E+02 0.  0.
         23    2    1    2    0    0  0.12478114203E+03  0.80897389989E+01  0.71050818658E+01  0.15693535265E+03  0.94564504125E+02 0.  0.
        -13    1    4    4    0    0  0.37821982185E+02 -0.31395557563E+02 -0.26311923223E+02  0.55753929681E+02  0.00000000000E+00 0.  1.
         13    1    4    4    0    0  0.86959159840E+02  0.39485296562E+02  0.33417005089E+02  0.10118142297E+03  0.00000000000E+00 0. -1.
        -13    1    3    3    0    0 -0.95533194836E+02 -0.13968321838E+01 -0.45866817955E+03  0.46851365123E+03  0.00000000000E+00 0.  1.
         13    1    3    3    0    0 -0.44466003241E+02  0.29729613445E+02 -0.78276958828E+02  0.94806949340E+02  0.00000000000E+00 0. -1.
         21    1    1    2  503  501  0.74145387597E+01 -0.61807132051E+02 -0.53233627667E+02  0.81907973189E+02  0.00000000000E+00 0.  1.
         -2    1    1    2    0  502  0.78035172915E+01  0.25384611791E+02 -0.11683182682E+01  0.26582670397E+02  0.00000000000E+00 0.  1.
<scales pt_clust_5="13000.00000" pt_clust_6="13000.00000" pt_clust_7="13000.00000" pt_clust_8="13000.00000" pt_clust_9="59.09008" pt_clust_10="26.55698"></scales>
<clustering>
<clus scale="   26.557">  1 10  2 -1</clus>
<clus scale="   59.090">  1  9  2 -1</clus>
<clus scale="   92.830">  7  8 -1 -1</clus>
<clus scale="   94.565">  5  6 -1 -1</clus>
<clus scale="  167.851">  2  7  1 -1</clus>
<clus scale="   26.557">  1  5  2 -1</clus>
</clustering>
</event>
<event>
10    2  0.3984345E-006  0.9581426E+02  0.7546771E-02  0.1291069E+00
         21   -1    0    0  503  502  0.00000000000E+00  0.00000000000E+00  0.26900545188E+03  0.26900545188E+03  0.00000000000E+00 0.  1.
         -1   -1    0    0    0  501 -0.00000000000E+00 -0.00000000000E+00 -0.20988974090E+03  0.20988974090E+03  0.00000000000E+00 0.  1.
         23    2    1    2    0    0  0.17711125531E+02  0.55697445348E+02 -0.40062193252E+02  0.11573495607E+03  0.91507985125E+02 0.  0.
         23    2    1    2    0    0 -0.51780008029E+02  0.20251943776E+02  0.68265442015E+01  0.10171608841E+03  0.84901416230E+02 0.  0.
        -11    1    4    4    0    0 -0.69567683874E+02 -0.54113920839E+01  0.11551510608E+00  0.69777927367E+02  0.00000000000E+00 0. -1.
         11    1    4    4    0    0  0.17787675845E+02  0.25663335860E+02  0.67110290954E+01  0.31938161045E+02  0.00000000000E+00 0.  1.
        -13    1    3    3    0    0 -0.36794858130E+02  0.19377547293E+02 -0.63423273540E+01  0.42066329055E+02  0.00000000000E+00 0.  1.
         13    1    3    3    0    0  0.54505983661E+02  0.36319898054E+02 -0.33719865898E+02  0.73668627011E+02  0.00000000000E+00 0. -1.
         21    1    1    2  503  501 -0.49713415146E+02 -0.30014782796E+02 -0.58789049299E+02  0.82634515484E+02  0.00000000000E+00 0.  1.
         -1    1    1    2    0  502  0.83782297644E+02 -0.45934606327E+02  0.15114040933E+03  0.17880963282E+03  0.00000000000E+00 0.  1.
<scales pt_clust_5="13000.00000" pt_clust_6="13000.00000" pt_clust_7="13000.00000" pt_clust_8="13000.00000" pt_clust_9="58.07160" pt_clust_10="92.78381"></scales>
<clustering>
<clus scale="   58.072">  2  9  1 -1</clus>
<clus scale="   84.901">  5  6 -1 -1</clus>
<clus scale="   91.508">  7  8 -1 -1</clus>
<clus scale="   92.784">  1 10  2 -1</clus>
<clus scale="   92.784">  1  5  2 -1</clus>
<clus scale="   92.784">  1  5  2 -1</clus>
</clustering>
</event>
<event>
10    2  0.3984345E-006  0.1053350E+03  0.7546771E-02  0.1270670E+00
         21   -1    0    0  501  502  0.00000000000E+00  0.00000000000E+00  0.48355307839E+02  0.48355307839E+02  0.00000000000E+00 0. -1.
          1   -1    0    0  503    0 -0.00000000000E+00 -0.00000000000E+00 -0.50806673923E+03  0.50806673923E+03  0.00000000000E+00 0. -1.
         23    2    1    2    0    0 -0.45481943726E+02 -0.42792889307E+02 -0.12603102453E+03  0.16780878094E+03  0.91521195562E+02 0.  0.
         23    2    1    2    0    0  0.40557548833E+02  0.19723130986E+02 -0.83448765490E+02  0.12987219422E+03  0.88708363223E+02 0.  0.
        -11    1    4    4    0    0  0.42807651392E+02  0.41593275897E+02 -0.20362147177E+02  0.63064353285E+02  0.00000000000E+00 0. -1.
         11    1    4    4    0    0 -0.22501025592E+01 -0.21870144911E+02 -0.63086618313E+02  0.66807840933E+02  0.00000000000E+00 0.  1.
        -13    1    3    3    0    0  0.26997309973E+02 -0.75077673529E+01 -0.19166996644E+02  0.33949890674E+02  0.00000000000E+00 0.  1.
         13    1    3    3    0    0 -0.72479253699E+02 -0.35285121954E+02 -0.10686402788E+03  0.13385889027E+03  0.00000000000E+00 0. -1.
         21    1    1    2  503  502  0.24387522563E+02 -0.47078595070E+00 -0.18627191133E+03  0.18786217780E+03  0.00000000000E+00 0. -1.
          1    1    1    2  501    0 -0.19463127669E+02  0.23540544272E+02 -0.63959730040E+02  0.70878894109E+02  0.00000000000E+00 0. -1.
<scales pt_clust_5="13000.00000" pt_clust_6="13000.00000" pt_clust_7="13000.00000" pt_clust_8="13000.00000" pt_clust_9="24.39207" pt_clust_10="27.48050"></scales>
<clustering>
<clus scale="   24.392">  2  9  1 -1</clus>
<clus scale="   27.480">  1 10  2 -1</clus>
<clus scale="   88.708">  5  6 -1 -1</clus>
<clus scale="   91.521">  7  8 -1 -1</clus>
<clus scale="  102.900">  1  5  2 -1</clus>
<clus scale="   27.480">  1  5  2 -1</clus>
</clustering>
</event>
<event>
10    2  0.3984345E-006  0.9187615E+02  0.7546771E-02  0.1298454E+00
         21   -1    0    0  501  502  0.00000000000E+00  0.00000000000E+00  0.41772319697E+02  0.41772319697E+02  0.00000000000E+00 0.  1.
          1   -1    0    0  503    0 -0.00000000000E+00 -0.00000000000E+00 -0.65813259250E+03  0.65813259250E+03  0.00000000000E+00 0. -1.
         23    2    1    2    0    0  0.26837791849E+02 -0.11300108413E+02 -0.16355498557E+03  0.18953355765E+03  0.91240213979E+02 0.  0.
         23    2    1    2    0    0  0.36149560079E+01 -0.37295883091E+02 -0.97866992129E+02  0.13885612795E+03  0.91098986368E+02 0.  0.
        -13    1    3    3    0    0  0.31887166295E+01 -0.50065824679E+02 -0.79760057985E+02  0.94225376435E+02  0.00000000000E+00 0.  1.
         13    1    3    3    0    0  0.23649075220E+02  0.38765716266E+02 -0.83794927587E+02  0.95308181211E+02  0.00000000000E+00 0. -1.
        -13    1    4    4    0    0 -0.30433161155E+02 -0.11042400015E+01 -0.15688387642E+01  0.30493571436E+02  0.00000000000E+00 0.  1.
         13    1    4    4    0    0  0.34048117163E+02 -0.36191643090E+02 -0.96298153365E+02  0.10836255651E+03  0.00000000000E+00 0. -1.
         21    1    1    2  503  502 -0.42870496741E+02 -0.10053696290E+02 -0.21181339201E+03  0.21634201935E+03  0.00000000000E+00 0.  1.
          1    1    1    2  501    0  0.12417748884E+02  0.58649687794E+02 -0.14312490309E+03  0.15517320725E+03  0.00000000000E+00 0. -1.
<scales pt_clust_5="13000.00000" pt_clust_6="13000.00000" pt_clust_7="13000.00000" pt_clust_8="13000.00000" pt_clust_9="44.03358" pt_clust_10="55.30839"></scales>
<clustering>
<clus scale="   44.034">  2  9  1 -1</clus>
<clus scale="   55.308">  1 10  2 -1</clus>
<clus scale="   91.099">  7  8 -1 -1</clus>
<clus scale="   91.240">  5  6 -1 -1</clus>
<clus scale="   91.736">  1  7  2 -1</clus>
<clus scale="   55.308">  1  5  2 -1</clus>
</clustering>
</event>
<event>
10    2  0.3984345E-006  0.1125971E+03  0.7546771E-02  0.1256779E+00
         21   -1    0    0  503  502  0.00000000000E+00  0.00000000000E+00  0.30923669002E+03  0.30923669002E+03  0.00000000000E+00 0.  1.
         -4   -1    0    0    0  501 -0.00000000000E+00 -0.00000000000E+00 -0.21384965455E+03  0.21384965455E+03  0.00000000000E+00 0.  1.
         23    2    1    2    0    0 -0.74866886633E+02  0.35626905065E+01 -0.12093748795E+03  0.16955324152E+03  0.92220834087E+02 0.  0.
         23    2    1    2    0    0  0.29135614261E+02  0.55048187759E+01  0.57187662742E+02  0.11040731183E+03  0.89666931957E+02 0.  0.
        -11    1    3    3    0    0 -0.19074112906E+02  0.36550548301E+02 -0.87262957052E+02  0.96512113425E+02  0.00000000000E+00 0.  1.
         11    1    3    3    0    0 -0.55792773727E+02 -0.32987857794E+02 -0.33674530901E+02  0.73041128095E+02  0.00000000000E+00 0. -1.
        -13    1    4    4    0    0 -0.31878297279E+02  0.99059132126E+00  0.28755319997E+02  0.42942700622E+02  0.00000000000E+00 0.  1.
         13    1    4    4    0    0  0.61013911540E+02  0.45142274547E+01  0.28432342745E+02  0.67464611204E+02  0.00000000000E+00 0. -1.
         21    1    1    2  503  501  0.54532320413E+02 -0.41053909883E+02 -0.11564114767E+02  0.69230962991E+02  0.00000000000E+00 0. -1.
         -4    1    1    2    0  502 -0.88010480406E+01  0.31986400601E+02  0.17070097544E+03  0.17389482824E+03  0.00000000000E+00 0.  1.
<scales pt_clust_5="13000.00000" pt_clust_6="13000.00000" pt_clust_7="13000.00000" pt_clust_8="13000.00000" pt_clust_9="62.87200" pt_clust_10="33.17512"></scales>
<clustering>
<clus scale="   33.175">  1 10  2 -1</clus>
<clus scale="   62.872">  1  9  2 -1</clus>
<clus scale="   89.667">  7  8 -1 -1</clus>
<clus scale="   92.221">  5  6 -1 -1</clus>
<clus scale="  110.515">  1  7  2 -1</clus>
<clus scale="   33.175">  1  5  2 -1</clus>
</clustering>
</event>
<event>
10    2  0.3984345E-006  0.2120875E+03  0.7546771E-02  0.1140252E+00
         21   -1    0    0  501  502  0.00000000000E+00  0.00000000000E+00  0.30782588884E+03  0.30782588884E+03  0.00000000000E+00 0. -1.
          2   -1    0    0  503    0 -0.00000000000E+00 -0.00000000000E+00 -0.75715317678E+03  0.75715317678E+03  0.00000000000E+00 0. -1.
         23    2    1    2    0    0  0.26967607285E+03 -0.30293598115E+02 -0.45893454763E+03  0.54115685319E+03  0.92665713186E+02 0.  0.
         23    2    1    2    0    0 -0.13541687156E+03  0.10643625770E+03  0.17627064757E+03  0.26194921352E+03  0.88767354424E+02 0.  0.
        -11    1    4    4    0    0 -0.54704837495E+02  0.17542085806E+02  0.11172733692E+03  0.12563177080E+03  0.00000000000E+00 0. -1.
         11    1    4    4    0    0 -0.80712034068E+02  0.88894171890E+02  0.64543310659E+02  0.13631744272E+03  0.00000000000E+00 0.  1.
        -13    1    3    3    0    0  0.12712806182E+03 -0.20944396658E+02 -0.30527726977E+03  0.33135241555E+03  0.00000000000E+00 0. -1.
         13    1    3    3    0    0  0.14254801103E+03 -0.93492014574E+01 -0.15365727786E+03  0.20980443764E+03  0.00000000000E+00 0.  1.
         21    1    1    2  503  502 -0.99374948959E+02  0.92305818318E+01 -0.45715579843E+02  0.10977476195E+03  0.00000000000E+00 0. -1.
          2    1    1    2  501    0 -0.34884252328E+02 -0.85373241413E+02 -0.12094780805E+03  0.15209823694E+03  0.00000000000E+00 0. -1.
<scales pt_clust_5="13000.00000" pt_clust_6="13000.00000" pt_clust_7="13000.00000" pt_clust_8="13000.00000" pt_clust_9="103.19821" pt_clust_10="92.22532"></scales>
<clustering>
<clus scale="   88.767">  5  6 -1 -1</clus>
<clus scale="   92.225">  1 10  2 -1</clus>
<clus scale="   92.666">  7  8 -1 -1</clus>
<clus scale="  103.198">  2  9  1 -1</clus>
<clus scale="  210.413">  1  5  2 -1</clus>
<clus scale="   92.225">  1  5  2 -1</clus>
</clustering>
</event>
<event>
10    2  0.3984345E-006  0.1156572E+03  0.7546771E-02  0.1251619E+00
         21   -1    0    0  501  502  0.00000000000E+00  0.00000000000E+00  0.91057246775E+02  0.91057246775E+02  0.00000000000E+00 0.  1.
          3   -1    0    0  503    0 -0.00000000000E+00 -0.00000000000E+00 -0.30044594569E+03  0.30044594569E+03  0.00000000000E+00 0. -1.
         23    2    1    2    0    0 -0.18135700096E+02 -0.49377398880E+02 -0.97803652418E+02  0.14522791310E+03  0.93587184900E+02 0.  0.
         23    2    1    2    0    0  0.99850210846E+01  0.82976658214E+02 -0.84016804277E+02  0.14895177163E+03  0.90238464167E+02 0.  0.
        -11    1    4    4    0    0  0.38080466989E+02  0.24300544842E+02 -0.68528214044E+02  0.82077734897E+02  0.00000000000E+00 0. -1.
         11    1    4    4    0    0 -0.28095445905E+02  0.58676113372E+02 -0.15488590233E+02  0.66874036729E+02  0.00000000000E+00 0.  1.
        -11    1    3    3    0    0 -0.39608189512E+02 -0.38207654850E+02 -0.10619736916E+03  0.11960984400E+03  0.00000000000E+00 0.  1.
         11    1    3    3    0    0  0.21472489415E+02 -0.11169744030E+02  0.83937167416E+01  0.25618069094E+02  0.00000000000E+00 0. -1.
         21    1    1    2  503  502 -0.23312709503E+02 -0.25803998017E+02 -0.47801203217E+02  0.59112467103E+02  0.00000000000E+00 0.  1.
          3    1    1    2  501    0  0.31463388515E+02 -0.77952613174E+01  0.20232960999E+02  0.38211040638E+02  0.00000000000E+00 0. -1.
<scales pt_clust_5="13000.00000" pt_clust_6="13000.00000" pt_clust_7="13000.00000" pt_clust_8="13000.00000" pt_clust_9="33.47743" pt_clust_10="32.41467"></scales>
<clustering>
<clus scale="   32.415">  1 10  2 -1</clus>
<clus scale="   33.477">  2  9  1 -1</clus>
<clus scale="   90.238">  5  6 -1 -1</clus>
<clus scale="   93.587">  7  8 -1 -1</clus>
<clus scale="  112.965">  1  5  2 -1</clus>
<clus scale="   32.415">  1  5  2 -1</clus>
</clustering>
</event>
<event>
10    2  0.3984345E-006  0.1010927E+03  0.7546771E-02  0.1278172E+00
          2   -1    0    0  503    0 -0.00000000000E+00  0.00000000000E+00  0.61593571919E+03  0.61593571919E+03  0.00000000000E+00 0. -1.
         21   -1    0    0  501  502  0.00000000000E+00 -0.00000000000E+00 -0.54832259080E+02  0.54832259080E+02  0.00000000000E+00 0.  1.
         23    2    1    2    0    0 -0.27494537227E+02  0.27808326648E+02  0.26853531798E+03  0.28618855698E+03  0.90903358224E+02 0.  0.
         23    2    1    2    0    0 -0.22114250841E+02 -0.44741219003E+02  0.11061011916E+03  0.15182257908E+03  0.91239685925E+02 0.  0.
        -13    1    4    4    0    0  0.25097209470E+02  0.13787026283E+02  0.26744079450E+02  0.39181600306E+02  0.00000000000E+00 0. -1.
         13    1    4    4    0    0 -0.47211460311E+02 -0.58528245286E+02  0.83866039713E+02  0.11264097877E+03  0.00000000000E+00 0.  1.
        -13    1    3    3    0    0  0.31366142229E+02  0.75606257698E+01  0.13583991689E+03  0.13961905659E+03  0.00000000000E+00 0. -1.
         13    1    3    3    0    0 -0.58860679455E+02  0.20247700879E+02  0.13269540109E+03  0.14656950040E+03  0.00000000000E+00 0.  1.
         21    1    1    2  503  502  0.25934649721E+02  0.31311846511E+02  0.19705869914E+03  0.20120926592E+03  0.00000000000E+00 0.  1.
          2    1    1    2  501    0  0.23674138346E+02 -0.14378954156E+02 -0.15100676169E+02  0.31547576291E+02  0.00000000000E+00 0. -1.
<scales pt_clust_5="13000.00000" pt_clust_6="13000.00000" pt_clust_7="13000.00000" pt_clust_8="13000.00000" pt_clust_9="40.96263" pt_clust_10="27.69872"></scales>
<clustering>
<clus scale="   27.699">  2 10  1 -1</clus>
<clus scale="   40.963">  1  9  2 -1</clus>
<clus scale="   90.903">  7  8 -1 -1</clus>
<clus scale="   91.240">  5  6 -1 -1</clus>
<clus scale="  100.789">  1  7  2 -1</clus>
<clus scale="   27.699">  2  5  1 -1</clus>
</clustering>
</event>
<event>
10    2  0.3984345E-006  0.1303695E+03  0.7546771E-02  0.1227034E+00
          1   -1    0    0  503    0 -0.00000000000E+00  0.00000000000E+00  0.35885331167E+03  0.35885331167E+03  0.00000000000E+00 0. -1.
         21   -1    0    0  501  502  0.00000000000E+00 -0.00000000000E+00 -0.90343186122E+02  0.90343186122E+02  0.00000000000E+00 0. -1.
         23    2    1    2    0    0 -0.74275935461E+02 -0.55062501768E+02  0.11428624745E+03  0.17258086769E+03  0.90410264042E+02 0.  0.
         23    2    1    2    0    0  0.98925811800E+02  0.31492901236E+02  0.76905987088E+02  0.15797206565E+03  0.90898424669E+02 0.  0.
        -11    1    3    3    0    0 -0.39912806718E+02  0.20642673707E+02  0.51824894802E+02  0.68592797283E+02  0.00000000000E+00 0.  1.
         11    1    3    3    0    0 -0.34363128743E+02 -0.75705175475E+02  0.62461352653E+02  0.10398807040E+03  0.00000000000E+00 0. -1.
        -13    1    4    4    0    0  0.58778359403E+02 -0.16532535551E+02  0.30181808802E+01  0.61133703320E+02  0.00000000000E+00 0.  1.
         13    1    4    4    0    0  0.40147452397E+02  0.48025436787E+02  0.73887806208E+02  0.96838362330E+02  0.00000000000E+00 0. -1.
         21    1    1    2  503  502 -0.19798093710E+01  0.36886537913E+02  0.83785956068E+02  0.91567585742E+02  0.00000000000E+00 0.  1.
          1    1    1    2  501    0 -0.22670066968E+02 -0.13316937381E+02 -0.64680650644E+01  0.27075978712E+02  0.00000000000E+00 0. -1.
<scales pt_clust_5="13000.00000" pt_clust_6="13000.00000" pt_clust_7="13000.00000" pt_clust_8="13000.00000" pt_clust_9="36.32163" pt_clust_10="26.29207"></scales>
<clustering>
<clus scale="   26.292">  2 10  1 -1</clus>
<clus scale="   36.322">  1  9  2 -1</clus>
<clus scale="   90.410">  5  6 -1 -1</clus>
<clus scale="   90.898">  7  8 -1 -1</clus>
<clus scale="  130.030">  1  5  2 -1</clus>
<clus scale="   26.292">  2  5  1 -1</clus>
</clustering>
</event>
<event>
10    2  0.3984345E-006  0.1293456E+03  0.7546771E-02  0.1244521E+00
          1   -1    0    0  503    0 -0.00000000000E+00  0.00000000000E+00  0.47101650167E+03  0.47101650167E+03  0.00000000000E+00 0. -1.
         21   -1    0    0  501  502  0.00000000000E+00 -0.00000000000E+00 -0.10800743450E+03  0.10800743450E+03  0.00000000000E+00 0. -1.
         23    2    1    2    0    0  0.13164705131E+02 -0.15346819741E+02  0.10208756112E+03  0.13860325201E+03  0.91543197422E+02 0.  0.
         23    2    1    2    0    0  0.49365055340E+02 -0.67255447455E+02  0.16729445107E+03  0.20790385624E+03  0.90974590834E+02 0.  0.
        -11    1    3    3    0    0 -0.28244452251E+02 -0.23521241708E+02  0.85835562002E+02  0.93374201998E+02  0.00000000000E+00 0. -1.
         11    1    3    3    0    0  0.41409157383E+02  0.81744219670E+01  0.16251999122E+02  0.45229050013E+02  0.00000000000E+00 0.  1.
        -11    1    4    4    0    0  0.76002210099E+01 -0.78430324147E+02  0.92497353798E+02  0.12151065618E+03  0.00000000000E+00 0. -1.
         11    1    4    4    0    0  0.41764834330E+02  0.11174876692E+02  0.74797097277E+02  0.86393200061E+02  0.00000000000E+00 0.  1.
         21    1    1    2  503  502 -0.24170637324E+02 -0.28634150405E+01  0.12982527345E+03  0.13208717001E+03  0.00000000000E+00 0. -1.
          1    1    1    2  501    0 -0.38359123147E+02  0.85465682237E+02 -0.36198218480E+02  0.10042965792E+03  0.00000000000E+00 0. -1.
<scales pt_clust_5="13000.00000" pt_clust_6="13000.00000" pt_clust_7="13000.00000" pt_clust_8="13000.00000" pt_clust_9="24.33966" pt_clust_10="91.94517"></scales>
<clustering>
<clus scale="   24.340">  1  9  2 -1</clus>
<clus scale="   90.975">  7  8 -1 -1</clus>
<clus scale="   91.543">  5  6 -1 -1</clus>
<clus scale="   93.108">  1  5  2 -1</clus>
<clus scale="   91.945">  2 10  1 -1</clus>
<clus scale="   91.945">  2  5  1 -1</clus>
</clustering>
</event>
<event>
10    2  0.3984345E-006  0.1017606E+03  0.7546771E-02  0.1278758E+00
         -1   -1    0    0    0  501 -0.00000000000E+00  0.00000000000E+00  0.23498703433E+03  0.23498703433E+03  0.00000000000E+00 0.  1.
         21   -1    0    0  503  502  0.00000000000E+00 -0.00000000000E+00 -0.93938032856E+02  0.93938032856E+02  0.00000000000E+00 0.  1.
         23    2    1    2    0    0  0.35625980630E+02  0.18636234681E+02  0.84139818464E+02  0.13249141711E+03  0.94116665995E+02 0.  0.
         23    2    1    2    0    0  0.50155990816E-01 -0.54433048007E+02  0.81578708938E+01  0.10526719169E+03  0.89731106971E+02 0.  0.
        -11    1    3    3    0    0  0.42365898792E+02  0.40742737148E+02  0.16555704486E+02  0.61064976556E+02  0.00000000000E+00 0.  1.
         11    1    3    3    0    0 -0.67399181616E+01 -0.22106502467E+02  0.67584113978E+02  0.71426440555E+02  0.00000000000E+00 0. -1.
        -11    1    4    4    0    0  0.89486528669E+01  0.21933102658E+02  0.15067708383E+02  0.28074458432E+02  0.00000000000E+00 0. -1.
         11    1    4    4    0    0 -0.88984968761E+01 -0.76366150665E+02 -0.69098374894E+01  0.77192733260E+02  0.00000000000E+00 0.  1.
         21    1    1    2  503  501  0.10213311272E+02  0.25162201985E+02  0.65799874138E+01  0.27941803274E+02  0.00000000000E+00 0.  1.
         -1    1    1    2    0  502 -0.45889447893E+02  0.10634611342E+02  0.42171324699E+02  0.63224655105E+02  0.00000000000E+00 0.  1.
<scales pt_clust_5="13000.00000" pt_clust_6="13000.00000" pt_clust_7="13000.00000" pt_clust_8="13000.00000" pt_clust_9="27.15600" pt_clust_10="46.68915"></scales>
<clustering>
<clus scale="   27.156">  2  9  1 -1</clus>
<clus scale="   46.689">  2 10  1 -1</clus>
<clus scale="   89.731">  7  8 -1 -1</clus>
<clus scale="   94.117">  5  6 -1 -1</clus>
<clus scale="   97.719">  2  7  1 -1</clus>
<clus scale="   27.156">  2  5  1 -1</clus>
</clustering>
</event>
<event>
10    2  0.3984345E-006  0.1310771E+03  0.7546771E-02  0.1226548E+00
          1   -1    0    0  503    0 -0.00000000000E+00  0.00000000000E+00  0.18040161650E+03  0.18040161650E+03  0.00000000000E+00 0. -1.
         21   -1    0    0  501  502  0.00000000000E+00 -0.00000000000E+00 -0.69001328902E+03  0.69001328902E+03  0.00000000000E+00 0. -1.
         23    2    1    2    0    0 -0.79719722680E+02 -0.27342208841E+02  0.57746268845E+02  0.13608689421E+03  0.89900949062E+02 0.  0.
         23    2    1    2    0    0  0.51157616186E+02 -0.26878898486E+01 -0.30809400756E+03  0.32574329316E+03  0.92533502575E+02 0.  0.
        -11    1    3    3    0    0 -0.66365923618E+02 -0.57724460378E+02  0.30331100741E+02  0.93040447203E+02  0.00000000000E+00 0. -1.
         11    1    3    3    0    0 -0.13353799062E+02  0.30382251537E+02  0.27415168104E+02  0.43046447008E+02  0.00000000000E+00 0.  1.
        -11    1    4    4    0    0  0.28008391683E+01 -0.30501112476E+02 -0.32894684925E+02  0.44946889310E+02  0.00000000000E+00 0. -1.
         11    1    4    4    0    0  0.48356777017E+02  0.27813222628E+02 -0.27519932263E+03  0.28079640385E+03  0.00000000000E+00 0.  1.
         21    1    1    2  503  502 -0.20541783496E+02  0.10379572391E+02  0.70729415257E+02  0.74379772619E+02  0.00000000000E+00 0. -1.
          1    1    1    2  501    0  0.49103889991E+02  0.19650526298E+02 -0.32999334906E+03  0.33420494554E+03  0.00000000000E+00 0. -1.
<scales pt_clust_5="13000.00000" pt_clust_6="13000.00000" pt_clust_7="13000.00000" pt_clust_8="13000.00000" pt_clust_9="23.01522" pt_clust_10="52.59384"></scales>
<clustering>
<clus scale="   23.015">  1  9  2 -1</clus>
<clus scale="   52.594">  2 10  1 -1</clus>
<clus scale="   89.901">  5  6 -1 -1</clus>
<clus scale="   92.534">  7  8 -1 -1</clus>
<clus scale="  129.232">  1  5  2 -1</clus>
<clus scale="   52.594">  2  5  1 -1</clus>
</clustering>
</event>
<event>
10    2  0.3984345E-006  0.9276158E+02  0.7546771E-02  0.1296912E+00
          3   -1    0    0  503    0 -0.00000000000E+00  0.00000000000E+00  0.24497723030E+03  0.24497723030E+03  0.00000000000E+00 0. -1.
         21   -1    0    0  501  502  0.00000000000E+00 -0.00000000000E+00 -0.16787712539E+03  0.16787712539E+03  0.00000000000E+00 0.  1.
         23    2    1    2    0    0  0.54292587007E+02  0.74064677885E+01  0.31580540193E+02  0.11132061960E+03  0.91610092574E+02 0.  0.
         23    2    1    2    0    0  0.30340962280E+02  0.14258622685E+02 -0.67320120980E+01  0.96789659831E+02  0.90548528151E+02 0.  0.
        -11    1    3    3    0    0  0.55236217848E+02 -0.25245891933E+02 -0.65807504748E+01  0.61087650949E+02  0.00000000000E+00 0.  1.
         11    1    3    3    0    0 -0.94363084169E+00  0.32652359722E+02  0.38161290667E+02  0.50232968656E+02  0.00000000000E+00 0. -1.
        -13    1    4    4    0    0 -0.16255311556E+02 -0.18706834838E+02  0.21773792517E+02  0.32989071888E+02  0.00000000000E+00 0. -1.
         13    1    4    4    0    0  0.46596273836E+02  0.32965457523E+02 -0.28505804615E+02  0.63800587943E+02  0.00000000000E+00 0.  1.
         21    1    1    2  503  502 -0.29068286672E+02 -0.28101267718E+02  0.11427869539E+03  0.12121991073E+03  0.00000000000E+00 0. -1.
          3    1    1    2  501    0 -0.55565262615E+02  0.64361772441E+01 -0.62027118572E+02  0.83524165517E+02  0.00000000000E+00 0. -1.
<scales pt_clust_5="13000.00000" pt_clust_6="13000.00000" pt_clust_7="13000.00000" pt_clust_8="13000.00000" pt_clust_9="40.43076" pt_clust_10="58.16304"></scales>
<clustering>
<clus scale="   40.431">  1  9  2 -1</clus>
<clus scale="   58.163">  2 10  1 -1</clus>
<clus scale="   90.549">  7  8 -1 -1</clus>
<clus scale="   91.610">  5  6 -1 -1</clus>
<clus scale="   91.713">  2  7  1 -1</clus>
<clus scale="   58.163">  2  5  1 -1</clus>
</clustering>
</event>
<event>
10    2  0.3984345E-006  0.1004223E+03  0.7546771E-02  0.1281860E+00
         -3   -1    0    0    0  501 -0.00000000000E+00  0.00000000000E+00  0.11054807967E+03  0.11054807967E+03  0.00000000000E+00 0.  1.
         21   -1    0    0  503  502  0.00000000000E+00 -0.00000000000E+00 -0.44374291183E+03  0.44374291183E+03  0.00000000000E+00 0. -1.
         23    2    1    2    0    0 -0.15991462553E+02 -0.22581377494E+01  0.46173146234E+02  0.10637484073E+03  0.94460686248E+02 0.  0.
         23    2    1    2    0    0  0.51790273065E+02 -0.20680206465E+02 -0.20004075828E+03  0.22616827029E+03  0.89587265776E+02 0.  0.
        -11    1    3    3    0    0 -0.10908860993E+02 -0.47669362976E+02  0.15342825338E+02  0.51252060486E+02  0.00000000000E+00 0.  1.
         11    1    3    3    0    0 -0.50826015595E+01  0.45411225227E+02  0.30830320896E+02  0.55122780243E+02  0.00000000000E+00 0. -1.
        -13    1    4    4    0    0  0.13036969786E+02 -0.52349872979E+02 -0.84493115602E+02  0.10024748559E+03  0.00000000000E+00 0.  1.
         13    1    4    4    0    0  0.38753303279E+02  0.31669666514E+02 -0.11554764268E+03  0.12592078471E+03  0.00000000000E+00 0. -1.
         21    1    1    2  503  501 -0.11093815564E+02  0.22953466862E+02  0.12460157182E+02  0.28375868299E+02  0.00000000000E+00 0.  1.
         -3    1    1    2    0  502 -0.24704994949E+02 -0.15122647361E-01 -0.19178737729E+03  0.19337201218E+03  0.00000000000E+00 0.  1.
<scales pt_clust_5="13000.00000" pt_clust_6="13000.00000" pt_clust_7="13000.00000" pt_clust_8="13000.00000" pt_clust_9="25.84362" pt_clust_10="24.70500"></scales>
<clustering>
<clus scale="   24.705">  2 10  1 -1</clus>
<clus scale="   25.844">  1  9  2 -1</clus>
<clus scale="   89.587">  7  8 -1 -1</clus>
<clus scale="   94.461">  5  6 -1 -1</clus>
<clus scale="   95.852">  2  7  1 -1</clus>
<clus scale="   24.705">  2  5  1 -1</clus>
</clustering>
</event>
<event>
10    2  0.3984345E-006  0.2008026E+03  0.7546771E-02  0.1149165E+00
         -3   -1    0    0    0  501 -0.00000000000E+00  0.00000000000E+00  0.48319880749E+03  0.48319880749E+03  0.00000000000E+00 0.  1.
         21   -1    0    0  503  502  0.00000000000E+00 -0.00000000000E+00 -0.18946456375E+03  0.18946456375E+03  0.00000000000E+00 0.  1.
         23    2    1    2    0    0 -0.16153238195E+03  0.58554903633E+02  0.26478357869E+03  0.32811555226E+03  0.89599581114E+02 0.  0.
         23    2    1    2    0    0  0.16249785236E+03 -0.51072524192E+02  0.48819257888E+02  0.19904315062E+03  0.90669185057E+02 0.  0.
        -11    1    4    4    0    0  0.86905344744E+02 -0.73258764362E+02  0.21637472729E+02  0.11570464868E+03  0.00000000000E+00 0. -1.
         11    1    4    4    0    0  0.75592507612E+02  0.22186240170E+02  0.27181785159E+02  0.83338501932E+02  0.00000000000E+00 0.  1.
        -13    1    3    3    0    0 -0.15823201258E+03  0.29598831363E+02  0.19751427809E+03  0.25480453425E+03  0.00000000000E+00 0.  1.
         13    1    3    3    0    0 -0.33003693650E+01  0.28956072270E+02  0.67269300594E+02  0.73311018010E+02  0.00000000000E+00 0. -1.
         21    1    1    2  503  501 -0.16716224778E+02  0.19526557440E+02  0.56996133613E+02  0.62524218213E+02  0.00000000000E+00 0. -1.
         -3    1    1    2    0  502  0.15750754372E+02 -0.27008936881E+02 -0.76864726451E+02  0.82980450150E+02  0.00000000000E+00 0.  1.
<scales pt_clust_5="13000.00000" pt_clust_6="13000.00000" pt_clust_7="13000.00000" pt_clust_8="13000.00000" pt_clust_9="25.70445" pt_clust_10="31.08349"></scales>
<clustering>
<clus scale="   25.704">  1  9  2 -1</clus>
<clus scale="   31.083">  2 10  1 -1</clus>
<clus scale="   89.600">  7  8 -1 -1</clus>
<clus scale="   90.669">  5  6 -1 -1</clus>
<clus scale="  200.322">  1  7  2 -1</clus>
<clus scale="   31.083">  2  5  1 -1</clus>
</clustering>
</event>
<event>
10    2  0.3984345E-006  0.1673026E+03  0.7546771E-02  0.1180912E+00
         -1   -1    0    0    0  501 -0.00000000000E+00  0.00000000000E+00  0.76364236120E+03  0.76364236120E+03  0.00000000000E+00 0.  1.
         21   -1    0    0  503  502  0.00000000000E+00 -0.00000000000E+00 -0.92246975397E+02  0.92246975397E+02  0.00000000000E+00 0.  1.
         23    2    1    2    0    0  0.84874838103E+02  0.75390475409E+02  0.27420506018E+03  0.31014271806E+03  0.90070131633E+02 0.  0.
         23    2    1    2    0    0 -0.31054323130E+02 -0.16786671774E+03  0.12867450177E+03  0.23257307874E+03  0.91594233662E+02 0.  0.
        -13    1    3    3    0    0  0.43606441671E+02 -0.18345264640E+00  0.16720739828E+03  0.17280008521E+03  0.00000000000E+00 0. -1.
         13    1    3    3    0    0  0.41268396431E+02  0.75573928056E+02  0.10699766191E+03  0.13734263285E+03  0.00000000000E+00 0.  1.
        -13    1    4    4    0    0 -0.36410906773E+02 -0.15594835087E+02  0.14519928550E+02  0.42187454752E+02  0.00000000000E+00 0. -1.
         13    1    4    4    0    0  0.53565836429E+01 -0.15227188265E+03  0.11415457322E+03  0.19038562399E+03  0.00000000000E+00 0.  1.
         21    1    1    2  503  501 -0.84747556689E+02  0.97992765796E+02  0.22213081515E+03  0.25715137478E+03  0.00000000000E+00 0.  1.
         -1    1    1    2    0  502  0.30927041717E+02 -0.55165234685E+01  0.46385008699E+02  0.56022165011E+02  0.00000000000E+00 0.  1.
<scales pt_clust_5="13000.00000" pt_clust_6="13000.00000" pt_clust_7="13000.00000" pt_clust_8="13000.00000" pt_clust_9="124.73135" pt_clust_10="31.41520"></scales>
<clustering>
<clus scale="   31.415">  2 10  1 -1</clus>
<clus scale="   90.070">  5  6 -1 -1</clus>
<clus scale="   91.594">  7  8 -1 -1</clus>
<clus scale="  124.731">  1  9  2 -1</clus>
<clus scale="  166.473">  1  5  2 -1</clus>
<clus scale="   31.415">  2  5  1 -1</clus>
</clustering>
</event>
<event>
10    2  0.3984345E-006  0.2668160E+03  0.7546771E-02  0.1132204E+00
          1   -1    0    0  503    0 -0.00000000000E+00  0.00000000000E+00  0.47168812563E+03  0.47168812563E+03  0.00000000000E+00 0. -1.
         21   -1    0    0  501  502  0.00000000000E+00 -0.00000000000E+00 -0.60859081626E+03  0.60859081626E+03  0.00000000000E+00 0. -1.
         23    2    1    2    0    0  0.16410727650E+02 -0.93233068871E+02  0.42862462649E+02  0.13835299424E+03  0.91338070911E+02 0.  0.
         23    2    1    2    0    0 -0.25470185402E+03 -0.54372422858E+02 -0.39067023112E+03  0.47681096258E+03  0.83042577883E+02 0.  0.
        -11    1    3    3    0    0 -0.30940205304E+02 -0.66415147070E+02  0.79498149915E+01  0.73698491321E+02  0.00000000000E+00 0.  1.
         11    1    3    3    0    0  0.47350932953E+02 -0.26817921801E+02  0.34912647657E+02  0.64654502919E+02  0.00000000000E+00 0. -1.
        -13    1    4    4    0    0 -0.20793182551E+02 -0.17473154548E+02 -0.90455450921E+02  0.94444990189E+02  0.00000000000E+00 0.  1.
         13    1    4    4    0    0 -0.23390867147E+03 -0.36899268310E+02 -0.30021478020E+03  0.38236597239E+03  0.00000000000E+00 0. -1.
         21    1    1    2  503  502  0.23782065378E+03  0.98912979878E+02  0.28008680030E+03  0.38051420034E+03  0.00000000000E+00 0. -1.
          1    1    1    2  501    0  0.47047259124E+00  0.48692511850E+02 -0.69181722460E+02  0.84600784732E+02  0.00000000000E+00 0. -1.
<scales pt_clust_5="13000.00000" pt_clust_6="13000.00000" pt_clust_7="13000.00000" pt_clust_8="13000.00000" pt_clust_9="253.56399" pt_clust_10="48.69478"></scales>
<clustering>
<clus scale="   48.695">  2 10  1 -1</clus>
<clus scale="   83.043">  7  8 -1 -1</clus>
<clus scale="   91.338">  5  6 -1 -1</clus>
<clus scale="  128.489">  1  5  2 -1</clus>
<clus scale="  253.564">  1  9  2 -1</clus>
<clus scale="   48.695">  2  5  1 -1</clus>
</clustering>
</event>
<event>
10    2  0.3984345E-006  0.9700462E+02  0.7546771E-02  0.1288762E+00
         21   -1    0    0  501  502  0.00000000000E+00  0.00000000000E+00  0.14113006180E+03  0.14113006180E+03  0.00000000000E+00 0. -1.
          1   -1    0    0  503    0 -0.00000000000E+00 -0.00000000000E+00 -0.54544813947E+03  0.54544813947E+03  0.00000000000E+00 0. -1.
         23    2    1    2    0    0 -0.26021228660E+02 -0.63176112535E+01 -0.12993375725E+03  0.16247234749E+03  0.93794807284E+02 0.  0.
         23    2    1    2    0    0  0.69261562615E+00 -0.45512963013E+02 -0.16032716486E+03  0.18942011933E+03  0.90018177583E+02 0.  0.
        -13    1    4    4    0    0 -0.30312595854E+02  0.12260999604E+01 -0.10985208344E+03  0.11396419186E+03  0.00000000000E+00 0.  1.
         13    1    4    4    0    0  0.31005211480E+02 -0.46739062973E+02 -0.50475081416E+02  0.75455927471E+02  0.00000000000E+00 0. -1.
        -13    1    3    3    0    0 -0.56239044281E+02 -0.36226303101E+01 -0.44483735945E+02  0.71796631645E+02  0.00000000000E+00 0.  1.
         13    1    3    3    0    0  0.30217815621E+02 -0.26949809434E+01 -0.85450021308E+02  0.90675715849E+02  0.00000000000E+00 0. -1.
         21    1    1    2  503  502  0.59385611478E+02  0.26234365155E+01 -0.21185211860E+03  0.22003375520E+03  0.00000000000E+00 0. -1.
          1    1    1    2  501    0 -0.34056998444E+02  0.49207137751E+02  0.97794963049E+02  0.11465197925E+03  0.00000000000E+00 0. -1.
<scales pt_clust_5="13000.00000" pt_clust_6="13000.00000" pt_clust_7="13000.00000" pt_clust_8="13000.00000" pt_clust_9="59.44353" pt_clust_10="59.04803"></scales>
<clustering>
<clus scale="   59.444">  2  9  1 -1</clus>
<clus scale="   59.048">  1 10  2 -1</clus>
<clus scale="   90.018">  5  6 -1 -1</clus>
<clus scale="   93.358">  1  5  2 -1</clus>
<clus scale="   93.795">  7  8 -1 -1</clus>
<clus scale="   59.048">  1  5  2 -1</clus>
</clustering>
</event>
<event>
10    2  0.3984345E-006  0.1262119E+03  0.7546771E-02  0.1250324E+00
          4   -1    0    0  503    0 -0.00000000000E+00  0.00000000000E+00  0.27699738735E+03  0.27699738735E+03  0.00000000000E+00 0. -1.
         21   -1    0    0  501  502  0.00000000000E+00 -0.00000000000E+00 -0.66527469537E+03  0.66527469537E+03  0.00000000000E+00 0. -1.
         23    2    1    2    0    0  0.13429594532E+02  0.10543117533E+02 -0.90606537207E+02  0.12661509206E+03  0.86777448775E+02 0.  0.
         23    2    1    2    0    0  0.74677929908E+02  0.27836237638E+02 -0.97356131978E+02  0.15408169360E+03  0.88945503128E+02 0.  0.
        -11    1    4    4    0    0  0.33199248585E+02  0.36863398642E+02 -0.99916940062E+02  0.11155489760E+03  0.00000000000E+00 0.  1.
         11    1    4    4    0    0  0.41478681323E+02 -0.90271610042E+01  0.25608080841E+01  0.42526796002E+02  0.00000000000E+00 0. -1.
        -13    1    3    3    0    0  0.29981105423E+02  0.42396864055E+02 -0.60800429419E+02  0.79956569346E+02  0.00000000000E+00 0.  1.
         13    1    3    3    0    0 -0.16551510891E+02 -0.31853746522E+02 -0.29806107788E+02  0.46658522713E+02  0.00000000000E+00 0. -1.
         21    1    1    2  503  502 -0.84876906322E+00 -0.76055123546E+02  0.21889150798E+03  0.23172957190E+03  0.00000000000E+00 0. -1.
          4    1    1    2  501    0 -0.87258755377E+02  0.37675768375E+02 -0.41920614682E+03  0.42984572517E+03  0.00000000000E+00 0. -1.
<scales pt_clust_5="13000.00000" pt_clust_6="13000.00000" pt_clust_7="13000.00000" pt_clust_8="13000.00000" pt_clust_9="76.05986" pt_clust_10="89.54406"></scales>
<clustering>
<clus scale="   76.060">  1  9  2 -1</clus>
<clus scale="   86.777">  7  8 -1 -1</clus>
<clus scale="   88.946">  5  6 -1 -1</clus>
<clus scale="   89.203">  1  7  2 -1</clus>
<clus scale="   89.544">  2 10  1 -1</clus>
<clus scale="   89.544">  2  5  1 -1</clus>
</clustering>
</event>
<event>
10    2  0.3984345E-006  0.1086923E+03  0.7546771E-02  0.1265504E+00
          4   -1    0    0  503    0 -0.00000000000E+00  0.00000000000E+00  0.43256848602E+03  0.43256848602E+03  0.00000000000E+00 0. -1.
         21   -1    0    0  501  502  0.00000000000E+00 -0.00000000000E+00 -0.23524990622E+03  0.23524990622E+03  0.00000000000E+00 0. -1.
         23    2    1    2    0    0  0.66489979558E+02  0.84144684803E+02  0.17588988043E+03  0.22764148951E+03  0.96861511166E+02 0.  0.
         23    2    1    2    0    0 -0.10753763407E+01  0.43036023944E+01  0.64876233938E+02  0.11187005341E+03  0.91029147482E+02 0.  0.
        -11    1    3    3    0    0  0.62451005599E+02  0.29232573989E+02  0.37039564809E+02  0.78272605959E+02  0.00000000000E+00 0.  1.
         11    1    3    3    0    0  0.40389739593E+01  0.54912110814E+02  0.13885031562E+03  0.14936888355E+03  0.00000000000E+00 0. -1.
        -11    1    4    4    0    0 -0.14905575846E+02 -0.40950851176E+02  0.35140674578E+02  0.55982277670E+02  0.00000000000E+00 0.  1.
         11    1    4    4    0    0  0.13830199505E+02  0.45254453570E+02  0.29735559359E+02  0.55887775736E+02  0.00000000000E+00 0. -1.
         21    1    1    2  503  502 -0.15731911469E+02 -0.14867545511E+02  0.13088808089E+03  0.13266584590E+03  0.00000000000E+00 0. -1.
          4    1    1    2  501    0 -0.49682691749E+02 -0.73580741687E+02 -0.17433561546E+03  0.19564100343E+03  0.00000000000E+00 0. -1.
<scales pt_clust_5="13000.00000" pt_clust_6="13000.00000" pt_clust_7="13000.00000" pt_clust_8="13000.00000" pt_clust_9="21.64571" pt_clust_10="89.53174"></scales>
<clustering>
<clus scale="   21.646">  1  9  2 -1</clus>
<clus scale="   89.532">  2 10  1 -1</clus>
<clus scale="   91.029">  7  8 -1 -1</clus>
<clus scale="   96.862">  5  6 -1 -1</clus>
<clus scale="  103.529">  2  7  1 -1</clus>
<clus scale="   89.532">  2  5  1 -1</clus>
</clustering>
</event>
<event>
10    2  0.3984345E-006  0.2718234E+03  0.7546771E-02  0.1100267E+00
         21   -1    0    0  501  502  0.00000000000E+00  0.00000000000E+00  0.54609424987E+03  0.54609424987E+03  0.00000000000E+00 0. -1.
          2   -1    0    0  503    0 -0.00000000000E+00 -0.00000000000E+00 -0.70327057836E+03  0.70327057836E+03  0.00000000000E+00 0. -1.
         23    2    1    2    0    0  0.67638980036E+02 -0.24207188002E+03 -0.11465617396E+03  0.29069675774E+03  0.90469552969E+02 0.  0.
         23    2    1    2    0    0 -0.14557471008E+03  0.22639663360E+03 -0.16698250627E+03  0.32957091146E+03  0.91029645491E+02 0.  0.
        -11    1    3    3    0    0  0.14402867799E+02 -0.32397170666E+02  0.14992157185E+02  0.38493948162E+02  0.00000000000E+00 0. -1.
         11    1    3    3    0    0  0.53236112237E+02 -0.20967470936E+03 -0.12964833114E+03  0.25220280958E+03  0.00000000000E+00 0.  1.
        -11    1    4    4    0    0 -0.52130415567E+02  0.13382257240E+03 -0.12799923278E+03  0.19237948098E+03  0.00000000000E+00 0. -1.
         11    1    4    4    0    0 -0.93444294512E+02  0.92574061194E+02 -0.38983273497E+02  0.13719143047E+03  0.00000000000E+00 0.  1.
         21    1    1    2  503  502  0.65194251516E+02  0.85409259158E+02 -0.23728010654E+03  0.26047433835E+03  0.00000000000E+00 0. -1.
          2    1    1    2  501    0  0.12741478527E+02 -0.69734012730E+02  0.36174245828E+03  0.36862282069E+03  0.00000000000E+00 0. -1.
<scales pt_clust_5="13000.00000" pt_clust_6="13000.00000" pt_clust_7="13000.00000" pt_clust_8="13000.00000" pt_clust_9="104.44417" pt_clust_10="70.88849"></scales>
<clustering>
<clus scale="   70.888">  1 10  2 -1</clus>
<clus scale="   90.470">  5  6 -1 -1</clus>
<clus scale="   91.030">  7  8 -1 -1</clus>
<clus scale="  104.444">  2  9  1 -1</clus>
<clus scale="  271.636">  2  5  1 -1</clus>
<clus scale="   70.888">  1  5  2 -1</clus>
</clustering>
</event>
<event>
10    2  0.3984345E-006  0.1106090E+03  0.7546771E-02  0.1262820E+00
          1   -1    0    0  503    0 -0.00000000000E+00  0.00000000000E+00  0.66397037396E+03  0.66397037396E+03  0.00000000000E+00 0. -1.
         21   -1    0    0  501  502  0.00000000000E+00 -0.00000000000E+00 -0.15321983200E+03  0.15321983200E+03  0.00000000000E+00 0. -1.
         23    2    1    2    0    0  0.40204438047E+02 -0.54614036914E+02  0.32953148685E+03  0.34672578897E+03  0.83837235445E+02 0.  0.
         23    2    1    2    0    0  0.62339628690E+01  0.63469261670E+02  0.16179009285E+03  0.19694927145E+03  0.92443344334E+02 0.  0.
        -11    1    4    4    0    0  0.36536621181E+02 -0.54804959869E+01  0.50582001644E+02  0.62637843305E+02  0.00000000000E+00 0.  1.
         11    1    4    4    0    0 -0.30302658312E+02  0.68949757657E+02  0.11120809121E+03  0.13431142815E+03  0.00000000000E+00 0. -1.
        -13    1    3    3    0    0  0.55342897143E+02 -0.13960876449E+02  0.24676442535E+03  0.25327933977E+03  0.00000000000E+00 0.  1.
         13    1    3    3    0    0 -0.15138459096E+02 -0.40653160465E+02  0.82767061500E+02  0.93446449205E+02  0.00000000000E+00 0. -1.
         21    1    1    2  503  502 -0.22275815190E+02 -0.17434511041E+01  0.14435563620E+03  0.14607464280E+03  0.00000000000E+00 0. -1.
          1    1    1    2  501    0 -0.24162585726E+02 -0.71117736517E+01 -0.12492667394E+03  0.12744050273E+03  0.00000000000E+00 0. -1.
<scales pt_clust_5="13000.00000" pt_clust_6="13000.00000" pt_clust_7="13000.00000" pt_clust_8="13000.00000" pt_clust_9="22.34394" pt_clust_10="25.24043"></scales>
<clustering>
<clus scale="   22.344">  1  9  2 -1</clus>
<clus scale="   25.240">  2 10  1 -1</clus>
<clus scale="   83.837">  7  8 -1 -1</clus>
<clus scale="   92.443">  5  6 -1 -1</clus>
<clus scale="  103.524">  1  7  2 -1</clus>
<clus scale="   25.240">  2  5  1 -1</clus>
</clustering>
</event>
<event>
10    2  0.3984345E-006  0.1432403E+03  0.7546771E-02  0.1210904E+00
         21   -1    0    0  501  502  0.00000000000E+00  0.00000000000E+00  0.56028491376E+02  0.56028491376E+02  0.00000000000E+00 0.  1.
          1   -1    0    0  503    0 -0.00000000000E+00 -0.00000000000E+00 -0.14843046042E+04  0.14843046042E+04  0.00000000000E+00 0. -1.
         23    2    1    2    0    0  0.24903857352E+02  0.11977233964E+03 -0.70768035265E+03  0.72408919713E+03  0.92347541513E+02 0.  0.
         23    2    1    2    0    0  0.80560574641E+02 -0.47268020484E+02 -0.85168115334E+02  0.16149448503E+03  0.10051163553E+03 0.  0.
        -13    1    4    4    0    0  0.17571129525E+02 -0.37270363377E+02 -0.88507811114E+02  0.97629182149E+02  0.00000000000E+00 0. -1.
         13    1    4    4    0    0  0.62989445116E+02 -0.99976571071E+01  0.33396957800E+01  0.63865302877E+02  0.00000000000E+00 0.  1.
        -13    1    3    3    0    0 -0.33569470961E+02  0.64989870602E+02 -0.33575176053E+03  0.34362746887E+03  0.00000000000E+00 0. -1.
         13    1    3    3    0    0  0.58473328313E+02  0.54782469040E+02 -0.37192859211E+03  0.38046172826E+03  0.00000000000E+00 0.  1.
         21    1    1    2  503  502 -0.92070491458E+02 -0.24265147995E+02 -0.52415710928E+03  0.53273487591E+03  0.00000000000E+00 0. -1.
          1    1    1    2  501    0 -0.13393940536E+02 -0.48239171164E+02 -0.11127053552E+03  0.12201453746E+03  0.00000000000E+00 0. -1.
<scales pt_clust_5="13000.00000" pt_clust_6="13000.00000" pt_clust_7="13000.00000" pt_clust_8="13000.00000" pt_clust_9="97.42056" pt_clust_10="50.06411"></scales>
<clustering>
<clus scale="   50.064">  1 10  2 -1</clus>
<clus scale="   92.348">  7  8 -1 -1</clus>
<clus scale="   97.421">  2  9  1 -1</clus>
<clus scale="  100.512">  5  6 -1 -1</clus>
<clus scale="  137.635">  2  7  1 -1</clus>
<clus scale="   50.064">  1  5  2 -1</clus>
</clustering>
</event>
<event>
10    2  0.3984345E-006  0.1350408E+03  0.7546771E-02  0.1222099E+00
          1   -1    0    0  503    0 -0.00000000000E+00  0.00000000000E+00  0.50681915083E+03  0.50681915083E+03  0.00000000000E+00 0. -1.
         21   -1    0    0  501  502  0.00000000000E+00 -0.00000000000E+00 -0.86578812029E+02  0.86578812029E+02  0.00000000000E+00 0. -1.
         23    2    1    2    0    0  0.84863448707E+02 -0.46670107681E+01  0.22118363256E+03  0.25695594480E+03  0.99401068079E+02 0.  0.
         23    2    1    2    0    0 -0.10523536325E+03  0.23835820285E+02  0.73121466587E+02  0.15952365183E+03  0.91969661360E+02 0.  0.
        -13    1    3    3    0    0 -0.19315959792E+02  0.15140745782E+02  0.36298458526E+02  0.43816966769E+02  0.00000000000E+00 0.  1.
         13    1    3    3    0    0  0.10417940850E+03 -0.19807756550E+02  0.18488517404E+03  0.21313897803E+03  0.00000000000E+00 0. -1.
        -13    1    4    4    0    0 -0.37059861359E+02 -0.10149962404E+02  0.73955736455E+02  0.83342102297E+02  0.00000000000E+00 0. -1.
         13    1    4    4    0    0 -0.68175501894E+02  0.33985782689E+02 -0.83426986763E+00  0.76181549536E+02  0.00000000000E+00 0.  1.
         21    1    1    2  503  502  0.68609955619E+02 -0.29729583107E+02  0.79380430139E+02  0.10905240397E+03  0.00000000000E+00 0.  1.
          1    1    1    2  501    0 -0.48238041072E+02  0.10560773590E+02  0.46554809506E+02  0.67865962260E+02  0.00000000000E+00 0. -1.
<scales pt_clust_5="13000.00000" pt_clust_6="13000.00000" pt_clust_7="13000.00000" pt_clust_8="13000.00000" pt_clust_9="65.33096" pt_clust_10="49.38055"></scales>
<clustering>
<clus scale="   49.381">  2 10  1 -1</clus>
<clus scale="   65.331">  2  9  1 -1</clus>
<clus scale="   91.970">  7  8 -1 -1</clus>
<clus scale="   99.401">  5  6 -1 -1</clus>
<clus scale="  129.668">  2  7  1 -1</clus>
<clus scale="   49.381">  2  5  1 -1</clus>
</clustering>
</event>
<event>
10    2  0.3984345E-006  0.1860652E+03  0.7546771E-02  0.1162719E+00
          1   -1    0    0  503    0 -0.00000000000E+00  0.00000000000E+00  0.11932443962E+03  0.11932443962E+03  0.00000000000E+00 0. -1.
         21   -1    0    0  501  502  0.00000000000E+00 -0.00000000000E+00 -0.46847390007E+03  0.46847390007E+03  0.00000000000E+00 0.  1.
         23    2    1    2    0    0 -0.27343833868E+02  0.16313311257E+03 -0.84865686504E+02  0.20678761655E+03  0.90547423736E+02 0.  0.
         23    2    1    2    0    0  0.43162975830E+02 -0.15267448319E+03 -0.13347200859E+03  0.22853852317E+03  0.96138125616E+02 0.  0.
        -11    1    4    4    0    0 -0.14464563895E+02 -0.58467950037E+02 -0.69986773295E+01  0.60635849747E+02  0.00000000000E+00 0. -1.
         11    1    4    4    0    0  0.57627539724E+02 -0.94206533152E+02 -0.12647333126E+03  0.16790267342E+03  0.00000000000E+00 0.  1.
        -11    1    3    3    0    0 -0.44485904641E+02  0.15116343604E+03 -0.94531250537E+02  0.18375401339E+03  0.00000000000E+00 0. -1.
         11    1    3    3    0    0  0.17142070773E+02  0.11969676528E+02  0.96655640330E+01  0.23033603163E+02  0.00000000000E+00 0.  1.
         21    1    1    2  503  502  0.50226843679E+01 -0.19731404312E+02 -0.69662258512E+00  0.20372554023E+02  0.00000000000E+00 0.  1.
          1    1    1    2  501    0 -0.20841826329E+02  0.92727749293E+01 -0.13011514277E+03  0.13209964594E+03  0.00000000000E+00 0. -1.
<scales pt_clust_5="13000.00000" pt_clust_6="13000.00000" pt_clust_7="13000.00000" pt_clust_8="13000.00000" pt_clust_9="20.36064" pt_clust_10="22.69772"></scales>
<clustering>
<clus scale="   20.361">  1  9  2 -1</clus>
<clus scale="   22.698">  2 10  1 -1</clus>
<clus scale="   90.547">  7  8 -1 -1</clus>
<clus scale="   96.138">  5  6 -1 -1</clus>
<clus scale="  183.239">  1  7  2 -1</clus>
<clus scale="   22.698">  2  5  1 -1</clus>
</clustering>
</event>
<event>
10    2  0.3984345E-006  0.1889831E+03  0.7546771E-02  0.1191724E+00
         -2   -1    0    0    0  501 -0.00000000000E+00  0.00000000000E+00  0.16195616102E+03  0.16195616102E+03  0.00000000000E+00 0.  1.
         21   -1    0    0  503  502  0.00000000000E+00 -0.00000000000E+00 -0.42013971013E+03  0.42013971013E+03  0.00000000000E+00 0. -1.
         23    2    1    2    0    0 -0.42045834934E+00  0.61138779259E+01  0.30236688936E+02  0.95829584138E+02  0.90727589793E+02 0.  0.
         23    2    1    2    0    0  0.15168007785E+03  0.62001078185E+02 -0.19852416219E+03  0.27315345142E+03  0.91378254186E+02 0.  0.
        -11    1    4    4    0    0  0.55328906920E+02  0.67125769620E+02 -0.65843541631E+02  0.10909871155E+03  0.00000000000E+00 0.  1.
         11    1    4    4    0    0  0.96351170925E+02 -0.51246914348E+01 -0.13268062055E+03  0.16405473986E+03  0.00000000000E+00 0. -1.
        -13    1    3    3    0    0 -0.36306060173E+02  0.16776168666E+02  0.40594828937E+02  0.56986928122E+02  0.00000000000E+00 0.  1.
         13    1    3    3    0    0  0.35885601824E+02 -0.10662290741E+02 -0.10358140000E+02  0.38842656016E+02  0.00000000000E+00 0. -1.
         21    1    1    2  503  501  0.94226640135E+01 -0.19361460474E+02  0.21220287127E+01  0.21636907234E+02  0.00000000000E+00 0. -1.
         -2    1    1    2    0  502 -0.16068228351E+03 -0.48753495637E+02 -0.92018104578E+02  0.19147592836E+03  0.00000000000E+00 0.  1.
<scales pt_clust_5="13000.00000" pt_clust_6="13000.00000" pt_clust_7="13000.00000" pt_clust_8="13000.00000" pt_clust_9="21.53260" pt_clust_10="165.42262"></scales>
<clustering>
<clus scale="   21.533">  1  9  2 -1</clus>
<clus scale="   90.728">  7  8 -1 -1</clus>
<clus scale="   90.819">  1  7  2 -1</clus>
<clus scale="   91.378">  5  6 -1 -1</clus>
<clus scale="  165.423">  2 10  1 -1</clus>
<clus scale="  165.423">  2  5  1 -1</clus>
</clustering>
</event>
<event>
10    2  0.3984345E-006  0.1134713E+03  0.7546771E-02  0.1255017E+00
          2   -1    0    0  503    0 -0.00000000000E+00  0.00000000000E+00  0.10616669542E+04  0.10616669542E+04  0.00000000000E+00 0. -1.
         21   -1    0    0  501  502  0.00000000000E+00 -0.00000000000E+00 -0.56593168530E+02  0.56593168530E+02  0.00000000000E+00 0. -1.
         23    2    1    2    0    0 -0.44839898608E+02 -0.24867712910E+02  0.47985910325E+03  0.49104670926E+03  0.90736387651E+02 0.  0.
         23    2    1    2    0    0  0.58136717158E+02  0.22069018283E+02  0.17339715473E+03  0.20443220747E+03  0.88651197019E+02 0.  0.
        -13    1    4    4    0    0  0.25316943950E+02 -0.30687996239E+02  0.36058161692E+02  0.53692567351E+02  0.00000000000E+00 0. -1.
         13    1    4    4    0    0  0.32819773208E+02  0.52757014522E+02  0.13733899304E+03  0.15073964012E+03  0.00000000000E+00 0.  1.
        -13    1    3    3    0    0 -0.25120985440E+02  0.33397917775E+02  0.22686741224E+03  0.23068443284E+03  0.00000000000E+00 0. -1.
         13    1    3    3    0    0 -0.19718913168E+02 -0.58265630685E+02  0.25299169102E+03  0.26036227641E+03  0.00000000000E+00 0.  1.
         21    1    1    2  503  502 -0.11874278483E+02 -0.57231541625E+02  0.35770235334E+03  0.36244643939E+03  0.00000000000E+00 0. -1.
          2    1    1    2  501    0 -0.14225400664E+01  0.60030236253E+02 -0.58848256807E+01  0.60334766578E+02  0.00000000000E+00 0. -1.
<scales pt_clust_5="13000.00000" pt_clust_6="13000.00000" pt_clust_7="13000.00000" pt_clust_8="13000.00000" pt_clust_9="58.45039" pt_clust_10="57.84006"></scales>
<clustering>
<clus scale="   58.450">  1  9  2 -1</clus>
<clus scale="   57.840">  2 10  1 -1</clus>
<clus scale="   88.651">  5  6 -1 -1</clus>
<clus scale="   90.736">  7  8 -1 -1</clus>
<clus scale="  111.811">  2  5  1 -1</clus>
<clus scale="   57.840">  2  5  1 -1</clus>
</clustering>
</event>
<event>
10    2  0.3984345E-006  0.1403080E+03  0.7546771E-02  0.1230206E+00
         21   -1    0    0  503  502  0.00000000000E+00  0.00000000000E+00  0.52610964389E+03  0.52610964389E+03  0.00000000000E+00 0. -1.
         -1   -1    0    0    0  501 -0.00000000000E+00 -0.00000000000E+00 -0.19026151970E+03  0.19026151970E+03  0.00000000000E+00 0.  1.
         23    2    1    2    0    0 -0.60605739277E+02 -0.38486731935E+02  0.13932741938E+03  0.18103187260E+03  0.90587664376E+02 0.  0.
         23    2    1    2    0    0 -0.32680878020E+02 -0.20632764781E+02  0.21944595900E+03  0.23966502726E+03  0.88255569793E+02 0.  0.
        -11    1    4    4    0    0  0.18908555298E+02 -0.18000754691E+02  0.15445410197E+03  0.15664491773E+03  0.00000000000E+00 0. -1.
         11    1    4    4    0    0 -0.51589433319E+02 -0.26320100907E+01  0.64991857023E+02  0.83020109531E+02  0.00000000000E+00 0.  1.
        -13    1    3    3    0    0  0.11283180543E+02  0.19561562233E+02  0.35180696980E+02  0.41804860007E+02  0.00000000000E+00 0.  1.
         13    1    3    3    0    0 -0.71888919820E+02 -0.58048294168E+02  0.10414672240E+03  0.13922701259E+03  0.00000000000E+00 0. -1.
         21    1    1    2  503  501  0.67418298491E+02  0.89604146423E+02 -0.13569200787E+03  0.17602968792E+03  0.00000000000E+00 0.  1.
         -1    1    1    2    0  502  0.25868318806E+02 -0.30484649707E+02  0.11276675368E+03  0.11964457581E+03  0.00000000000E+00 0.  1.
<scales pt_clust_5="13000.00000" pt_clust_6="13000.00000" pt_clust_7="13000.00000" pt_clust_8="13000.00000" pt_clust_9="107.14570" pt_clust_10="39.98104"></scales>
<clustering>
<clus scale="   39.981">  1 10  2 -1</clus>
<clus scale="   88.256">  5  6 -1 -1</clus>
<clus scale="   90.588">  7  8 -1 -1</clus>
<clus scale="   97.682">  1  5  2 -1</clus>
<clus scale="  107.146">  2  9  1 -1</clus>
<clus scale="   39.981">  1  5  2 -1</clus>
</clustering>
</event>
<event>
10    2  0.3984345E-006  0.1072675E+03  0.7546771E-02  0.1265972E+00
         -1   -1    0    0    0  501 -0.00000000000E+00  0.00000000000E+00  0.35371567098E+03  0.35371567098E+03  0.00000000000E+00 0. -1.
         21   -1    0    0  503  502  0.00000000000E+00 -0.00000000000E+00 -0.10316521835E+03  0.10316521835E+03  0.00000000000E+00 0.  1.
         23    2    1    2    0    0 -0.45984948291E+02  0.56358225470E+02  0.14288217471E+03  0.18699908172E+03  0.96241756345E+02 0.  0.
         23    2    1    2    0    0 -0.12714809423E+00 -0.20353113570E+02  0.75193183336E+02  0.12427901902E+03  0.96834881881E+02 0.  0.
        -11    1    3    3    0    0  0.13382072047E+02  0.23692350702E+02 -0.17644689883E+01  0.27267575706E+02  0.00000000000E+00 0.  1.
         11    1    3    3    0    0 -0.59367020338E+02  0.32665874767E+02  0.14464664370E+03  0.15973150601E+03  0.00000000000E+00 0. -1.
        -11    1    4    4    0    0 -0.34424943578E+02  0.23663341691E+02  0.42563047744E+02  0.59637601508E+02  0.00000000000E+00 0.  1.
         11    1    4    4    0    0  0.34297795484E+02 -0.44016455261E+02  0.32630135592E+02  0.64641417509E+02  0.00000000000E+00 0. -1.
         21    1    1    2  503  501  0.40868665109E+02 -0.66419411771E+02  0.64443848833E+02  0.10116716711E+03  0.00000000000E+00 0. -1.
         -1    1    1    2    0  502  0.52434312762E+01  0.30414299872E+02 -0.31968754256E+02  0.44435621487E+02  0.00000000000E+00 0. -1.
<scales pt_clust_5="13000.00000" pt_clust_6="13000.00000" pt_clust_7="13000.00000" pt_clust_8="13000.00000" pt_clust_9="71.67334" pt_clust_10="30.86297"></scales>
<clustering>
<clus scale="   30.863">  2 10  1 -1</clus>
<clus scale="   71.673">  2  9  1 -1</clus>
<clus scale="   96.242">  5  6 -1 -1</clus>
<clus scale="   96.835">  7  8 -1 -1</clus>
<clus scale="  106.732">  1  5  2 -1</clus>
<clus scale="   30.863">  2  5  1 -1</clus>
</clustering>
</event>
<event>
10    2  0.3984345E-006  0.1342532E+03  0.7546771E-02  0.1221373E+00
         21   -1    0    0  503  502  0.00000000000E+00  0.00000000000E+00  0.10740866082E+03  0.10740866082E+03  0.00000000000E+00 0.  1.
         -4   -1    0    0    0  501 -0.00000000000E+00 -0.00000000000E+00 -0.48619804677E+03  0.48619804677E+03  0.00000000000E+00 0.  1.
         23    2    1    2    0    0  0.12116179400E+02 -0.89520104370E+02 -0.23233885214E+03  0.26565550359E+03  0.91819679179E+02 0.  0.
         23    2    1    2    0    0 -0.36521034768E+01  0.73119868391E+02  0.50735405015E+01  0.11784824028E+03  0.92209619404E+02 0.  0.
        -11    1    4    4    0    0  0.21544621174E+02  0.82783532059E+02 -0.11298306920E+02  0.86284040360E+02  0.00000000000E+00 0. -1.
         11    1    4    4    0    0 -0.25196724651E+02 -0.96636636672E+01  0.16371847422E+02  0.31564199920E+02  0.00000000000E+00 0.  1.
        -11    1    3    3    0    0  0.49033285789E+02 -0.36745138355E+02 -0.14250318241E+03  0.15511810115E+03  0.00000000000E+00 0.  1.
         11    1    3    3    0    0 -0.36917106389E+02 -0.52774966015E+02 -0.89835669729E+02  0.11053740244E+03  0.00000000000E+00 0. -1.
         21    1    1    2  503  501 -0.11046512617E+02 -0.23268249445E+02 -0.16585731765E+03  0.16784542499E+03  0.00000000000E+00 0.  1.
         -4    1    1    2    0  502  0.25824366946E+01  0.39668485424E+02  0.14333243333E+02  0.42257538730E+02  0.00000000000E+00 0.  1.
<scales pt_clust_5="13000.00000" pt_clust_6="13000.00000" pt_clust_7="13000.00000" pt_clust_8="13000.00000" pt_clust_9="25.75727" pt_clust_10="38.70815"></scales>
<clustering>
<clus scale="   25.757">  2  9  1 -1</clus>
<clus scale="   38.708">  1 10  2 -1</clus>
<clus scale="   91.820">  7  8 -1 -1</clus>
<clus scale="   92.210">  5  6 -1 -1</clus>
<clus scale="  133.986">  2  7  1 -1</clus>
<clus scale="   38.708">  1  5  2 -1</clus>
</clustering>
</event>
<event>
10    2  0.3984345E-006  0.1060981E+03  0.7546771E-02  0.1268053E+00
          1   -1    0    0  503    0 -0.00000000000E+00  0.00000000000E+00  0.59797020266E+03  0.59797020266E+03  0.00000000000E+00 0. -1.
         21   -1    0    0  501  502  0.00000000000E+00 -0.00000000000E+00 -0.30678831271E+02  0.30678831271E+02  0.00000000000E+00 0.  1.
         23    2    1    2    0    0 -0.40549434082E+02  0.45627980884E+02  0.29264209611E+03  0.31254109143E+03  0.91194123589E+02 0.  0.
         23    2    1    2    0    0  0.17415069525E+02 -0.40273197725E+02  0.16679940278E+03  0.19518998786E+03  0.91388596056E+02 0.  0.
        -11    1    4    4    0    0  0.44745297309E+02 -0.47140672473E+02  0.75408311890E+02  0.99552991591E+02  0.00000000000E+00 0.  1.
         11    1    4    4    0    0 -0.27330227784E+02  0.68674747488E+01  0.91391090892E+02  0.95636996265E+02  0.00000000000E+00 0. -1.
        -13    1    3    3    0    0 -0.11583108797E+02 -0.26011298456E+02  0.46215229594E+02  0.54282626163E+02  0.00000000000E+00 0.  1.
         13    1    3    3    0    0 -0.28966325285E+02  0.71639279339E+02  0.24642686651E+03  0.25825846527E+03  0.00000000000E+00 0. -1.
         21    1    1    2  503  502  0.18801230980E+02  0.18829347662E+02  0.77072814858E+02  0.81536797888E+02  0.00000000000E+00 0. -1.
          1    1    1    2  501    0  0.43331335766E+01 -0.24184130821E+02  0.30777057642E+02  0.39381156754E+02  0.00000000000E+00 0. -1.
<scales pt_clust_5="13000.00000" pt_clust_6="13000.00000" pt_clust_7="13000.00000" pt_clust_8="13000.00000" pt_clust_9="25.47693" pt_clust_10="24.56925"></scales>
<clustering>
<clus scale="   24.569">  2 10  1 -1</clus>
<clus scale="   25.477">  1  9  2 -1</clus>
<clus scale="   91.194">  7  8 -1 -1</clus>
<clus scale="   91.389">  5  6 -1 -1</clus>
<clus scale="  105.931">  1  7  2 -1</clus>
<clus scale="   24.569">  2  5  1 -1</clus>
</clustering>
</event>
<event>
10    2  0.3984345E-006  0.1445323E+03  0.7546771E-02  0.1207620E+00
         21   -1    0    0  501  502  0.00000000000E+00  0.00000000000E+00  0.36741086234E+03  0.36741086234E+03  0.00000000000E+00 0. -1.
          1   -1    0    0  503    0 -0.00000000000E+00 -0.00000000000E+00 -0.22486588568E+03  0.22486588568E+03  0.00000000000E+00 0. -1.
         23    2    1    2    0    0  0.59593236419E+02  0.80675051170E+02 -0.10934505242E+03  0.17527438850E+03  0.93300337979E+02 0.  0.
         23    2    1    2    0    0 -0.69418015996E+02 -0.71228024740E+02  0.58785683631E+02  0.14771127457E+03  0.92035708185E+02 0.  0.
        -11    1    3    3    0    0  0.61972937989E+02  0.60545673027E+01 -0.47186568247E+02  0.78127300294E+02  0.00000000000E+00 0. -1.
         11    1    3    3    0    0 -0.23797015704E+01  0.74620483867E+02 -0.62158484175E+02  0.97147088207E+02  0.00000000000E+00 0.  1.
        -11    1    4    4    0    0 -0.15941947888E+02 -0.26457388457E+02  0.70519574966E+02  0.76987983217E+02  0.00000000000E+00 0.  1.
         11    1    4    4    0    0 -0.53476068108E+02 -0.44770636283E+02 -0.11733891335E+02  0.70723291350E+02  0.00000000000E+00 0. -1.
         21    1    1    2  503  502  0.48774819243E+02 -0.11196358055E+02 -0.19077733667E+02  0.53556524791E+02  0.00000000000E+00 0.  1.
          1    1    1    2  501    0 -0.38950039666E+02  0.17493316257E+01  0.21218207912E+03  0.21573456017E+03  0.00000000000E+00 0. -1.
<scales pt_clust_5="13000.00000" pt_clust_6="13000.00000" pt_clust_7="13000.00000" pt_clust_8="13000.00000" pt_clust_9="45.74135" pt_clust_10="38.98930"></scales>
<clustering>
<clus scale="   38.989">  1 10  2 -1</clus>
<clus scale="   45.741">  2  9  1 -1</clus>
<clus scale="   92.036">  7  8 -1 -1</clus>
<clus scale="   93.300">  5  6 -1 -1</clus>
<clus scale="  143.719">  1  7  2 -1</clus>
<clus scale="   38.989">  1  5  2 -1</clus>
</clustering>
</event>
<event>
10    2  0.3984345E-006  0.1466113E+03  0.7546771E-02  0.1208929E+00
          3   -1    0    0  503    0 -0.00000000000E+00  0.00000000000E+00  0.96878323720E+03  0.96878323720E+03  0.00000000000E+00 0. -1.
         21   -1    0    0  501  502  0.00000000000E+00 -0.00000000000E+00 -0.65126763295E+02  0.65126763295E+02  0.00000000000E+00 0. -1.
         23    2    1    2    0    0 -0.13792970295E+03  0.10338836440E+02  0.62469006456E+03  0.64926160186E+03  0.11032432370E+03 0.  0.
         23    2    1    2    0    0  0.59855482826E+02  0.16344097934E+00  0.10309683902E+03  0.15104316402E+03  0.92748981914E+02 0.  0.
        -11    1    3    3    0    0 -0.86878082763E+02  0.56072613461E+02  0.44716281225E+03  0.45896243845E+03  0.00000000000E+00 0. -1.
         11    1    3    3    0    0 -0.51051620191E+02 -0.45733777021E+02  0.17752725231E+03  0.19029916341E+03  0.00000000000E+00 0.  1.
        -13    1    4    4    0    0  0.98539664476E+01  0.43235337007E+02  0.43602764012E+02  0.62189999600E+02  0.00000000000E+00 0. -1.
         13    1    4    4    0    0  0.50001516378E+02 -0.43071896027E+02  0.59494075005E+02  0.88853164424E+02  0.00000000000E+00 0.  1.
         21    1    1    2  503  502  0.37000398458E+02  0.22350753609E+02  0.17577139181E+03  0.18100875076E+03  0.00000000000E+00 0.  1.
          3    1    1    2  501    0  0.41073821670E+02 -0.32853031028E+02  0.98178522649E-01  0.52596483850E+02  0.00000000000E+00 0. -1.
<scales pt_clust_5="13000.00000" pt_clust_6="13000.00000" pt_clust_7="13000.00000" pt_clust_8="13000.00000" pt_clust_9="43.22714" pt_clust_10="53.11142"></scales>
<clustering>
<clus scale="   43.227">  1  9  2 -1</clus>
<clus scale="   53.111">  2 10  1 -1</clus>
<clus scale="   92.749">  7  8 -1 -1</clus>
<clus scale="  110.324">  5  6 -1 -1</clus>
<clus scale="  133.887">  2  7  1 -1</clus>
<clus scale="   53.111">  2  5  1 -1</clus>
</clustering>
</event>
<event>
10    2  0.3984345E-006  0.9329009E+02  0.7546771E-02  0.1295442E+00
         21   -1    0    0  501  502  0.00000000000E+00  0.00000000000E+00  0.42543482478E+03  0.42543482478E+03  0.00000000000E+00 0. -1.
          3   -1    0    0  503    0 -0.00000000000E+00 -0.00000000000E+00 -0.15440429045E+03  0.15440429045E+03  0.00000000000E+00 0. -1.
         23    2    1    2    0    0  0.78863698787E+01  0.12628323136E+02 -0.61500408887E+02  0.10905450474E+03  0.88819566178E+02 0.  0.
         23    2    1    2    0    0 -0.19052350095E+02 -0.60083528702E+02  0.10323838571E+03  0.14967262811E+03  0.88151624235E+02 0.  0.
        -11    1    4    4    0    0 -0.20085104652E+02 -0.81416551614E+02  0.65883124707E+02  0.10664263888E+03  0.00000000000E+00 0. -1.
         11    1    4    4    0    0  0.10327545573E+01  0.21333022912E+02  0.37355261001E+02  0.43029989228E+02  0.00000000000E+00 0.  1.
        -13    1    3    3    0    0 -0.84687492182E+01  0.39545138683E+02 -0.65832108026E+02  0.77261919170E+02  0.00000000000E+00 0. -1.
         13    1    3    3    0    0  0.16355119097E+02 -0.26916815547E+02  0.43316991382E+01  0.31792585571E+02  0.00000000000E+00 0.  1.
         21    1    1    2  503  502 -0.20142039978E+02  0.12080828041E+02 -0.40714667991E+02  0.47003535721E+02  0.00000000000E+00 0. -1.
          3    1    1    2  501    0  0.31308020194E+02  0.35374377525E+02  0.27000722549E+03  0.27410844666E+03  0.00000000000E+00 0. -1.
<scales pt_clust_5="13000.00000" pt_clust_6="13000.00000" pt_clust_7="13000.00000" pt_clust_8="13000.00000" pt_clust_9="23.48719" pt_clust_10="47.16130"></scales>
<clustering>
<clus scale="   23.487">  2  9  1 -1</clus>
<clus scale="   47.161">  1 10  2 -1</clus>
<clus scale="   88.152">  5  6 -1 -1</clus>
<clus scale="   88.820">  7  8 -1 -1</clus>
<clus scale="   92.654">  1  5  2 -1</clus>
<clus scale="   47.161">  1  5  2 -1</clus>
</clustering>
</event>
<event>
10    2  0.3984345E-006  0.1022142E+03  0.7546771E-02  0.1276776E+00
         21   -1    0    0  503  502  0.00000000000E+00  0.00000000000E+00  0.68225315992E+03  0.68225315992E+03  0.00000000000E+00 0. -1.
         -2   -1    0    0    0  501 -0.00000000000E+00 -0.00000000000E+00 -0.59281859117E+02  0.59281859117E+02  0.00000000000E+00 0.  1.
         23    2    1    2    0    0 -0.44731577029E+02 -0.18636567749E+02  0.25994602641E+03  0.28004316883E+03  0.92217157414E+02 0.  0.
         23    2    1    2    0    0  0.46000680404E+02 -0.15867052362E+02  0.29643515210E+03  0.31357079264E+03  0.89916720610E+02 0.  0.
        -13    1    3    3    0    0  0.14833675040E+02 -0.32210468754E+02  0.49383354360E+02  0.60796939893E+02  0.00000000000E+00 0. -1.
         13    1    3    3    0    0 -0.59565252069E+02  0.13573901005E+02  0.21056267205E+03  0.21924622894E+03  0.00000000000E+00 0.  1.
        -13    1    4    4    0    0  0.65178313945E+02 -0.35079280158E+02  0.19530582059E+03  0.20886151407E+03  0.00000000000E+00 0. -1.
         13    1    4    4    0    0 -0.19177633541E+02  0.19212227795E+02  0.10112933152E+03  0.10470927857E+03  0.00000000000E+00 0.  1.
         21    1    1    2  503  501  0.13467340023E+02  0.19715170066E+02 -0.36016718807E+02  0.43211817962E+02  0.00000000000E+00 0.  1.
         -2    1    1    2    0  502 -0.14736443398E+02  0.14788450045E+02  0.10260684110E+03  0.10470923961E+03  0.00000000000E+00 0.  1.
<scales pt_clust_5="13000.00000" pt_clust_6="13000.00000" pt_clust_7="13000.00000" pt_clust_8="13000.00000" pt_clust_9="23.90045" pt_clust_10="20.87728"></scales>
<clustering>
<clus scale="   20.877">  1 10  2 -1</clus>
<clus scale="   23.900">  2  9  1 -1</clus>
<clus scale="   89.917">  7  8 -1 -1</clus>
<clus scale="   92.217">  5  6 -1 -1</clus>
<clus scale="  100.144">  1  7  2 -1</clus>
<clus scale="   20.877">  1  5  2 -1</clus>
</clustering>
</event>
<event>
10    2  0.3984345E-006  0.1687477E+03  0.7546771E-02  0.1197373E+00
         21   -1    0    0  501  502  0.00000000000E+00  0.00000000000E+00  0.19625759398E+03  0.19625759398E+03  0.00000000000E+00 0. -1.
          3   -1    0    0  503    0 -0.00000000000E+00 -0.00000000000E+00 -0.61554178576E+03  0.61554178576E+03  0.00000000000E+00 0. -1.
         23    2    1    2    0    0  0.39361230772E+02  0.69688752837E+02 -0.84140476129E+02  0.14555298431E+03  0.87750913149E+02 0.  0.
         23    2    1    2    0    0  0.50399170450E+02  0.95242835063E+02 -0.33345080150E+03  0.36086286508E+03  0.86146946304E+02 0.  0.
        -11    1    3    3    0    0  0.18748259409E+02 -0.14715504324E+02  0.10697363276E+01  0.23857653577E+02  0.00000000000E+00 0.  1.
         11    1    3    3    0    0  0.20612971363E+02  0.84404257161E+02 -0.85210212457E+02  0.12169533073E+03  0.00000000000E+00 0. -1.
        -13    1    4    4    0    0  0.46944690136E+02  0.92108232595E+01 -0.80301888920E+02  0.93472116490E+02  0.00000000000E+00 0.  1.
         13    1    4    4    0    0  0.34544803146E+01  0.86032011804E+02 -0.25314891258E+03  0.26739074859E+03  0.00000000000E+00 0. -1.
         21    1    1    2  503  502 -0.46693904714E+02 -0.21853816883E+02 -0.10956925760E+03  0.12109224691E+03  0.00000000000E+00 0. -1.
          3    1    1    2  501    0 -0.43066496508E+02 -0.14307777102E+03  0.10787634345E+03  0.18429128345E+03  0.00000000000E+00 0. -1.
<scales pt_clust_5="13000.00000" pt_clust_6="13000.00000" pt_clust_7="13000.00000" pt_clust_8="13000.00000" pt_clust_9="51.55492" pt_clust_10="145.10160"></scales>
<clustering>
<clus scale="   51.555">  2  9  1 -1</clus>
<clus scale="   86.147">  7  8 -1 -1</clus>
<clus scale="   87.751">  5  6 -1 -1</clus>
<clus scale="  112.707">  2  5  1 -1</clus>
<clus scale="  145.102">  1 10  2 -1</clus>
<clus scale="  145.102">  1  5  2 -1</clus>
</clustering>
</event>
<event>
10    2  0.3984345E-006  0.2388972E+03  0.7546771E-02  0.1120920E+00
          2   -1    0    0  503    0 -0.00000000000E+00  0.00000000000E+00  0.17928323540E+04  0.17928323540E+04  0.00000000000E+00 0. -1.
         21   -1    0    0  501  502  0.00000000000E+00 -0.00000000000E+00 -0.61392951362E+02  0.61392951362E+02  0.00000000000E+00 0. -1.
         23    2    1    2    0    0  0.88940428496E+02 -0.17917778501E+03  0.84213330587E+03  0.87024555926E+03  0.90131848380E+02 0.  0.
         23    2    1    2    0    0 -0.13154773243E+03  0.23600094809E+03  0.49513709415E+03  0.57217841886E+03  0.96052837526E+02 0.  0.
        -11    1    4    4    0    0 -0.39424757199E+02  0.15801704859E+03  0.24144769207E+03  0.29123991336E+03  0.00000000000E+00 0. -1.
         11    1    4    4    0    0 -0.92122975227E+02  0.77983899501E+02  0.25368940208E+03  0.28093850550E+03  0.00000000000E+00 0.  1.
        -13    1    3    3    0    0  0.31362320717E+02 -0.11804800751E+02  0.64078639580E+02  0.72311966728E+02  0.00000000000E+00 0. -1.
         13    1    3    3    0    0  0.57578107779E+02 -0.16737298426E+03  0.77805466629E+03  0.79793359253E+03  0.00000000000E+00 0.  1.
         21    1    1    2  503  502 -0.13941897067E+01  0.23385905141E+02  0.43643626444E+02  0.49533932343E+02  0.00000000000E+00 0. -1.
          2    1    1    2  501    0  0.44001493637E+02 -0.80209068223E+02  0.35052537621E+03  0.36226739494E+03  0.00000000000E+00 0. -1.
<scales pt_clust_5="13000.00000" pt_clust_6="13000.00000" pt_clust_7="13000.00000" pt_clust_8="13000.00000" pt_clust_9="23.42743" pt_clust_10="89.36449"></scales>
<clustering>
<clus scale="   23.427">  2  9  1 -1</clus>
<clus scale="   89.364">  2 10  1 -1</clus>
<clus scale="   90.132">  7  8 -1 -1</clus>
<clus scale="   96.053">  5  6 -1 -1</clus>
<clus scale="  236.579">  1  7  2 -1</clus>
<clus scale="   23.427">  2  5  1 -1</clus>
</clustering>
</event>
<event>
10    2  0.3984345E-006  0.1453650E+03  0.7546771E-02  0.1206669E+00
          1   -1    0    0  503    0 -0.00000000000E+00  0.00000000000E+00  0.35523733060E+03  0.35523733060E+03  0.00000000000E+00 0. -1.
         21   -1    0    0  501  502  0.00000000000E+00 -0.00000000000E+00 -0.14056177013E+03  0.14056177013E+03  0.00000000000E+00 0.  1.
         23    2    1    2    0    0 -0.93345375214E+02 -0.62551311483E+02  0.70110567692E+02  0.16072217477E+03  0.91049986919E+02 0.  0.
         23    2    1    2    0    0  0.12842240419E+03 -0.59323262487E+01  0.25460126644E+02  0.16065435116E+03  0.92919836979E+02 0.  0.
        -11    1    3    3    0    0 -0.99789484547E+02 -0.22021072586E+02  0.59822895560E+02  0.11841303854E+03  0.00000000000E+00 0.  1.
         11    1    3    3    0    0  0.64441093334E+01 -0.40530238897E+02  0.10287672132E+02  0.42309136224E+02  0.00000000000E+00 0. -1.
        -13    1    4    4    0    0  0.44254423832E+02 -0.39107770307E+02 -0.15925167850E+02  0.61167660558E+02  0.00000000000E+00 0.  1.
         13    1    4    4    0    0  0.84167980363E+02  0.33175444058E+02  0.41385294494E+02  0.99486690603E+02  0.00000000000E+00 0. -1.
         21    1    1    2  503  502  0.10504034396E+01  0.20958625783E+02  0.11240844271E+03  0.11435044964E+03  0.00000000000E+00 0. -1.
          1    1    1    2  501    0 -0.36127432420E+02  0.47525011948E+02  0.66964234317E+01  0.60072125156E+02  0.00000000000E+00 0. -1.
<scales pt_clust_5="13000.00000" pt_clust_6="13000.00000" pt_clust_7="13000.00000" pt_clust_8="13000.00000" pt_clust_9="20.98493" pt_clust_10="61.94118"></scales>
<clustering>
<clus scale="   20.985">  1  9  2 -1</clus>
<clus scale="   61.941">  2 10  1 -1</clus>
<clus scale="   91.050">  5  6 -1 -1</clus>
<clus scale="   92.920">  7  8 -1 -1</clus>
<clus scale="  144.177">  1  5  2 -1</clus>
<clus scale="   61.941">  2  5  1 -1</clus>
</clustering>
</event>
<event>
10    2  0.3984345E-006  0.1347177E+03  0.7546771E-02  0.1222770E+00
          2   -1    0    0  503    0 -0.00000000000E+00  0.00000000000E+00  0.10733954001E+03  0.10733954001E+03  0.00000000000E+00 0. -1.
         21   -1    0    0  501  502  0.00000000000E+00 -0.00000000000E+00 -0.58546041128E+03  0.58546041128E+03  0.00000000000E+00 0. -1.
         23    2    1    2    0    0 -0.79176525550E+02  0.30654061511E+02 -0.79755508109E+02  0.14270100181E+03  0.82425973806E+02 0.  0.
         23    2    1    2    0    0  0.87762506209E+02 -0.11535040572E+03 -0.21021406243E+03  0.27121146918E+03  0.91420650703E+02 0.  0.
        -11    1    3    3    0    0 -0.43410321137E+02  0.55563440776E+02 -0.67051231177E+02  0.97301693378E+02  0.00000000000E+00 0. -1.
         11    1    3    3    0    0 -0.35766204413E+02 -0.24909379264E+02 -0.12704276932E+02  0.45399308429E+02  0.00000000000E+00 0.  1.
        -13    1    4    4    0    0  0.18766493802E+02  0.85544757943E+01 -0.41128177193E+01  0.21030349862E+02  0.00000000000E+00 0.  1.
         13    1    4    4    0    0  0.68996012407E+02 -0.12390488151E+03 -0.20610124471E+03  0.25018111932E+03  0.00000000000E+00 0. -1.
         21    1    1    2  503  502 -0.76925073528E+01 -0.19902557601E+02  0.30081520475E+02  0.36880677089E+02  0.00000000000E+00 0.  1.
          2    1    1    2  501    0 -0.89347330669E+00  0.10459890181E+03 -0.21823282120E+03  0.24200680322E+03  0.00000000000E+00 0. -1.
<scales pt_clust_5="13000.00000" pt_clust_6="13000.00000" pt_clust_7="13000.00000" pt_clust_8="13000.00000" pt_clust_9="21.33744" pt_clust_10="101.41813"></scales>
<clustering>
<clus scale="   21.337">  1  9  2 -1</clus>
<clus scale="   82.426">  5  6 -1 -1</clus>
<clus scale="   91.421">  7  8 -1 -1</clus>
<clus scale="  101.418">  2 10  1 -1</clus>
<clus scale="  128.783">  1  5  2 -1</clus>
<clus scale="  101.418">  2  5  1 -1</clus>
</clustering>
</event>
<event>
10    2  0.3984345E-006  0.1787138E+03  0.7546771E-02  0.1169262E+00
          1   -1    0    0  503    0 -0.00000000000E+00  0.00000000000E+00  0.18700029814E+03  0.18700029814E+03  0.00000000000E+00 0. -1.
         21   -1    0    0  501  502  0.00000000000E+00 -0.00000000000E+00 -0.66203275533E+03  0.66203275533E+03  0.00000000000E+00 0. -1.
         23    2    1    2    0    0  0.11121800222E+03  0.22815098844E+03 -0.90006917298E+02  0.28425179146E+03  0.90969875464E+02 0.  0.
         23    2    1    2    0    0 -0.12628051885E+03 -0.64255518596E+02 -0.22916853518E+03  0.28384056645E+03  0.89284424946E+02 0.  0.
        -11    1    3    3    0    0  0.40174033722E+02  0.65620433519E+02  0.14614513416E+02  0.78317164678E+02  0.00000000000E+00 0.  1.
         11    1    3    3    0    0  0.71043968501E+02  0.16253055492E+03 -0.10462143071E+03  0.20593462678E+03  0.00000000000E+00 0. -1.
        -13    1    4    4    0    0 -0.61564563102E+02 -0.60970737130E+02 -0.68033639736E+02  0.11016443324E+03  0.00000000000E+00 0.  1.
         13    1    4    4    0    0 -0.64715955749E+02 -0.32847814655E+01 -0.16113489544E+03  0.17367613321E+03  0.00000000000E+00 0. -1.
         21    1    1    2  503  502 -0.30482310639E+02 -0.13864716593E+03 -0.30500547992E+02  0.14519811056E+03  0.00000000000E+00 0.  1.
          1    1    1    2  501    0  0.45544827266E+02 -0.25248303914E+02 -0.12535645672E+03  0.13574258501E+03  0.00000000000E+00 0. -1.
<scales pt_clust_5="13000.00000" pt_clust_6="13000.00000" pt_clust_7="13000.00000" pt_clust_8="13000.00000" pt_clust_9="144.65332" pt_clust_10="52.07502"></scales>
<clustering>
<clus scale="   52.075">  2 10  1 -1</clus>
<clus scale="   89.284">  7  8 -1 -1</clus>
<clus scale="   90.970">  5  6 -1 -1</clus>
<clus scale="  144.653">  1  9  2 -1</clus>
<clus scale="  177.862">  2  7  1 -1</clus>
<clus scale="   52.075">  2  5  1 -1</clus>
</clustering>
</event>
<event>
10    2  0.3984345E-006  0.9525739E+02  0.7546771E-02  0.1292345E+00
          1   -1    0    0  503    0 -0.00000000000E+00  0.00000000000E+00  0.42387388054E+03  0.42387388054E+03  0.00000000000E+00 0. -1.
         21   -1    0    0  501  502  0.00000000000E+00 -0.00000000000E+00 -0.11666204985E+03  0.11666204985E+03  0.00000000000E+00 0. -1.
         23    2    1    2    0    0 -0.25425254782E+02 -0.37936790591E+02  0.18794763102E+03  0.21259524305E+03  0.88242743053E+02 0.  0.
         23    2    1    2    0    0  0.82015449486E+01 -0.38878408137E+02 -0.23960531771E+02  0.10253521062E+03  0.91436132762E+02 0.  0.
        -13    1    3    3    0    0  0.12119070254E+02 -0.51490996252E+02  0.67823848425E+02  0.86013190698E+02  0.00000000000E+00 0.  1.
         13    1    3    3    0    0 -0.37544325037E+02  0.13554205661E+02  0.12012378259E+03  0.12658205235E+03  0.00000000000E+00 0. -1.
        -13    1    4    4    0    0 -0.33336963223E+02  0.89074113862E+01  0.88755475085E+00  0.34517862738E+02  0.00000000000E+00 0. -1.
         13    1    4    4    0    0  0.41538508172E+02 -0.47785819523E+02 -0.24848086521E+02  0.68017347878E+02  0.00000000000E+00 0.  1.
         21    1    1    2  503  502 -0.49538185039E+01  0.27699691199E+02  0.16492629096E+03  0.16730957731E+03  0.00000000000E+00 0. -1.
          1    1    1    2  501    0  0.22177528338E+02  0.49115507528E+02 -0.21701559521E+02  0.58095899413E+02  0.00000000000E+00 0. -1.
<scales pt_clust_5="13000.00000" pt_clust_6="13000.00000" pt_clust_7="13000.00000" pt_clust_8="13000.00000" pt_clust_9="28.13918" pt_clust_10="55.54013"></scales>
<clustering>
<clus scale="   28.139">  1  9  2 -1</clus>
<clus scale="   55.540">  2 10  1 -1</clus>
<clus scale="   88.243">  5  6 -1 -1</clus>
<clus scale="   91.436">  7  8 -1 -1</clus>
<clus scale="   92.196">  1  5  2 -1</clus>
<clus scale="   55.540">  2  5  1 -1</clus>
</clustering>
</event>
<event>
10    2  0.3984345E-006  0.1230716E+03  0.7546771E-02  0.1239952E+00
          2   -1    0    0  503    0 -0.00000000000E+00  0.00000000000E+00  0.63375001894E+03  0.63375001894E+03  0.00000000000E+00 0. -1.
         21   -1    0    0  501  502  0.00000000000E+00 -0.00000000000E+00 -0.59567530199E+02  0.59567530199E+02  0.00000000000E+00 0.  1.
         23    2    1    2    0    0  0.86660721600E+02 -0.30351767342E+02  0.29268001479E+03  0.32119028468E+03  0.95238109329E+02 0.  0.
         23    2    1    2    0    0 -0.39253066430E+02  0.45684207137E+02  0.95167795768E+02  0.14374947506E+03  0.89326100460E+02 0.  0.
        -11    1    3    3    0    0 -0.66385700281E+01 -0.36421859830E+02  0.10841852120E+03  0.11456525749E+03  0.00000000000E+00 0. -1.
         11    1    3    3    0    0  0.93299291628E+02  0.60700924874E+01  0.18426149359E+03  0.20662502719E+03  0.00000000000E+00 0.  1.
        -11    1    4    4    0    0  0.21170966496E-01  0.48859343728E+02  0.99484841401E+01  0.49861891805E+02  0.00000000000E+00 0.  1.
         11    1    4    4    0    0 -0.39274237397E+02 -0.31751365906E+01  0.85219311628E+02  0.93887583257E+02  0.00000000000E+00 0. -1.
         21    1    1    2  503  502  0.18551966752E+02  0.41163958798E+02  0.66606970225E+02  0.80468226380E+02  0.00000000000E+00 0. -1.
          2    1    1    2  501    0 -0.65959621922E+02 -0.56496398594E+02  0.11972770796E+03  0.14790956302E+03  0.00000000000E+00 0. -1.
<scales pt_clust_5="13000.00000" pt_clust_6="13000.00000" pt_clust_7="13000.00000" pt_clust_8="13000.00000" pt_clust_9="45.15138" pt_clust_10="76.08097"></scales>
<clustering>
<clus scale="   45.151">  2  9  1 -1</clus>
<clus scale="   76.081">  2 10  1 -1</clus>
<clus scale="   89.326">  7  8 -1 -1</clus>
<clus scale="   95.238">  5  6 -1 -1</clus>
<clus scale="  118.556">  2  7  1 -1</clus>
<clus scale="   45.151">  2  5  1 -1</clus>
</clustering>
</event>
<event>
10    2  0.3984345E-006  0.1991945E+03  0.7546771E-02  0.1150578E+00
         21   -1    0    0  503  502  0.00000000000E+00  0.00000000000E+00  0.66342162691E+02  0.66342162691E+02  0.00000000000E+00 0. -1.
         -2   -1    0    0    0  501 -0.00000000000E+00 -0.00000000000E+00 -0.14843943970E+04  0.14843943970E+04  0.00000000000E+00 0. -1.
         23    2    1    2    0    0 -0.14465050062E+03 -0.34461060945E+02 -0.66868717339E+03  0.69103585365E+03  0.90976277784E+02 0.  0.
         23    2    1    2    0    0  0.22632148462E+03  0.11642017787E+03 -0.43587788314E+03  0.51316293334E+03  0.92582908419E+02 0.  0.
        -11    1    4    4    0    0  0.72861197394E+02  0.86657392744E+02 -0.15874012834E+03  0.19497868127E+03  0.00000000000E+00 0.  1.
         11    1    4    4    0    0  0.15346028723E+03  0.29762785121E+02 -0.27713775480E+03  0.31818425208E+03  0.00000000000E+00 0. -1.
        -11    1    3    3    0    0 -0.41920353543E+02 -0.55290811454E+02 -0.25413040679E+03  0.26343244586E+03  0.00000000000E+00 0.  1.
         11    1    3    3    0    0 -0.10273014707E+03  0.20829750509E+02 -0.41455676660E+03  0.42760340779E+03  0.00000000000E+00 0. -1.
         21    1    1    2  503  501 -0.15029095399E+02  0.15779499421E+02 -0.10116066411E+03  0.10348113970E+03  0.00000000000E+00 0.  1.
         -2    1    1    2    0  502 -0.66641888604E+02 -0.97738616341E+02 -0.21232651370E+03  0.24305663304E+03  0.00000000000E+00 0. -1.
<scales pt_clust_5="13000.00000" pt_clust_6="13000.00000" pt_clust_7="13000.00000" pt_clust_8="13000.00000" pt_clust_9="21.79143" pt_clust_10="117.59554"></scales>
<clustering>
<clus scale="   21.791">  2  9  1 -1</clus>
<clus scale="   90.976">  7  8 -1 -1</clus>
<clus scale="   92.583">  5  6 -1 -1</clus>
<clus scale="  117.596">  1 10  2 -1</clus>
<clus scale="  198.453">  2  7  1 -1</clus>
<clus scale="  117.596">  1  5  2 -1</clus>
</clustering>
</event>
<event>
10    2  0.3984345E-006  0.1011402E+03  0.7546771E-02  0.1278025E+00
         -1   -1    0    0    0  501 -0.00000000000E+00  0.00000000000E+00  0.31146405074E+03  0.31146405074E+03  0.00000000000E+00 0.  1.
         21   -1    0    0  503  502  0.00000000000E+00 -0.00000000000E+00 -0.32646302743E+03  0.32646302743E+03  0.00000000000E+00 0. -1.
         23    2    1    2    0    0  0.83961025148E+02  0.11675538946E+02 -0.16562958158E+02  0.12638392541E+03  0.92264798630E+02 0.  0.
         23    2    1    2    0    0 -0.51359777133E+02  0.31183763541E+01 -0.16222122643E+03  0.19347771618E+03  0.92034501013E+02 0.  0.
        -11    1    4    4    0    0 -0.33661572005E+02  0.17797328544E+02 -0.16588082637E+03  0.17019487327E+03  0.00000000000E+00 0. -1.
         11    1    4    4    0    0 -0.17698205128E+02 -0.14678952190E+02  0.36595999370E+01  0.23282842907E+02  0.00000000000E+00 0.  1.
        -11    1    3    3    0    0  0.94459453261E+02 -0.15478977749E+02 -0.17256299629E+02  0.97262361371E+02  0.00000000000E+00 0.  1.
         11    1    3    3    0    0 -0.10498428114E+02  0.27154516696E+02  0.69334147153E+00  0.29121564042E+02  0.00000000000E+00 0. -1.
         21    1    1    2  503  501 -0.77723123895E+02  0.11775395576E+02  0.22451429531E+03  0.23787856719E+03  0.00000000000E+00 0.  1.
         -1    1    1    2    0  502  0.45121875880E+02 -0.26569310876E+02 -0.60729087420E+02  0.80186869387E+02  0.00000000000E+00 0.  1.
<scales pt_clust_5="13000.00000" pt_clust_6="13000.00000" pt_clust_7="13000.00000" pt_clust_8="13000.00000" pt_clust_9="77.34341" pt_clust_10="52.36327"></scales>
<clustering>
<clus scale="   52.363">  2 10  1 -1</clus>
<clus scale="   77.343">  1  9  2 -1</clus>
<clus scale="   92.035">  5  6 -1 -1</clus>
<clus scale="   92.265">  7  8 -1 -1</clus>
<clus scale="  100.930">  2  5  1 -1</clus>
<clus scale="   52.363">  2  5  1 -1</clus>
</clustering>
</event>
<event>
10    2  0.3984345E-006  0.1050387E+03  0.7546771E-02  0.1271304E+00
          3   -1    0    0  503    0 -0.00000000000E+00  0.00000000000E+00  0.17508262452E+03  0.17508262452E+03  0.00000000000E+00 0. -1.
         21   -1    0    0  501  502  0.00000000000E+00 -0.00000000000E+00 -0.17626581848E+03  0.17626581848E+03  0.00000000000E+00 0.  1.
         23    2    1    2    0    0  0.10242973976E+02 -0.48724918044E+02  0.67804232389E+02  0.12536989520E+03  0.92957842806E+02 0.  0.
         23    2    1    2    0    0 -0.96066327137E+01  0.44869874710E+02 -0.11990789623E+03  0.15684400881E+03  0.90091877951E+02 0.  0.
        -13    1    3    3    0    0  0.46307510215E+02 -0.50802576938E+02  0.38047124749E+02  0.78567620732E+02  0.00000000000E+00 0. -1.
         13    1    3    3    0    0 -0.36064536239E+02  0.20776588934E+01  0.29757107640E+02  0.46802274471E+02  0.00000000000E+00 0.  1.
        -13    1    4    4    0    0  0.24845918291E+02 -0.16668518537E+02 -0.27843979858E+02  0.40871094679E+02  0.00000000000E+00 0. -1.
         13    1    4    4    0    0 -0.34452551005E+02  0.61538393247E+02 -0.92063916373E+02  0.11597291413E+03  0.00000000000E+00 0.  1.
         21    1    1    2  503  502  0.19811881431E+02  0.71263008511E+01  0.41179163490E+02  0.46249522326E+02  0.00000000000E+00 0.  1.
          3    1    1    2  501    0 -0.20448222693E+02 -0.32712575166E+01  0.97413063949E+01  0.22885016656E+02  0.00000000000E+00 0. -1.
<scales pt_clust_5="13000.00000" pt_clust_6="13000.00000" pt_clust_7="13000.00000" pt_clust_8="13000.00000" pt_clust_9="20.75065" pt_clust_10="20.70824"></scales>
<clustering>
<clus scale="   20.708">  2 10  1 -1</clus>
<clus scale="   20.751">  1  9  2 -1</clus>
<clus scale="   90.092">  7  8 -1 -1</clus>
<clus scale="   92.958">  5  6 -1 -1</clus>
<clus scale="  102.511">  2  7  1 -1</clus>
<clus scale="   20.708">  2  5  1 -1</clus>
</clustering>
</event>
<event>
10    2  0.3984345E-006  0.3438070E+03  0.7546771E-02  0.1065348E+00
         21   -1    0    0  503  502  0.00000000000E+00  0.00000000000E+00  0.11472099754E+04  0.11472099754E+04  0.00000000000E+00 0.  1.
         -1   -1    0    0    0  501 -0.00000000000E+00 -0.00000000000E+00 -0.22645122195E+03  0.22645122195E+03  0.00000000000E+00 0.  1.
         23    2    1    2    0    0 -0.28884075048E+03 -0.11576946934E+03  0.18671227336E+03  0.37293500117E+03  0.85950525911E+02 0.  0.
         23    2    1    2    0    0  0.26587104990E+03  0.24888516657E+03  0.17267234861E+03  0.41338956141E+03  0.91890958178E+02 0.  0.
        -11    1    3    3    0    0 -0.20056639660E+03 -0.36435556437E+02  0.12565228660E+03  0.23946383098E+03  0.00000000000E+00 0.  1.
         11    1    3    3    0    0 -0.88274353887E+02 -0.79333912906E+02  0.61059986757E+02  0.13347117020E+03  0.00000000000E+00 0. -1.
        -13    1    4    4    0    0  0.65894077342E+02  0.49731035924E+02  0.83471629567E+02  0.11739982242E+03  0.00000000000E+00 0. -1.
         13    1    4    4    0    0  0.19997697256E+03  0.19915413065E+03  0.89200719045E+02  0.29598973899E+03  0.00000000000E+00 0.  1.
         21    1    1    2  503  501  0.17451586485E+02 -0.33189468997E+02  0.34214836791E+02  0.50761735390E+02  0.00000000000E+00 0.  1.
         -1    1    1    2    0  502  0.55181140998E+01 -0.99926228234E+02  0.52715929472E+03  0.53657489941E+03  0.00000000000E+00 0.  1.
<scales pt_clust_5="13000.00000" pt_clust_6="13000.00000" pt_clust_7="13000.00000" pt_clust_8="13000.00000" pt_clust_9="37.49798" pt_clust_10="116.73817"></scales>
<clustering>
<clus scale="   37.498">  1  9  2 -1</clus>
<clus scale="   85.951">  5  6 -1 -1</clus>
<clus scale="   91.891">  7  8 -1 -1</clus>
<clus scale="  116.738">  1 10  2 -1</clus>
<clus scale="  342.267">  2  5  1 -1</clus>
<clus scale="   37.498">  1  5  2 -1</clus>
</clustering>
</event>
<event>
10    2  0.3984345E-006  0.9975887E+02  0.7546771E-02  0.1280834E+00
         21   -1    0    0  501  502  0.00000000000E+00  0.00000000000E+00  0.20276674925E+02  0.20276674925E+02  0.00000000000E+00 0.  1.
          1   -1    0    0  503    0 -0.00000000000E+00 -0.00000000000E+00 -0.82930488733E+03  0.82930488733E+03  0.00000000000E+00 0. -1.
         23    2    1    2    0    0  0.39434223629E+02  0.45935812553E+02 -0.35578983912E+03  0.37233035892E+03  0.91533216269E+02 0.  0.
         23    2    1    2    0    0 -0.24580053909E+02 -0.34273781260E+01 -0.30154753075E+03  0.31612724200E+03  0.91594726163E+02 0.  0.
        -11    1    4    4    0    0  0.15787435716E+02 -0.34466013352E+02 -0.18650723228E+03  0.19032103640E+03  0.00000000000E+00 0.  1.
         11    1    4    4    0    0 -0.40367489626E+02  0.31038635226E+02 -0.11504029847E+03  0.12580620560E+03  0.00000000000E+00 0. -1.
        -13    1    3    3    0    0  0.59462901011E+02  0.11406990037E+02 -0.13492705684E+03  0.14788937313E+03  0.00000000000E+00 0.  1.
         13    1    3    3    0    0 -0.20028677382E+02  0.34528822516E+02 -0.22086278228E+03  0.22444098578E+03  0.00000000000E+00 0. -1.
         21    1    1    2  503  502 -0.17371057958E+02 -0.22029466913E+02 -0.12052525227E+03  0.12374727271E+03  0.00000000000E+00 0. -1.
          1    1    1    2  501    0  0.25168882386E+01 -0.20478967514E+02 -0.31165590255E+02  0.37376688628E+02  0.00000000000E+00 0. -1.
<scales pt_clust_5="13000.00000" pt_clust_6="13000.00000" pt_clust_7="13000.00000" pt_clust_8="13000.00000" pt_clust_9="29.44906" pt_clust_10="20.63305"></scales>
<clustering>
<clus scale="   20.633">  1 10  2 -1</clus>
<clus scale="   29.449">  2  9  1 -1</clus>
<clus scale="   91.533">  7  8 -1 -1</clus>
<clus scale="   91.595">  5  6 -1 -1</clus>
<clus scale="   99.702">  2  7  1 -1</clus>
<clus scale="   20.633">  1  5  2 -1</clus>
</clustering>
</event>
<event>
10    2  0.3984345E-006  0.2396177E+03  0.7546771E-02  0.1120149E+00
         21   -1    0    0  503  502  0.00000000000E+00  0.00000000000E+00  0.12543471014E+03  0.12543471014E+03  0.00000000000E+00 0. -1.
         -3   -1    0    0    0  501 -0.00000000000E+00 -0.00000000000E+00 -0.10294319000E+04  0.10294319000E+04  0.00000000000E+00 0.  1.
         23    2    1    2    0    0  0.22055950105E+03 -0.75842425295E+02 -0.64810574566E+03  0.69496629867E+03  0.92404176053E+02 0.  0.
         23    2    1    2    0    0 -0.20836822498E+03  0.11070329785E+03 -0.21476113121E+03  0.33172674072E+03  0.90817122257E+02 0.  0.
        -11    1    3    3    0    0  0.21439758443E+03 -0.44678207915E+02 -0.55922084594E+03  0.60057507525E+03  0.00000000000E+00 0.  1.
         11    1    3    3    0    0  0.61619166169E+01 -0.31164217380E+02 -0.88884899720E+02  0.94391223424E+02  0.00000000000E+00 0. -1.
        -11    1    4    4    0    0 -0.76184233292E+02  0.18951684394E+02 -0.12463341592E+03  0.14729797048E+03  0.00000000000E+00 0.  1.
         11    1    4    4    0    0 -0.13218399169E+03  0.91751613453E+02 -0.90127715297E+02  0.18442877025E+03  0.00000000000E+00 0. -1.
         21    1    1    2  503  501 -0.34870805676E+02 -0.10165899858E+02 -0.73238048230E+02  0.81750414781E+02  0.00000000000E+00 0. -1.
         -3    1    1    2    0  502  0.22679529610E+02 -0.24694972695E+02  0.32107735298E+02  0.46423155921E+02  0.00000000000E+00 0.  1.
<scales pt_clust_5="13000.00000" pt_clust_6="13000.00000" pt_clust_7="13000.00000" pt_clust_8="13000.00000" pt_clust_9="35.61932" pt_clust_10="33.52913"></scales>
<clustering>
<clus scale="   33.529">  1 10  2 -1</clus>
<clus scale="   35.619">  2  9  1 -1</clus>
<clus scale="   90.817">  7  8 -1 -1</clus>
<clus scale="   92.404">  5  6 -1 -1</clus>
<clus scale="  239.010">  1  7  2 -1</clus>
<clus scale="   33.529">  1  5  2 -1</clus>
</clustering>
</event>
<event>
10    2  0.3984345E-006  0.1181039E+03  0.7546771E-02  0.1247080E+00
          3   -1    0    0  502    0 -0.00000000000E+00  0.00000000000E+00  0.11249334861E+04  0.11249334861E+04  0.00000000000E+00 0. -1.
         21   -1    0    0  503  502  0.00000000000E+00 -0.00000000000E+00 -0.29050690333E+02  0.29050690333E+02  0.00000000000E+00 0. -1.
         23    2    1    2    0    0  0.46188448364E+02 -0.40028168851E+02  0.56728628547E+03  0.57755061115E+03  0.89528496562E+02 0.  0.
         23    2    1    2    0    0 -0.69804897371E+02  0.10042087426E+03  0.30302132287E+03  0.33948139359E+03  0.92025098734E+02 0.  0.
        -11    1    4    4    0    0 -0.38592423416E+02  0.10317875555E+03  0.16817527454E+03  0.20104266638E+03  0.00000000000E+00 0. -1.
         11    1    4    4    0    0 -0.31212473955E+02 -0.27578812893E+01  0.13484604833E+03  0.13843872721E+03  0.00000000000E+00 0.  1.
        -11    1    3    3    0    0  0.40459587924E+02  0.21984786099E+02  0.25204257050E+03  0.25621429785E+03  0.00000000000E+00 0.  1.
         11    1    3    3    0    0  0.57288604398E+01 -0.62012954950E+02  0.31524371497E+03  0.32133631331E+03  0.00000000000E+00 0. -1.
         21    1    1    2  503  501 -0.32753898251E+01 -0.20609872914E+02  0.38274214591E+02  0.43593698427E+02  0.00000000000E+00 0. -1.
          3    1    1    2  501    0  0.26891838833E+02 -0.39782832491E+02  0.18730097283E+03  0.19335847326E+03  0.00000000000E+00 0. -1.
<scales pt_clust_5="13000.00000" pt_clust_6="13000.00000" pt_clust_7="13000.00000" pt_clust_8="13000.00000" pt_clust_9="20.86852" pt_clust_10="49.79520"></scales>
<clustering>
<clus scale="   20.869">  2  9  1 -1</clus>
<clus scale="   49.795">  2 10  1 -1</clus>
<clus scale="   89.528">  7  8 -1 -1</clus>
<clus scale="   92.025">  5  6 -1 -1</clus>
<clus scale="  116.169">  1  7  2 -1</clus>
<clus scale="   20.869">  2  5  1 -1</clus>
</clustering>
</event>
<event>
10    2  0.3984345E-006  0.1019337E+03  0.7546771E-02  0.1281683E+00
          2   -1    0    0  503    0 -0.00000000000E+00  0.00000000000E+00  0.21099001027E+03  0.21099001027E+03  0.00000000000E+00 0. -1.
         21   -1    0    0  501  502  0.00000000000E+00 -0.00000000000E+00 -0.11408757494E+03  0.11408757494E+03  0.00000000000E+00 0.  1.
         23    2    1    2    0    0 -0.36208362612E+02 -0.11212116481E+02  0.31718325597E+02  0.98766000070E+02  0.85509727587E+02 0.  0.
         23    2    1    2    0    0  0.23944159979E+02 -0.44839297532E+02  0.33581445137E+02  0.11383049724E+03  0.96154995937E+02 0.  0.
        -11    1    4    4    0    0  0.42557255144E+02 -0.23458661978E+02 -0.20522280887E+02  0.52750287203E+02  0.00000000000E+00 0.  1.
         11    1    4    4    0    0 -0.18613095164E+02 -0.21380635554E+02  0.54103726024E+02  0.61080210035E+02  0.00000000000E+00 0. -1.
        -13    1    3    3    0    0  0.17124304514E+01 -0.42441248012E+02  0.24719503840E+02  0.49145150533E+02  0.00000000000E+00 0.  1.
         13    1    3    3    0    0 -0.37920793064E+02  0.31229131531E+02  0.69988217575E+01  0.49620849536E+02  0.00000000000E+00 0. -1.
         21    1    1    2  503  502  0.13277764454E+02  0.28003846389E+02  0.63096020730E+02  0.70296673274E+02  0.00000000000E+00 0. -1.
          2    1    1    2  501    0 -0.10135618214E+01  0.28047567625E+02 -0.31493356128E+02  0.42184414627E+02  0.00000000000E+00 0. -1.
<scales pt_clust_5="13000.00000" pt_clust_6="13000.00000" pt_clust_7="13000.00000" pt_clust_8="13000.00000" pt_clust_9="32.15875" pt_clust_10="28.06588"></scales>
<clustering>
<clus scale="   28.066">  2 10  1 -1</clus>
<clus scale="   32.159">  1  9  2 -1</clus>
<clus scale="   85.510">  7  8 -1 -1</clus>
<clus scale="   91.960">  1  7  2 -1</clus>
<clus scale="   96.155">  5  6 -1 -1</clus>
<clus scale="   28.066">  2  5  1 -1</clus>
</clustering>
</event>
<event>
10    2  0.3984345E-006  0.1617886E+03  0.7546771E-02  0.1203612E+00
         21   -1    0    0  501  502  0.00000000000E+00  0.00000000000E+00  0.60601281693E+03  0.60601281693E+03  0.00000000000E+00 0. -1.
          2   -1    0    0  503    0 -0.00000000000E+00 -0.00000000000E+00 -0.28510975199E+03  0.28510975199E+03  0.00000000000E+00 0. -1.
         23    2    1    2    0    0  0.13083258051E+02 -0.25153108587E+02 -0.35362994881E+02  0.10246347003E+03  0.91893257477E+02 0.  0.
         23    2    1    2    0    0  0.10414817831E+03  0.50681108718E+02  0.22651298250E+03  0.27560980006E+03  0.10600572068E+03 0.  0.
        -11    1    3    3    0    0 -0.29896690454E+02  0.14028329343E+02 -0.29013526312E+02  0.43958967610E+02  0.00000000000E+00 0.  1.
         11    1    3    3    0    0  0.42979948505E+02 -0.39181437930E+02 -0.63494685684E+01  0.58504502415E+02  0.00000000000E+00 0. -1.
        -13    1    4    4    0    0  0.46976224501E+02 -0.31728399410E+02  0.84158280810E+02  0.10146956798E+03  0.00000000000E+00 0.  1.
         13    1    4    4    0    0  0.57171953807E+02  0.82409508128E+02  0.14235470170E+03  0.17414023207E+03  0.00000000000E+00 0. -1.
         21    1    1    2  503  502  0.15680065172E+02 -0.53258915296E+02 -0.17276130998E+03  0.18146307263E+03  0.00000000000E+00 0. -1.
          2    1    1    2  501    0 -0.13291150153E+03  0.27730915164E+02  0.30251438729E+03  0.33158622621E+03  0.00000000000E+00 0. -1.
<scales pt_clust_5="13000.00000" pt_clust_6="13000.00000" pt_clust_7="13000.00000" pt_clust_8="13000.00000" pt_clust_9="55.51915" pt_clust_10="122.22247"></scales>
<clustering>
<clus scale="   55.519">  2  9  1 -1</clus>
<clus scale="   91.893">  5  6 -1 -1</clus>
<clus scale="  106.006">  7  8 -1 -1</clus>
<clus scale="  111.690">  2  5  1 -1</clus>
<clus scale="  122.222">  1 10  2 -1</clus>
<clus scale="  122.222">  1  5  2 -1</clus>
</clustering>
</event>
<event>
10    2  0.3984345E-006  0.1286943E+03  0.7546771E-02  0.1229526E+00
          2   -1    0    0  503    0 -0.00000000000E+00  0.00000000000E+00  0.35867823296E+03  0.35867823296E+03  0.00000000000E+00 0. -1.
         21   -1    0    0  501  502  0.00000000000E+00 -0.00000000000E+00 -0.21376734143E+03  0.21376734143E+03  0.00000000000E+00 0. -1.
         23    2    1    2    0    0  0.55103219511E+01 -0.83964068248E+02  0.63599995415E+02  0.13942805655E+03  0.91186046807E+02 0.  0.
         23    2    1    2    0    0 -0.17760101225E+02  0.12140772260E+03  0.16077069129E+02  0.15398166172E+03  0.91633092770E+02 0.  0.
        -11    1    4    4    0    0  0.16104023087E+02  0.11703250321E+03  0.56125737600E+01  0.11826853915E+03  0.00000000000E+00 0. -1.
         11    1    4    4    0    0 -0.33864124313E+02  0.43752193855E+01  0.10464495369E+02  0.35713122567E+02  0.00000000000E+00 0.  1.
        -11    1    3    3    0    0  0.39356146604E+02 -0.17241656438E+02  0.28637329810E+01  0.43062535444E+02  0.00000000000E+00 0.  1.
         11    1    3    3    0    0 -0.33845824653E+02 -0.66722411809E+02  0.60736262434E+02  0.96365521108E+02  0.00000000000E+00 0. -1.
         21    1    1    2  503  502  0.13271490489E+02  0.26535290474E+02  0.16108208006E+03  0.16379160728E+03  0.00000000000E+00 0. -1.
          2    1    1    2  501    0 -0.10217112146E+01 -0.63978944827E+02 -0.95848253072E+02  0.11524424884E+03  0.00000000000E+00 0. -1.
<scales pt_clust_5="13000.00000" pt_clust_6="13000.00000" pt_clust_7="13000.00000" pt_clust_8="13000.00000" pt_clust_9="29.66908" pt_clust_10="62.66867"></scales>
<clustering>
<clus scale="   29.669">  1  9  2 -1</clus>
<clus scale="   62.669">  2 10  1 -1</clus>
<clus scale="   91.186">  7  8 -1 -1</clus>
<clus scale="   91.633">  5  6 -1 -1</clus>
<clus scale="  128.376">  1  7  2 -1</clus>
<clus scale="   62.669">  2  5  1 -1</clus>
</clustering>
</event>
<event>
10    2  0.3984345E-006  0.2049638E+03  0.7546771E-02  0.1145717E+00
          3   -1    0    0  503    0 -0.00000000000E+00  0.00000000000E+00  0.33296149361E+03  0.33296149361E+03  0.00000000000E+00 0. -1.
         21   -1    0    0  501  502  0.00000000000E+00 -0.00000000000E+00 -0.22907286038E+03  0.22907286038E+03  0.00000000000E+00 0. -1.
         23    2    1    2    0    0 -0.10550465569E+03 -0.20173055800E+03  0.51571530358E+02  0.25038381261E+03  0.90586866974E+02 0.  0.
         23    2    1    2    0    0  0.16496980804E+02  0.14757543589E+03 -0.62788809526E+01  0.17463192778E+03  0.91685474299E+02 0.  0.
        -11    1    3    3    0    0  0.70008077866E+01 -0.40961722342E+02 -0.13431939844E+02  0.43672543032E+02  0.00000000000E+00 0.  1.
         11    1    3    3    0    0 -0.11250546347E+03 -0.16076883566E+03  0.65003470201E+02  0.20671126957E+03  0.00000000000E+00 0. -1.
        -13    1    4    4    0    0 -0.17116109589E+02  0.54319141712E+02  0.35443554001E+02  0.67080368842E+02  0.00000000000E+00 0. -1.
         13    1    4    4    0    0  0.33613090393E+02  0.93256294182E+02 -0.41722434954E+02  0.10755155893E+03  0.00000000000E+00 0.  1.
         21    1    1    2  503  502  0.27417381529E+02  0.10409734160E+02  0.53858377531E+02  0.61325363476E+02  0.00000000000E+00 0. -1.
          3    1    1    2  501    0  0.61590293352E+02  0.43745387949E+02  0.47376063002E+01  0.75693250131E+02  0.00000000000E+00 0. -1.
<scales pt_clust_5="13000.00000" pt_clust_6="13000.00000" pt_clust_7="13000.00000" pt_clust_8="13000.00000" pt_clust_9="29.32704" pt_clust_10="79.69693"></scales>
<clustering>
<clus scale="   29.327">  1  9  2 -1</clus>
<clus scale="   79.697">  2 10  1 -1</clus>
<clus scale="   90.587">  5  6 -1 -1</clus>
<clus scale="   91.685">  7  8 -1 -1</clus>
<clus scale="  204.475">  1  5  2 -1</clus>
<clus scale="   79.697">  2  5  1 -1</clus>
</clustering>
</event>
<event>
10    2  0.3984345E-006  0.1065788E+03  0.7546771E-02  0.1269595E+00
         21   -1    0    0  503  502  0.00000000000E+00  0.00000000000E+00  0.34652990830E+03  0.34652990830E+03  0.00000000000E+00 0.  1.
         -3   -1    0    0    0  501 -0.00000000000E+00 -0.00000000000E+00 -0.11707287005E+03  0.11707287005E+03  0.00000000000E+00 0.  1.
         23    2    1    2    0    0 -0.29402941658E+00  0.53947650247E+02  0.20911639095E+02  0.11341415346E+03  0.97545056950E+02 0.  0.
         23    2    1    2    0    0  0.41924743448E+02 -0.24251167254E+02  0.36991377936E+02  0.11026165192E+03  0.91888337755E+02 0.  0.
        -11    1    4    4    0    0  0.55545061625E+02 -0.46036038330E+02  0.97208832181E+01  0.72794685703E+02  0.00000000000E+00 0.  1.
         11    1    4    4    0    0 -0.13620318177E+02  0.21784871076E+02  0.27270494718E+02  0.37466966213E+02  0.00000000000E+00 0. -1.
        -13    1    3    3    0    0 -0.27825808561E+02 -0.18055446477E+02  0.14046122757E+02  0.36021775832E+02  0.00000000000E+00 0. -1.
         13    1    3    3    0    0  0.27531779144E+02  0.72003096724E+02  0.68655163382E+01  0.77392377631E+02  0.00000000000E+00 0.  1.
         21    1    1    2  503  501 -0.48918702809E+02 -0.52745534449E+02  0.55281854783E+01  0.72150479718E+02  0.00000000000E+00 0. -1.
         -3    1    1    2    0  502  0.72879887778E+01  0.23049051456E+02  0.16602583574E+03  0.16777649325E+03  0.00000000000E+00 0.  1.
<scales pt_clust_5="13000.00000" pt_clust_6="13000.00000" pt_clust_7="13000.00000" pt_clust_8="13000.00000" pt_clust_9="67.24987" pt_clust_10="24.17382"></scales>
<clustering>
<clus scale="   24.174">  1 10  2 -1</clus>
<clus scale="   67.250">  2  9  1 -1</clus>
<clus scale="   91.888">  5  6 -1 -1</clus>
<clus scale="   97.545">  7  8 -1 -1</clus>
<clus scale="  101.427">  1  5  2 -1</clus>
<clus scale="   24.174">  1  5  2 -1</clus>
</clustering>
</event>
<event>
10    2  0.3984345E-006  0.1387254E+03  0.7546771E-02  0.1227083E+00
         21   -1    0    0  501  502  0.00000000000E+00  0.00000000000E+00  0.13911802910E+03  0.13911802910E+03  0.00000000000E+00 0.  1.
          2   -1    0    0  503    0 -0.00000000000E+00 -0.00000000000E+00 -0.52962029240E+03  0.52962029240E+03  0.00000000000E+00 0. -1.
         23    2    1    2    0    0  0.58098799729E+02 -0.36000036011E+02 -0.95032303035E+02  0.15001972147E+03  0.93825929715E+02 0.  0.
         23    2    1    2    0    0  0.64461935849E+02  0.92198059549E+01 -0.36154196667E+02  0.11844224391E+03  0.92092851027E+02 0.  0.
        -11    1    3    3    0    0  0.54249402615E+02  0.21555741901E+02 -0.49242132559E+02  0.76370382427E+02  0.00000000000E+00 0.  1.
         11    1    3    3    0    0  0.38493971139E+01 -0.57555777912E+02 -0.45790170477E+02  0.73649339043E+02  0.00000000000E+00 0. -1.
        -13    1    4    4    0    0  0.48851901630E+02 -0.38174056438E+01  0.24273672347E+02  0.54683562867E+02  0.00000000000E+00 0.  1.
         13    1    4    4    0    0  0.15610034220E+02  0.13037211599E+02 -0.60427869014E+02  0.63758681041E+02  0.00000000000E+00 0. -1.
         21    1    1    2  503  502 -0.10647244123E+03  0.43116575330E+02 -0.31755137809E+03  0.33768964677E+03  0.00000000000E+00 0. -1.
          2    1    1    2  501    0 -0.16088294352E+02 -0.16336345274E+02  0.58235614489E+02  0.62586709348E+02  0.00000000000E+00 0. -1.
<scales pt_clust_5="13000.00000" pt_clust_6="13000.00000" pt_clust_7="13000.00000" pt_clust_8="13000.00000" pt_clust_9="102.18329" pt_clust_10="22.92835"></scales>
<clustering>
<clus scale="   22.928">  1 10  2 -1</clus>
<clus scale="   92.093">  7  8 -1 -1</clus>
<clus scale="   93.826">  5  6 -1 -1</clus>
<clus scale="  107.812">  1  7  2 -1</clus>
<clus scale="  102.183">  2  9  1 -1</clus>
<clus scale="   22.928">  1  5  2 -1</clus>
</clustering>
</event>
<event>
10    2  0.3984345E-006  0.1056771E+03  0.7546771E-02  0.1268982E+00
          2   -1    0    0  503    0 -0.00000000000E+00  0.00000000000E+00  0.46390230700E+03  0.46390230700E+03  0.00000000000E+00 0. -1.
         21   -1    0    0  501  502  0.00000000000E+00 -0.00000000000E+00 -0.97702530581E+02  0.97702530581E+02  0.00000000000E+00 0. -1.
         23    2    1    2    0    0  0.58942417459E+02 -0.29823248648E+02  0.23856931658E+03  0.26366244457E+03  0.90768558029E+02 0.  0.
         23    2    1    2    0    0 -0.39396455290E+02  0.16381824638E+02 -0.44325161470E+02  0.11002824757E+03  0.91219792014E+02 0.  0.
        -11    1    4    4    0    0  0.13691147386E+02  0.28923197653E+02  0.95143406145E+01  0.33384450819E+02  0.00000000000E+00 0.  1.
         11    1    4    4    0    0 -0.53087602675E+02 -0.12541373014E+02 -0.53839502085E+02  0.76643796746E+02  0.00000000000E+00 0. -1.
        -11    1    3    3    0    0 -0.13362690334E+02 -0.35965984994E+02  0.64124634235E+02  0.74726717346E+02  0.00000000000E+00 0.  1.
         11    1    3    3    0    0  0.72305107792E+02  0.61427363463E+01  0.17444468235E+03  0.18893572722E+03  0.00000000000E+00 0. -1.
         21    1    1    2  503  502 -0.23349805033E+02 -0.10501189805E+02  0.15775347855E+03  0.15981754715E+03  0.00000000000E+00 0. -1.
          2    1    1    2  501    0  0.38038428639E+01  0.23942613815E+02  0.14202142754E+02  0.28096598293E+02  0.00000000000E+00 0. -1.
<scales pt_clust_5="13000.00000" pt_clust_6="13000.00000" pt_clust_7="13000.00000" pt_clust_8="13000.00000" pt_clust_9="25.45243" pt_clust_10="24.24290"></scales>
<clustering>
<clus scale="   24.243">  2 10  1 -1</clus>
<clus scale="   25.452">  1  9  2 -1</clus>
<clus scale="   90.769">  7  8 -1 -1</clus>
<clus scale="   91.220">  5  6 -1 -1</clus>
<clus scale="  105.288">  1  7  2 -1</clus>
<clus scale="   24.243">  2  5  1 -1</clus>
</clustering>
</event>
<event>
10    2  0.3984345E-006  0.1461593E+03  0.7546771E-02  0.1228638E+00
         -2   -1    0    0    0  501 -0.00000000000E+00  0.00000000000E+00  0.13110767013E+04  0.13110767013E+04  0.00000000000E+00 0.  1.
         21   -1    0    0  503  502  0.00000000000E+00 -0.00000000000E+00 -0.56222357127E+02  0.56222357127E+02  0.00000000000E+00 0.  1.
         23    2    1    2    0    0  0.35526854629E+02 -0.22045916401E+02  0.32136094068E+03  0.33256712087E+03  0.74698432750E+02 0.  0.
         23    2    1    2    0    0  0.57958853920E+02  0.59611232556E+02  0.54849423017E+03  0.56218028120E+03  0.91038564649E+02 0.  0.
        -13    1    4    4    0    0  0.19672639829E+02 -0.24173769973E+02  0.13624620092E+03  0.13976555791E+03  0.00000000000E+00 0.  1.
         13    1    4    4    0    0  0.38286214091E+02  0.83785002529E+02  0.41224802924E+03  0.42241472329E+03  0.00000000000E+00 0. -1.
        -13    1    3    3    0    0  0.66410963653E+00 -0.39643034755E+02  0.22712748898E+03  0.23056215539E+03  0.00000000000E+00 0.  1.
         13    1    3    3    0    0  0.34862744993E+02  0.17597118355E+02  0.94233451707E+02  0.10200496548E+03  0.00000000000E+00 0. -1.
         21    1    1    2  503  501 -0.14129311392E+03 -0.58014783274E+02  0.39141411598E+03  0.42016005202E+03  0.00000000000E+00 0.  1.
         -2    1    1    2    0  502  0.47807405371E+02  0.20449467119E+02 -0.64149426793E+01  0.52391604321E+02  0.00000000000E+00 0.  1.
<scales pt_clust_5="13000.00000" pt_clust_6="13000.00000" pt_clust_7="13000.00000" pt_clust_8="13000.00000" pt_clust_9="114.34384" pt_clust_10="51.99739"></scales>
<clustering>
<clus scale="   51.997">  2 10  1 -1</clus>
<clus scale="   74.698">  7  8 -1 -1</clus>
<clus scale="   89.260">  1  7  2 -1</clus>
<clus scale="   91.039">  5  6 -1 -1</clus>
<clus scale="  114.344">  2  9  1 -1</clus>
<clus scale="   51.997">  2  5  1 -1</clus>
</clustering>
</event>
<event>
10    2  0.3984345E-006  0.2078916E+03  0.7546771E-02  0.1143367E+00
         21   -1    0    0  503  502  0.00000000000E+00  0.00000000000E+00  0.85721736941E+03  0.85721736941E+03  0.00000000000E+00 0.  1.
         -2   -1    0    0    0  501 -0.00000000000E+00 -0.00000000000E+00 -0.11200462089E+03  0.11200462089E+03  0.00000000000E+00 0.  1.
         23    2    1    2    0    0 -0.20567391925E+03 -0.84926551610E+02  0.17118205891E+03  0.29561001145E+03  0.92561878492E+02 0.  0.
         23    2    1    2    0    0  0.10514488853E+03  0.10601839040E+03  0.30806357255E+03  0.35428427961E+03  0.91207671607E+02 0.  0.
        -11    1    4    4    0    0  0.11869552347E+03  0.87722168745E+02  0.23272619698E+03  0.27558172824E+03  0.00000000000E+00 0.  1.
         11    1    4    4    0    0 -0.13550634937E+02  0.18296221653E+02  0.75337375566E+02  0.78702551364E+02  0.00000000000E+00 0. -1.
        -11    1    3    3    0    0 -0.97239877741E+02 -0.83908741361E+02  0.65435116141E+02  0.14414584671E+03  0.00000000000E+00 0. -1.
         11    1    3    3    0    0 -0.10843404151E+03 -0.10178102497E+01  0.10574694276E+03  0.15146416474E+03  0.00000000000E+00 0.  1.
         21    1    1    2  503  501  0.66041535628E+01  0.19806963253E+02 -0.11300033301E+02  0.23740711662E+02  0.00000000000E+00 0. -1.
         -2    1    1    2    0  502  0.93924877156E+02 -0.40898802041E+02  0.27726715037E+03  0.29558698759E+03  0.00000000000E+00 0.  1.
<scales pt_clust_5="13000.00000" pt_clust_6="13000.00000" pt_clust_7="13000.00000" pt_clust_8="13000.00000" pt_clust_9="20.87895" pt_clust_10="102.28340"></scales>
<clustering>
<clus scale="   20.879">  2  9  1 -1</clus>
<clus scale="   91.208">  5  6 -1 -1</clus>
<clus scale="   92.562">  7  8 -1 -1</clus>
<clus scale="  102.283">  1 10  2 -1</clus>
<clus scale="  207.292">  1  5  2 -1</clus>
<clus scale="  102.283">  1  5  2 -1</clus>
</clustering>
</event>
<event>
10    2  0.3984345E-006  0.1261547E+03  0.7546771E-02  0.1234771E+00
         -1   -1    0    0    0  501 -0.00000000000E+00  0.00000000000E+00  0.16775810564E+03  0.16775810564E+03  0.00000000000E+00 0.  1.
         21   -1    0    0  503  502  0.00000000000E+00 -0.00000000000E+00 -0.24662062347E+03  0.24662062347E+03  0.00000000000E+00 0.  1.
         23    2    1    2    0    0 -0.22936864205E+02 -0.90259388947E+02 -0.16205252338E+02  0.13197638480E+03  0.92099396905E+02 0.  0.
         23    2    1    2    0    0  0.10397055448E+03  0.15129118505E+02 -0.32883414900E+02  0.14679749202E+03  0.97105191733E+02 0.  0.
        -11    1    4    4    0    0  0.17613890180E+02 -0.37586033326E+02 -0.14485090823E+02  0.43963358432E+02  0.00000000000E+00 0. -1.
         11    1    4    4    0    0  0.86356664298E+02  0.52715151831E+02 -0.18398324077E+02  0.10283413358E+03  0.00000000000E+00 0.  1.
        -13    1    3    3    0    0 -0.55599750388E+02 -0.44978094111E+02 -0.24363811480E+02  0.75551019205E+02  0.00000000000E+00 0. -1.
         13    1    3    3    0    0  0.32662886183E+02 -0.45281294836E+02  0.81585591423E+01  0.56425365600E+02  0.00000000000E+00 0.  1.
         21    1    1    2  503  501 -0.20797407552E+01  0.30282230475E+02  0.15565959609E+02  0.34112137176E+02  0.00000000000E+00 0.  1.
         -1    1    1    2    0  502 -0.78953949517E+02  0.44848039967E+02 -0.45339810202E+02  0.10149271512E+03  0.00000000000E+00 0.  1.
<scales pt_clust_5="13000.00000" pt_clust_6="13000.00000" pt_clust_7="13000.00000" pt_clust_8="13000.00000" pt_clust_9="30.35356" pt_clust_10="94.22708"></scales>
<clustering>
<clus scale="   30.354">  1  9  2 -1</clus>
<clus scale="   92.099">  7  8 -1 -1</clus>
<clus scale="   94.227">  2 10  1 -1</clus>
<clus scale="   97.105">  5  6 -1 -1</clus>
<clus scale="  122.343">  1  7  2 -1</clus>
<clus scale="   94.227">  2  5  1 -1</clus>
</clustering>
</event>
<event>
10    2  0.3984345E-006  0.1078794E+03  0.7546771E-02  0.1265780E+00
          3   -1    0    0  503    0 -0.00000000000E+00  0.00000000000E+00  0.33916439908E+03  0.33916439908E+03  0.00000000000E+00 0. -1.
         21   -1    0    0  501  502  0.00000000000E+00 -0.00000000000E+00 -0.14931718584E+03  0.14931718584E+03  0.00000000000E+00 0. -1.
         23    2    1    2    0    0  0.51158429597E+02  0.67234960247E+02  0.77960790448E+02  0.14539680620E+03  0.89020343784E+02 0.  0.
         23    2    1    2    0    0 -0.53297636692E+02  0.63256904708E+02 -0.15713056631E+02  0.12473656457E+03  0.92033886816E+02 0.  0.
        -11    1    3    3    0    0 -0.22639546249E+02  0.37457784403E+01  0.43657950637E+01  0.23358939981E+02  0.00000000000E+00 0.  1.
         11    1    3    3    0    0  0.73797975846E+02  0.63489181807E+02  0.73594995384E+02  0.12203786622E+03  0.00000000000E+00 0. -1.
        -11    1    4    4    0    0 -0.38195763050E+02 -0.17008756333E+02 -0.91362368822E+01  0.42798188412E+02  0.00000000000E+00 0.  1.
         11    1    4    4    0    0 -0.15101873642E+02  0.80265661041E+02 -0.65768197490E+01  0.81938376160E+02  0.00000000000E+00 0. -1.
         21    1    1    2  503  502  0.12004223857E+02 -0.44288033020E+02  0.12320285087E+03  0.13147042907E+03  0.00000000000E+00 0. -1.
          3    1    1    2  501    0 -0.98650167620E+01 -0.86203831935E+02  0.43966285604E+01  0.86877785070E+02  0.00000000000E+00 0. -1.
<scales pt_clust_5="13000.00000" pt_clust_6="13000.00000" pt_clust_7="13000.00000" pt_clust_8="13000.00000" pt_clust_9="45.88607" pt_clust_10="96.02174"></scales>
<clustering>
<clus scale="   45.886">  1  9  2 -1</clus>
<clus scale="   89.020">  5  6 -1 -1</clus>
<clus scale="   92.034">  7  8 -1 -1</clus>
<clus scale="   96.022">  2 10  1 -1</clus>
<clus scale="  105.320">  1  5  2 -1</clus>
<clus scale="   96.022">  2  5  1 -1</clus>
</clustering>
</event>
<event>
10    2  0.3984345E-006  0.1146996E+03  0.7546771E-02  0.1252122E+00
          2   -1    0    0  503    0 -0.00000000000E+00  0.00000000000E+00  0.70395865993E+03  0.70395865993E+03  0.00000000000E+00 0. -1.
         21   -1    0    0  501  502  0.00000000000E+00 -0.00000000000E+00 -0.57771953308E+02  0.57771953308E+02  0.00000000000E+00 0. -1.
         23    2    1    2    0    0  0.40016261518E+02 -0.33702907547E+02  0.24067326194E+03  0.26287876679E+03  0.91893633362E+02 0.  0.
         23    2    1    2    0    0 -0.77585552868E+02  0.40029980794E+02  0.28795626116E+03  0.31463190434E+03  0.91937530483E+02 0.  0.
        -11    1    4    4    0    0  0.14501253191E+02  0.18776353762E+02  0.21893047296E+02  0.32282244726E+02  0.00000000000E+00 0.  1.
         11    1    4    4    0    0 -0.92086806059E+02  0.21253627033E+02  0.26606321387E+03  0.28234965962E+03  0.00000000000E+00 0. -1.
        -13    1    3    3    0    0 -0.10404736364E+02  0.21413990386E+02  0.24498451330E+02  0.34161259354E+02  0.00000000000E+00 0.  1.
         13    1    3    3    0    0  0.50420997882E+02 -0.55116897933E+02  0.21617481061E+03  0.22871750743E+03  0.00000000000E+00 0. -1.
         21    1    1    2  503  502 -0.20664189138E+02 -0.51516778413E+02  0.89571069077E+02  0.10537534620E+03  0.00000000000E+00 0. -1.
          2    1    1    2  501    0  0.58233480488E+02  0.45189705166E+02  0.27986114446E+02  0.78844595912E+02  0.00000000000E+00 0. -1.
<scales pt_clust_5="13000.00000" pt_clust_6="13000.00000" pt_clust_7="13000.00000" pt_clust_8="13000.00000" pt_clust_9="55.50664" pt_clust_10="69.53492"></scales>
<clustering>
<clus scale="   55.507">  1  9  2 -1</clus>
<clus scale="   69.535">  2 10  1 -1</clus>
<clus scale="   91.894">  7  8 -1 -1</clus>
<clus scale="   91.938">  5  6 -1 -1</clus>
<clus scale="  114.664">  1  7  2 -1</clus>
<clus scale="   69.535">  2  5  1 -1</clus>
</clustering>
</event>
<event>
10    2  0.3984345E-006  0.2049697E+03  0.7546771E-02  0.1166978E+00
         -1   -1    0    0    0  501 -0.00000000000E+00  0.00000000000E+00  0.29953822231E+03  0.29953822231E+03  0.00000000000E+00 0.  1.
         21   -1    0    0  503  502  0.00000000000E+00 -0.00000000000E+00 -0.95518045209E+03  0.95518045209E+03  0.00000000000E+00 0.  1.
         23    2    1    2    0    0 -0.65525834748E+02 -0.51289305084E+02 -0.40821472899E+03  0.42625891446E+03  0.90184085937E+02 0.  0.
         23    2    1    2    0    0  0.51019634773E+02  0.22277764512E+03  0.13632198869E+03  0.28259332634E+03  0.95091646280E+02 0.  0.
        -13    1    4    4    0    0  0.15947584676E+02  0.20601291444E+03  0.12727323158E+03  0.24268111144E+03  0.00000000000E+00 0. -1.
         13    1    4    4    0    0  0.35072050097E+02  0.16764730681E+02  0.90487571125E+01  0.39912214899E+02  0.00000000000E+00 0.  1.
        -13    1    3    3    0    0 -0.38461687364E+02  0.32077918335E+01 -0.51313651923E+02  0.64208116286E+02  0.00000000000E+00 0.  1.
         13    1    3    3    0    0 -0.27064147384E+02 -0.54497096918E+02 -0.35690107707E+03  0.36205079818E+03  0.00000000000E+00 0. -1.
         21    1    1    2  503  501 -0.67131848447E+02 -0.92244380893E+01  0.44240461530E+02  0.80925853535E+02  0.00000000000E+00 0. -1.
         -1    1    1    2    0  502  0.81638048422E+02 -0.16226390195E+03 -0.42798995101E+03  0.46494058006E+03  0.00000000000E+00 0.  1.
<scales pt_clust_5="13000.00000" pt_clust_6="13000.00000" pt_clust_7="13000.00000" pt_clust_8="13000.00000" pt_clust_9="67.76264" pt_clust_10="181.57691"></scales>
<clustering>
<clus scale="   67.763">  1  9  2 -1</clus>
<clus scale="   90.184">  7  8 -1 -1</clus>
<clus scale="   95.092">  5  6 -1 -1</clus>
<clus scale="  124.238">  1  7  2 -1</clus>
<clus scale="  181.577">  2 10  1 -1</clus>
<clus scale="  181.577">  2  5  1 -1</clus>
</clustering>
</event>
<event>
10    2  0.3984345E-006  0.1597784E+03  0.7546771E-02  0.1189281E+00
         21   -1    0    0  501  502  0.00000000000E+00  0.00000000000E+00  0.73551966457E+02  0.73551966457E+02  0.00000000000E+00 0.  1.
          2   -1    0    0  503    0 -0.00000000000E+00 -0.00000000000E+00 -0.11675787898E+04  0.11675787898E+04  0.00000000000E+00 0. -1.
         23    2    1    2    0    0 -0.15075968128E+03 -0.76044410000E+02 -0.42592710625E+03  0.46700524350E+03  0.90381213913E+02 0.  0.
         23    2    1    2    0    0  0.11081079282E+03  0.11161785336E+02 -0.33149807700E+03  0.36067825108E+03  0.88284814609E+02 0.  0.
        -11    1    4    4    0    0  0.93627963021E+02  0.44054961578E+02 -0.21894915939E+03  0.24216888631E+03  0.00000000000E+00 0. -1.
         11    1    4    4    0    0  0.17182829802E+02 -0.32893176243E+02 -0.11254891760E+03  0.11850936477E+03  0.00000000000E+00 0.  1.
        -13    1    3    3    0    0 -0.13805587830E+03 -0.94562800530E+02 -0.35215200998E+03  0.38988791583E+03  0.00000000000E+00 0.  1.
         13    1    3    3    0    0 -0.12703802987E+02  0.18518390529E+02 -0.73775096267E+02  0.77117327673E+02  0.00000000000E+00 0. -1.
         21    1    1    2  503  502  0.55478797429E+02  0.82457527972E+02 -0.36403365192E+03  0.37735611909E+03  0.00000000000E+00 0. -1.
          2    1    1    2  501    0 -0.15529908969E+02 -0.17574903307E+02  0.27432011836E+02  0.36091142573E+02  0.00000000000E+00 0. -1.
<scales pt_clust_5="13000.00000" pt_clust_6="13000.00000" pt_clust_7="13000.00000" pt_clust_8="13000.00000" pt_clust_9="95.67895" pt_clust_10="23.45326"></scales>
<clustering>
<clus scale="   23.453">  1 10  2 -1</clus>
<clus scale="   88.285">  5  6 -1 -1</clus>
<clus scale="   90.381">  7  8 -1 -1</clus>
<clus scale="   95.679">  2  9  1 -1</clus>
<clus scale="  158.602">  1  5  2 -1</clus>
<clus scale="   23.453">  1  5  2 -1</clus>
</clustering>
</event>
<event>
10    2  0.3984345E-006  0.1743767E+03  0.7546771E-02  0.1173723E+00
          1   -1    0    0  503    0 -0.00000000000E+00  0.00000000000E+00  0.19325900874E+03  0.19325900874E+03  0.00000000000E+00 0. -1.
         21   -1    0    0  501  502  0.00000000000E+00 -0.00000000000E+00 -0.46688248119E+03  0.46688248119E+03  0.00000000000E+00 0. -1.
         23    2    1    2    0    0 -0.11922151927E+03  0.51472057768E+02  0.11466710116E+02  0.16021434449E+03  0.93134351081E+02 0.  0.
         23    2    1    2    0    0  0.16133047728E+03 -0.88325347694E+02 -0.43323471700E+02  0.20947807159E+03  0.90417085401E+02 0.  0.
        -11    1    4    4    0    0  0.29458613479E+02  0.41081960815E+01  0.20635658233E+02  0.36201071446E+02  0.00000000000E+00 0.  1.
         11    1    4    4    0    0  0.13187186380E+03 -0.92433543775E+02 -0.63959129933E+02  0.17327700014E+03  0.00000000000E+00 0. -1.
        -13    1    3    3    0    0 -0.93040253164E+01  0.26355327301E+02 -0.29137489492E+02  0.40375257994E+02  0.00000000000E+00 0. -1.
         13    1    3    3    0    0 -0.10991749395E+03  0.25116730468E+02  0.40604199607E+02  0.11983908649E+03  0.00000000000E+00 0.  1.
         21    1    1    2  503  502  0.71062775433E+00 -0.26547566184E+02  0.91802277941E+01  0.28099018567E+02  0.00000000000E+00 0. -1.
          1    1    1    2  501    0 -0.42819585768E+02  0.63400856109E+02 -0.25094693866E+03  0.26235005528E+03  0.00000000000E+00 0. -1.
<scales pt_clust_5="13000.00000" pt_clust_6="13000.00000" pt_clust_7="13000.00000" pt_clust_8="13000.00000" pt_clust_9="26.55708" pt_clust_10="75.77623"></scales>
<clustering>
<clus scale="   26.557">  1  9  2 -1</clus>
<clus scale="   75.776">  2 10  1 -1</clus>
<clus scale="   90.417">  5  6 -1 -1</clus>
<clus scale="   93.134">  7  8 -1 -1</clus>
<clus scale="  172.941">  2  5  1 -1</clus>
<clus scale="   75.776">  2  5  1 -1</clus>
</clustering>
</event>
<event>
10    2  0.3984345E-006  0.1509360E+03  0.7546771E-02  0.1214000E+00
          1   -1    0    0  503    0 -0.00000000000E+00  0.00000000000E+00  0.49342995084E+03  0.49342995084E+03  0.00000000000E+00 0. -1.
         21   -1    0    0  501  502  0.00000000000E+00 -0.00000000000E+00 -0.34247886403E+03  0.34247886403E+03  0.00000000000E+00 0. -1.
         23    2    1    2    0    0 -0.44792797843E+01  0.42762402814E+02  0.23206225657E+03  0.25301371057E+03  0.91183111220E+02 0.  0.
         23    2    1    2    0    0 -0.29569163857E+02  0.37638040767E+02  0.15074361231E+03  0.18159905186E+03  0.89239124932E+02 0.  0.
        -13    1    3    3    0    0  0.81716137707E+01 -0.25651856529E+02  0.35861421750E+02  0.44842330280E+02  0.00000000000E+00 0.  1.
         13    1    3    3    0    0 -0.12650893555E+02  0.68414259343E+02  0.19620083482E+03  0.20817138029E+03  0.00000000000E+00 0. -1.
        -13    1    4    4    0    0  0.61509111780E+01  0.56265940661E+02  0.60925311593E+02  0.83159986650E+02  0.00000000000E+00 0. -1.
         13    1    4    4    0    0 -0.35720075035E+02 -0.18627899895E+02  0.89818300716E+02  0.98439065205E+02  0.00000000000E+00 0.  1.
         21    1    1    2  503  502 -0.47434995450E+02  0.17812977159E+02  0.62505820909E+02  0.80463399109E+02  0.00000000000E+00 0. -1.
          1    1    1    2  501    0  0.81483439092E+02 -0.98213420740E+02 -0.29436060298E+03  0.32083265333E+03  0.00000000000E+00 0. -1.
<scales pt_clust_5="13000.00000" pt_clust_6="13000.00000" pt_clust_7="13000.00000" pt_clust_8="13000.00000" pt_clust_9="50.66933" pt_clust_10="121.72945"></scales>
<clustering>
<clus scale="   50.669">  1  9  2 -1</clus>
<clus scale="   89.239">  7  8 -1 -1</clus>
<clus scale="   91.183">  5  6 -1 -1</clus>
<clus scale="  110.142">  1  5  2 -1</clus>
<clus scale="  121.729">  2 10  1 -1</clus>
<clus scale="  121.729">  2  5  1 -1</clus>
</clustering>
</event>
<event>
10    2  0.3984345E-006  0.1266825E+03  0.7546771E-02  0.1233273E+00
         21   -1    0    0  501  502  0.00000000000E+00  0.00000000000E+00  0.30554059252E+02  0.30554059252E+02  0.00000000000E+00 0.  1.
          2   -1    0    0  503    0 -0.00000000000E+00 -0.00000000000E+00 -0.95585879423E+03  0.95585879423E+03  0.00000000000E+00 0. -1.
         23    2    1    2    0    0 -0.29547737159E+02 -0.74874458923E+02 -0.35162227432E+03  0.37188704594E+03  0.90457159830E+02 0.  0.
         23    2    1    2    0    0  0.37749851738E+02  0.79404321024E+02 -0.20319779605E+03  0.24026547287E+03  0.93316963247E+02 0.  0.
        -11    1    4    4    0    0  0.52981209905E+02  0.21785230964E+02 -0.14929124548E+03  0.15990459927E+03  0.00000000000E+00 0. -1.
         11    1    4    4    0    0 -0.15231358167E+02  0.57619090060E+02 -0.53906550570E+02  0.80360873598E+02  0.00000000000E+00 0.  1.
        -11    1    3    3    0    0 -0.58334111068E+02 -0.45749757178E+02 -0.16600607662E+03  0.18180738783E+03  0.00000000000E+00 0.  1.
         11    1    3    3    0    0  0.28786373909E+02 -0.29124701746E+02 -0.18561619771E+03  0.19007965811E+03  0.00000000000E+00 0. -1.
         21    1    1    2  503  502 -0.30390718905E+02 -0.65607588084E-01 -0.21444428246E+03  0.21658705035E+03  0.00000000000E+00 0.  1.
          2    1    1    2  501    0  0.22188604326E+02 -0.44642545128E+01 -0.15604038214E+03  0.15767328433E+03  0.00000000000E+00 0. -1.
<scales pt_clust_5="13000.00000" pt_clust_6="13000.00000" pt_clust_7="13000.00000" pt_clust_8="13000.00000" pt_clust_9="29.59218" pt_clust_10="22.63326"></scales>
<clustering>
<clus scale="   22.633">  1 10  2 -1</clus>
<clus scale="   29.592">  2  9  1 -1</clus>
<clus scale="   90.457">  7  8 -1 -1</clus>
<clus scale="   93.317">  5  6 -1 -1</clus>
<clus scale="  124.591">  2  7  1 -1</clus>
<clus scale="   22.633">  1  5  2 -1</clus>
</clustering>
</event>
<event>
10    2  0.3984345E-006  0.1326779E+03  0.7546771E-02  0.1232080E+00
         -1   -1    0    0    0  501 -0.00000000000E+00  0.00000000000E+00  0.52025255512E+03  0.52025255512E+03  0.00000000000E+00 0.  1.
         21   -1    0    0  503  502  0.00000000000E+00 -0.00000000000E+00 -0.11245799963E+03  0.11245799963E+03  0.00000000000E+00 0.  1.
         23    2    1    2    0    0 -0.28284487172E+02  0.43833596225E+02  0.15173367030E+03  0.18418151114E+03  0.90434097373E+02 0.  0.
         23    2    1    2    0    0 -0.40578251504E+02 -0.94308139857E+02  0.38262923063E+02  0.15947678849E+03  0.11588000279E+03 0.  0.
        -13    1    4    4    0    0  0.32839561967E+02 -0.61741277096E+02 -0.13022404144E+01  0.69943677039E+02  0.00000000000E+00 0. -1.
         13    1    4    4    0    0 -0.73417813471E+02 -0.32566862761E+02  0.39565163477E+02  0.89533111450E+02  0.00000000000E+00 0.  1.
        -13    1    3    3    0    0  0.29241298245E+02 -0.17929959343E+01  0.29395673071E+02  0.41501493380E+02  0.00000000000E+00 0.  1.
         13    1    3    3    0    0 -0.57525785417E+02  0.45626592160E+02  0.12233799723E+03  0.14268001776E+03  0.00000000000E+00 0. -1.
         21    1    1    2  503  501 -0.46284499893E+02  0.14359891244E+02  0.13301824522E+03  0.14157088319E+03  0.00000000000E+00 0.  1.
         -1    1    1    2    0  502  0.11514723857E+03  0.36114652389E+02  0.84779716903E+02  0.14748137193E+03  0.00000000000E+00 0.  1.
<scales pt_clust_5="13000.00000" pt_clust_6="13000.00000" pt_clust_7="13000.00000" pt_clust_8="13000.00000" pt_clust_9="48.46093" pt_clust_10="108.90976"></scales>
<clustering>
<clus scale="   48.461">  1  9  2 -1</clus>
<clus scale="   90.434">  7  8 -1 -1</clus>
<clus scale="  108.910">  2 10  1 -1</clus>
<clus scale="  111.147">  1  7  2 -1</clus>
<clus scale="  115.880">  5  6 -1 -1</clus>
<clus scale="  108.910">  2  5  1 -1</clus>
</clustering>
</event>
<event>
10    2  0.3984345E-006  0.1293083E+03  0.7546771E-02  0.1237475E+00
         21   -1    0    0  503  502  0.00000000000E+00  0.00000000000E+00  0.44950013949E+03  0.44950013949E+03  0.00000000000E+00 0. -1.
         -1   -1    0    0    0  501 -0.00000000000E+00 -0.00000000000E+00 -0.71614456758E+02  0.71614456758E+02  0.00000000000E+00 0.  1.
         23    2    1    2    0    0  0.10651978436E+02  0.49535200125E+02  0.89503569567E+02  0.13736469668E+03  0.91054765015E+02 0.  0.
         23    2    1    2    0    0  0.21087157028E+01  0.53692950964E+02  0.81496956017E+02  0.13250164101E+03  0.89596603540E+02 0.  0.
        -11    1    3    3    0    0 -0.21557979095E+02 -0.11577647841E+02  0.21355885163E+00  0.24471084970E+02  0.00000000000E+00 0.  1.
         11    1    3    3    0    0  0.32209957531E+02  0.61112847967E+02  0.89290010716E+02  0.11289361171E+03  0.00000000000E+00 0. -1.
        -13    1    4    4    0    0  0.10668477075E+02 -0.23585190561E+02  0.27950956972E+02  0.38096372695E+02  0.00000000000E+00 0.  1.
         13    1    4    4    0    0 -0.85597613718E+01  0.77278141525E+02  0.53545999045E+02  0.94405268317E+02  0.00000000000E+00 0. -1.
         21    1    1    2  503  501  0.12280692163E+02  0.15812640720E+02  0.20307968393E+02  0.28517864345E+02  0.00000000000E+00 0. -1.
         -1    1    1    2    0  502 -0.25041386301E+02 -0.11904079181E+03  0.18657718875E+03  0.22273039421E+03  0.00000000000E+00 0.  1.
<scales pt_clust_5="13000.00000" pt_clust_6="13000.00000" pt_clust_7="13000.00000" pt_clust_8="13000.00000" pt_clust_9="20.02136" pt_clust_10="93.23671"></scales>
<clustering>
<clus scale="   20.021">  2  9  1 -1</clus>
<clus scale="   89.597">  7  8 -1 -1</clus>
<clus scale="   91.055">  5  6 -1 -1</clus>
<clus scale="  107.502">  2  5  1 -1</clus>
<clus scale="   93.237">  1 10  2 -1</clus>
<clus scale="   93.237">  1  5  2 -1</clus>
</clustering>
</event>
<event>
10    2  0.3984345E-006  0.9892792E+02  0.7546771E-02  0.1283608E+00
         -2   -1    0    0    0  501 -0.00000000000E+00  0.00000000000E+00  0.21590271178E+03  0.21590271178E+03  0.00000000000E+00 0.  1.
         21   -1    0    0  503  502  0.00000000000E+00 -0.00000000000E+00 -0.13974620289E+03  0.13974620289E+03  0.00000000000E+00 0.  1.
         23    2    1    2    0    0 -0.22344513485E+02  0.38068365466E+02  0.72486726947E+02  0.12581739634E+03  0.92882796604E+02 0.  0.
         23    2    1    2    0    0  0.18196146564E+02 -0.14031901785E+02  0.15723462935E+02  0.94994427492E+02  0.90822463908E+02 0.  0.
        -11    1    4    4    0    0 -0.11374519762E+02 -0.30164216156E+02  0.41520386272E+02  0.52566168895E+02  0.00000000000E+00 0.  1.
         11    1    4    4    0    0  0.29570666326E+02  0.16132314371E+02 -0.25796923337E+02  0.42428258597E+02  0.00000000000E+00 0. -1.
        -13    1    3    3    0    0 -0.32807263629E+02 -0.23293728758E+02  0.23412647684E+02  0.46551760631E+02  0.00000000000E+00 0.  1.
         13    1    3    3    0    0  0.10462750145E+02  0.61362094224E+02  0.49074079263E+02  0.79265635705E+02  0.00000000000E+00 0. -1.
         21    1    1    2  503  501 -0.29195217554E+02 -0.31617930275E+02  0.48780817289E+02  0.65050921425E+02  0.00000000000E+00 0.  1.
         -2    1    1    2    0  502  0.33343584475E+02  0.75814665947E+01 -0.60834498283E+02  0.69786169423E+02  0.00000000000E+00 0.  1.
<scales pt_clust_5="13000.00000" pt_clust_6="13000.00000" pt_clust_7="13000.00000" pt_clust_8="13000.00000" pt_clust_9="40.01055" pt_clust_10="34.19464"></scales>
<clustering>
<clus scale="   34.195">  2 10  1 -1</clus>
<clus scale="   40.011">  1  9  2 -1</clus>
<clus scale="   90.822">  5  6 -1 -1</clus>
<clus scale="   92.883">  7  8 -1 -1</clus>
<clus scale="   96.996">  2  5  1 -1</clus>
<clus scale="   34.195">  2  5  1 -1</clus>
</clustering>
</event>
<event>
10    2  0.3984345E-006  0.1057240E+03  0.7546771E-02  0.1270354E+00
         21   -1    0    0  501  502  0.00000000000E+00  0.00000000000E+00  0.11571077440E+03  0.11571077440E+03  0.00000000000E+00 0.  1.
          2   -1    0    0  503    0 -0.00000000000E+00 -0.00000000000E+00 -0.45226636348E+03  0.45226636348E+03  0.00000000000E+00 0. -1.
         23    2    1    2    0    0 -0.31335400380E+02  0.47863485703E+02 -0.33628668717E+03  0.35353345363E+03  0.92867358549E+02 0.  0.
         23    2    1    2    0    0  0.11412378902E+02 -0.67250980971E+02  0.22815734685E+02  0.11447464976E+03  0.89055886126E+02 0.  0.
        -11    1    3    3    0    0  0.30999702647E+02  0.31910321365E+02 -0.14915640394E+03  0.15564987314E+03  0.00000000000E+00 0.  1.
         11    1    3    3    0    0 -0.62335103028E+02  0.15953164338E+02 -0.18713028323E+03  0.19788358048E+03  0.00000000000E+00 0. -1.
        -13    1    4    4    0    0  0.28273352399E+02 -0.13722988243E+02 -0.25460479223E+02  0.40446741086E+02  0.00000000000E+00 0. -1.
         13    1    4    4    0    0 -0.16860973497E+02 -0.53527992727E+02  0.48276213908E+02  0.74027908669E+02  0.00000000000E+00 0.  1.
         21    1    1    2  503  502  0.23200358870E+02 -0.15263744390E+01 -0.56112806007E+02  0.60739060485E+02  0.00000000000E+00 0.  1.
          2    1    1    2  501    0 -0.32773373916E+01  0.20913869706E+02  0.33028169407E+02  0.39229974010E+02  0.00000000000E+00 0. -1.
<scales pt_clust_5="13000.00000" pt_clust_6="13000.00000" pt_clust_7="13000.00000" pt_clust_8="13000.00000" pt_clust_9="23.12335" pt_clust_10="21.16910"></scales>
<clustering>
<clus scale="   21.169">  1 10  2 -1</clus>
<clus scale="   23.123">  2  9  1 -1</clus>
<clus scale="   89.056">  7  8 -1 -1</clus>
<clus scale="   92.867">  5  6 -1 -1</clus>
<clus scale="  102.392">  1  7  2 -1</clus>
<clus scale="   21.169">  1  5  2 -1</clus>
</clustering>
</event>
<event>
10    2  0.3984345E-006  0.1157436E+03  0.7546771E-02  0.1251447E+00
         21   -1    0    0  501  502  0.00000000000E+00  0.00000000000E+00  0.33803489948E+03  0.33803489948E+03  0.00000000000E+00 0. -1.
          1   -1    0    0  503    0 -0.00000000000E+00 -0.00000000000E+00 -0.22311236407E+03  0.22311236407E+03  0.00000000000E+00 0. -1.
         23    2    1    2    0    0  0.37905804631E+01 -0.43080500974E+02 -0.14885871776E+03  0.17995158132E+03  0.91396694161E+02 0.  0.
         23    2    1    2    0    0 -0.10015105064E+03  0.21347757668E+02  0.14378721110E+03  0.19725384653E+03  0.88024758985E+02 0.  0.
        -11    1    4    4    0    0 -0.10756299815E+03 -0.10625847744E+01  0.13365950914E+03  0.17156862196E+03  0.00000000000E+00 0. -1.
         11    1    4    4    0    0  0.74119475133E+01  0.22410342442E+02  0.10127701960E+02  0.25685224572E+02  0.00000000000E+00 0.  1.
        -13    1    3    3    0    0 -0.25994502072E+02 -0.18748296408E+01 -0.11718762444E+03  0.12005069115E+03  0.00000000000E+00 0. -1.
         13    1    3    3    0    0  0.29785082535E+02 -0.41205671333E+02 -0.31671093324E+02  0.59900890177E+02  0.00000000000E+00 0.  1.
         21    1    1    2  503  502  0.35017295700E+02 -0.26261247266E+02  0.36353533543E+01  0.43921292104E+02  0.00000000000E+00 0. -1.
          1    1    1    2  501    0  0.61343174479E+02  0.47993990572E+02  0.11635868871E+03  0.14002054358E+03  0.00000000000E+00 0. -1.
<scales pt_clust_5="13000.00000" pt_clust_6="13000.00000" pt_clust_7="13000.00000" pt_clust_8="13000.00000" pt_clust_9="43.77058" pt_clust_10="78.59010"></scales>
<clustering>
<clus scale="   43.771">  2  9  1 -1</clus>
<clus scale="   78.590">  1 10  2 -1</clus>
<clus scale="   88.025">  5  6 -1 -1</clus>
<clus scale="   91.397">  7  8 -1 -1</clus>
<clus scale="  113.100">  1  5  2 -1</clus>
<clus scale="   78.590">  1  5  2 -1</clus>
</clustering>
</event>
<event>
10    2  0.3984345E-006  0.1056874E+03  0.7546771E-02  0.1269088E+00
         -1   -1    0    0    0  501 -0.00000000000E+00  0.00000000000E+00  0.18254169860E+03  0.18254169860E+03  0.00000000000E+00 0.  1.
         21   -1    0    0  503  502  0.00000000000E+00 -0.00000000000E+00 -0.29781815272E+03  0.29781815272E+03  0.00000000000E+00 0. -1.
         23    2    1    2    0    0  0.35771178518E+01 -0.22304972765E+01  0.57477667571E+02  0.10815350168E+03  0.91518996747E+02 0.  0.
         23    2    1    2    0    0  0.10937201803E+03  0.31662342090E+01 -0.28590883153E+02  0.14501380447E+03  0.90770598334E+02 0.  0.
        -11    1    4    4    0    0 -0.81288262346E+01 -0.20706432635E+02 -0.35696589968E+01  0.22529461462E+02  0.00000000000E+00 0.  1.
         11    1    4    4    0    0  0.11750084426E+03  0.23872666844E+02 -0.25021224156E+02  0.12248434301E+03  0.00000000000E+00 0. -1.
        -13    1    3    3    0    0  0.41410364557E+02  0.21751786888E+02  0.27639823471E+02  0.54331559586E+02  0.00000000000E+00 0. -1.
         13    1    3    3    0    0 -0.37833246705E+02 -0.23982284165E+02  0.29837844100E+02  0.53821942092E+02  0.00000000000E+00 0.  1.
         21    1    1    2  503  501 -0.60745384741E+02 -0.21937713266E+02  0.78861625352E+01  0.65065018176E+02  0.00000000000E+00 0. -1.
         -1    1    1    2    0  502 -0.52203751140E+02  0.21001976334E+02 -0.15204940107E+03  0.16212752699E+03  0.00000000000E+00 0.  1.
<scales pt_clust_5="13000.00000" pt_clust_6="13000.00000" pt_clust_7="13000.00000" pt_clust_8="13000.00000" pt_clust_9="73.50635" pt_clust_10="56.27002"></scales>
<clustering>
<clus scale="   56.270">  2 10  1 -1</clus>
<clus scale="   73.506">  1  9  2 -1</clus>
<clus scale="   90.771">  5  6 -1 -1</clus>
<clus scale="   91.519">  7  8 -1 -1</clus>
<clus scale="  105.040">  2  5  1 -1</clus>
<clus scale="   56.270">  2  5  1 -1</clus>
</clustering>
</event>
<event>
10    2  0.3984345E-006  0.2303719E+03  0.7546771E-02  0.1145100E+00
          2   -1    0    0  503    0 -0.00000000000E+00  0.00000000000E+00  0.67656395283E+03  0.67656395283E+03  0.00000000000E+00 0. -1.
         21   -1    0    0  501  502  0.00000000000E+00 -0.00000000000E+00 -0.19417726908E+03  0.19417726908E+03  0.00000000000E+00 0. -1.
         23    2    1    2    0    0 -0.10964427725E+03 -0.45432689276E+02  0.20117049973E+03  0.25414620401E+03  0.10017348082E+03 0.  0.
         23    2    1    2    0    0  0.15057503943E+03  0.20115386402E+03  0.85856700295E+02  0.28024908388E+03  0.89623972907E+02 0.  0.
        -11    1    3    3    0    0 -0.76426085164E+02 -0.71128152137E+02  0.17752741782E+03  0.20595180164E+03  0.00000000000E+00 0.  1.
         11    1    3    3    0    0 -0.33218192090E+02  0.25695462862E+02  0.23643081913E+02  0.48194402369E+02  0.00000000000E+00 0. -1.
        -13    1    4    4    0    0  0.75157547909E+02  0.62995822447E+02  0.73132338203E+02  0.12233343592E+03  0.00000000000E+00 0.  1.
         13    1    4    4    0    0  0.75417491520E+02  0.13815804158E+03  0.12724362092E+02  0.15791564796E+03  0.00000000000E+00 0. -1.
         21    1    1    2  503  502  0.22750340257E+02  0.21856209966E+02  0.13445684416E+03  0.13810834456E+03  0.00000000000E+00 0.  1.
          2    1    1    2  501    0 -0.63681102433E+02 -0.17757738471E+03  0.60902639557E+02  0.19823758946E+03  0.00000000000E+00 0. -1.
<scales pt_clust_5="13000.00000" pt_clust_6="13000.00000" pt_clust_7="13000.00000" pt_clust_8="13000.00000" pt_clust_9="31.54793" pt_clust_10="212.22339"></scales>
<clustering>
<clus scale="   31.548">  1  9  2 -1</clus>
<clus scale="   89.624">  7  8 -1 -1</clus>
<clus scale="  100.173">  5  6 -1 -1</clus>
<clus scale="  146.145">  1  5  2 -1</clus>
<clus scale="  212.223">  2 10  1 -1</clus>
<clus scale="  212.223">  2  5  1 -1</clus>
</clustering>
</event>
<event>
10    2  0.3984345E-006  0.1156369E+03  0.7546771E-02  0.1250568E+00
         21   -1    0    0  501  502  0.00000000000E+00  0.00000000000E+00  0.36975260555E+03  0.36975260555E+03  0.00000000000E+00 0. -1.
          1   -1    0    0  503    0 -0.00000000000E+00 -0.00000000000E+00 -0.14468964446E+03  0.14468964446E+03  0.00000000000E+00 0. -1.
         23    2    1    2    0    0 -0.32637200933E+02  0.67668492453E+02 -0.49043796896E+02  0.12883383978E+03  0.92458923322E+02 0.  0.
         23    2    1    2    0    0  0.10209109299E+02 -0.51603873298E+02  0.34252959467E+02  0.11152924368E+03  0.92186340159E+02 0.  0.
        -11    1    3    3    0    0 -0.55802997243E+02  0.75768774226E+02 -0.34031257969E+02  0.10006501970E+03  0.00000000000E+00 0.  1.
         11    1    3    3    0    0  0.23165796310E+02 -0.81002817728E+01 -0.15012538927E+02  0.28768820075E+02  0.00000000000E+00 0. -1.
        -13    1    4    4    0    0 -0.29998258379E+02 -0.57738862337E+02  0.25753359549E+02  0.69977905498E+02  0.00000000000E+00 0.  1.
         13    1    4    4    0    0  0.40207367678E+02  0.61349890397E+01  0.84995999182E+01  0.41551338184E+02  0.00000000000E+00 0. -1.
         21    1    1    2  503  502  0.12459206844E+02  0.17859973854E+02 -0.83848771863E+01  0.23334880901E+02  0.00000000000E+00 0.  1.
          1    1    1    2  501    0  0.99688847903E+01 -0.33924593009E+02  0.24823867570E+03  0.25074428566E+03  0.00000000000E+00 0. -1.
<scales pt_clust_5="13000.00000" pt_clust_6="13000.00000" pt_clust_7="13000.00000" pt_clust_8="13000.00000" pt_clust_9="21.77637" pt_clust_10="35.22688"></scales>
<clustering>
<clus scale="   21.776">  2  9  1 -1</clus>
<clus scale="   35.227">  1 10  2 -1</clus>
<clus scale="   92.186">  7  8 -1 -1</clus>
<clus scale="   92.459">  5  6 -1 -1</clus>
<clus scale="  115.419">  1  7  2 -1</clus>
<clus scale="   35.227">  1  5  2 -1</clus>
</clustering>
</event>
<event>
10    2  0.3984345E-006  0.1085724E+03  0.7546771E-02  0.1265432E+00
          2   -1    0    0  503    0 -0.00000000000E+00  0.00000000000E+00  0.13818708437E+03  0.13818708437E+03  0.00000000000E+00 0. -1.
         21   -1    0    0  501  502  0.00000000000E+00 -0.00000000000E+00 -0.19023952717E+03  0.19023952717E+03  0.00000000000E+00 0. -1.
         23    2    1    2    0    0  0.55753173579E+02 -0.29265093491E+02  0.35746581141E+02  0.11608160343E+03  0.90731794478E+02 0.  0.
         23    2    1    2    0    0 -0.33174346211E+02  0.14753125864E+02  0.56896350670E+01  0.10271789596E+03  0.95918727232E+02 0.  0.
        -11    1    4    4    0    0 -0.49621981051E+02 -0.19036778035E+02 -0.20443268631E+02  0.56944421620E+02  0.00000000000E+00 0.  1.
         11    1    4    4    0    0  0.16447634840E+02  0.33789903899E+02  0.26132903698E+02  0.45773474339E+02  0.00000000000E+00 0. -1.
        -13    1    3    3    0    0  0.37177844208E+02 -0.40332097034E+02 -0.18336183445E+02  0.57836716491E+02  0.00000000000E+00 0.  1.
         13    1    3    3    0    0  0.18575329371E+02  0.11067003542E+02  0.54082764587E+02  0.58244886934E+02  0.00000000000E+00 0. -1.
         21    1    1    2  503  502 -0.18631495846E+02 -0.11085247259E+02 -0.13475484176E+02  0.25526535567E+02  0.00000000000E+00 0.  1.
          2    1    1    2  501    0 -0.39473315222E+01  0.25597214886E+02 -0.80013174835E+02  0.84100576593E+02  0.00000000000E+00 0. -1.
<scales pt_clust_5="13000.00000" pt_clust_6="13000.00000" pt_clust_7="13000.00000" pt_clust_8="13000.00000" pt_clust_9="21.67984" pt_clust_10="24.02729"></scales>
<clustering>
<clus scale="   21.680">  2  9  1 -1</clus>
<clus scale="   24.027">  2 10  1 -1</clus>
<clus scale="   90.732">  7  8 -1 -1</clus>
<clus scale="   95.919">  5  6 -1 -1</clus>
<clus scale="  104.018">  1  7  2 -1</clus>
<clus scale="   21.680">  2  5  1 -1</clus>
</clustering>
</event>
<event>
10    2  0.3984345E-006  0.1222909E+03  0.7546771E-02  0.1239551E+00
          3   -1    0    0  503    0 -0.00000000000E+00  0.00000000000E+00  0.69504020988E+03  0.69504020988E+03  0.00000000000E+00 0. -1.
         21   -1    0    0  501  502  0.00000000000E+00 -0.00000000000E+00 -0.63957794859E+02  0.63957794859E+02  0.00000000000E+00 0. -1.
         23    2    1    2    0    0  0.64439443858E+02 -0.41991973127E+02  0.28189073519E+03  0.30594273232E+03  0.90679662245E+02 0.  0.
         23    2    1    2    0    0 -0.53118764685E+02  0.67014689156E+02  0.20721183063E+03  0.24204303402E+03  0.91299046196E+02 0.  0.
        -11    1    4    4    0    0 -0.37870710364E+02  0.82306612738E+02  0.11022878550E+03  0.14268480773E+03  0.00000000000E+00 0. -1.
         11    1    4    4    0    0 -0.15248054320E+02 -0.15291923582E+02  0.96983045132E+02  0.99358226285E+02  0.00000000000E+00 0.  1.
        -13    1    3    3    0    0  0.86832618988E+02 -0.23748656453E+02  0.21368658314E+03  0.23187466057E+03  0.00000000000E+00 0. -1.
         13    1    3    3    0    0 -0.22393175130E+02 -0.18243316675E+02  0.68204152050E+02  0.74068071748E+02  0.00000000000E+00 0.  1.
         21    1    1    2  503  502  0.33050425221E+02  0.15554160505E+02  0.14624139258E+03  0.15073422777E+03  0.00000000000E+00 0. -1.
          3    1    1    2  501    0 -0.44371104394E+02 -0.40576876533E+02 -0.42615433787E+01  0.60278010637E+02  0.00000000000E+00 0. -1.
<scales pt_clust_5="13000.00000" pt_clust_6="13000.00000" pt_clust_7="13000.00000" pt_clust_8="13000.00000" pt_clust_9="36.52756" pt_clust_10="58.34205"></scales>
<clustering>
<clus scale="   36.528">  1  9  2 -1</clus>
<clus scale="   58.342">  2 10  1 -1</clus>
<clus scale="   90.680">  7  8 -1 -1</clus>
<clus scale="   91.299">  5  6 -1 -1</clus>
<clus scale="  121.829">  1  7  2 -1</clus>
<clus scale="   58.342">  2  5  1 -1</clus>
</clustering>
</event>
<event>
10    2  0.3984345E-006  0.1264335E+03  0.7546771E-02  0.1235503E+00
          2   -1    0    0  503    0 -0.00000000000E+00  0.00000000000E+00  0.58188031624E+03  0.58188031624E+03  0.00000000000E+00 0. -1.
         21   -1    0    0  501  502  0.00000000000E+00 -0.00000000000E+00 -0.71695485046E+02  0.71695485046E+02  0.00000000000E+00 0.  1.
         23    2    1    2    0    0  0.35587676093E+02  0.29152087211E+02  0.15247983133E+03  0.18640106187E+03  0.96844876096E+02 0.  0.
         23    2    1    2    0    0 -0.11344411776E+03 -0.35944526414E+02  0.30507960502E+03  0.33906284823E+03  0.87911733087E+02 0.  0.
        -13    1    4    4    0    0 -0.43889719554E+02 -0.59747146393E+02  0.14233113040E+03  0.16048108819E+03  0.00000000000E+00 0.  1.
         13    1    4    4    0    0 -0.69554398202E+02  0.23802619979E+02  0.16274847462E+03  0.17858176004E+03  0.00000000000E+00 0. -1.
        -13    1    3    3    0    0  0.39937228852E+02 -0.25571482346E+02  0.43389491744E+02  0.64276986173E+02  0.00000000000E+00 0.  1.
         13    1    3    3    0    0 -0.43495527588E+01  0.54723569557E+02  0.10909033959E+03  0.12212407570E+03  0.00000000000E+00 0. -1.
         21    1    1    2  503  502  0.60705866474E+02  0.17699175958E+02  0.74856855808E+02  0.97989856186E+02  0.00000000000E+00 0.  1.
          2    1    1    2  501    0  0.17150575189E+02 -0.10906736754E+02 -0.22231460967E+02  0.30122035002E+02  0.00000000000E+00 0. -1.
<scales pt_clust_5="13000.00000" pt_clust_6="13000.00000" pt_clust_7="13000.00000" pt_clust_8="13000.00000" pt_clust_9="66.75439" pt_clust_10="20.32484"></scales>
<clustering>
<clus scale="   20.325">  2 10  1 -1</clus>
<clus scale="   66.754">  2  9  1 -1</clus>
<clus scale="   87.912">  5  6 -1 -1</clus>
<clus scale="   96.845">  7  8 -1 -1</clus>
<clus scale="  119.729">  2  5  1 -1</clus>
<clus scale="   20.325">  2  5  1 -1</clus>
</clustering>
</event>
<event>
10    2  0.3984345E-006  0.9757919E+02  0.7546771E-02  0.1287186E+00
         21   -1    0    0  501  502  0.00000000000E+00  0.00000000000E+00  0.64547256968E+03  0.64547256968E+03  0.00000000000E+00 0. -1.
          3   -1    0    0  503    0 -0.00000000000E+00 -0.00000000000E+00 -0.31286900958E+03  0.31286900958E+03  0.00000000000E+00 0. -1.
         23    2    1    2    0    0  0.20753688228E+02  0.43649811120E+02 -0.24970668221E+03  0.26888061814E+03  0.87220055511E+02 0.  0.
         23    2    1    2    0    0 -0.46243804544E+02  0.11113890140E+02  0.90036474851E+02  0.13627901979E+03  0.90572603019E+02 0.  0.
        -13    1    4    4    0    0 -0.47067316798E+02  0.46901782837E+02  0.56330064339E+02  0.87110192816E+02  0.00000000000E+00 0. -1.
         13    1    4    4    0    0  0.82351225400E+00 -0.35787892697E+02  0.33706410512E+02  0.49168826971E+02  0.00000000000E+00 0.  1.
        -13    1    3    3    0    0  0.47334447536E+02  0.53400854414E+02 -0.17513196290E+03  0.18911215087E+03  0.00000000000E+00 0. -1.
         13    1    3    3    0    0 -0.26580759308E+02 -0.97510432935E+01 -0.74574719309E+02  0.79768467271E+02  0.00000000000E+00 0.  1.
         21    1    1    2  503  502 -0.28968992276E+02 -0.70577791338E+00 -0.19989524981E+02  0.35203433709E+02  0.00000000000E+00 0.  1.
          3    1    1    2  501    0  0.54459108592E+02 -0.54057923347E+02  0.51226329244E+03  0.51797850763E+03  0.00000000000E+00 0. -1.
<scales pt_clust_5="13000.00000" pt_clust_6="13000.00000" pt_clust_7="13000.00000" pt_clust_8="13000.00000" pt_clust_9="28.97759" pt_clust_10="76.53297"></scales>
<clustering>
<clus scale="   28.978">  2  9  1 -1</clus>
<clus scale="   76.533">  1 10  2 -1</clus>
<clus scale="   87.220">  7  8 -1 -1</clus>
<clus scale="   90.573">  5  6 -1 -1</clus>
<clus scale="   94.476">  2  7  1 -1</clus>
<clus scale="   76.533">  1  5  2 -1</clus>
</clustering>
</event>
<event>
10    2  0.3984345E-006  0.1455189E+03  0.7546771E-02  0.1206309E+00
          1   -1    0    0  503    0 -0.00000000000E+00  0.00000000000E+00  0.10909948916E+03  0.10909948916E+03  0.00000000000E+00 0. -1.
         21   -1    0    0  501  502  0.00000000000E+00 -0.00000000000E+00 -0.60566360308E+03  0.60566360308E+03  0.00000000000E+00 0. -1.
         23    2    1    2    0    0  0.90151101843E+02  0.66825971934E+02 -0.77432207156E+02  0.16200771562E+03  0.87508979693E+02 0.  0.
         23    2    1    2    0    0 -0.10424791576E+03 -0.78723096062E+02 -0.12415134292E+03  0.20083478884E+03  0.88634658380E+02 0.  0.
        -11    1    3    3    0    0  0.66101758163E+01  0.27206060180E+02 -0.62321083393E+02  0.68321164876E+02  0.00000000000E+00 0.  1.
         11    1    3    3    0    0  0.83540926027E+02  0.39619911754E+02 -0.15111123763E+02  0.93686550744E+02  0.00000000000E+00 0. -1.
        -11    1    4    4    0    0 -0.96853530407E+01 -0.57405988459E+02 -0.29147571492E+02  0.65106332245E+02  0.00000000000E+00 0.  1.
         11    1    4    4    0    0 -0.94562562715E+02 -0.21317107603E+02 -0.95003771431E+02  0.13572845660E+03  0.00000000000E+00 0. -1.
         21    1    1    2  503  502 -0.37952720274E+01 -0.39006158871E+02  0.11408283683E+02  0.40817073097E+02  0.00000000000E+00 0.  1.
          1    1    1    2  501    0  0.17892085940E+02  0.50903282998E+02 -0.30638884753E+03  0.31110351468E+03  0.00000000000E+00 0. -1.
<scales pt_clust_5="13000.00000" pt_clust_6="13000.00000" pt_clust_7="13000.00000" pt_clust_8="13000.00000" pt_clust_9="39.19036" pt_clust_10="52.87579"></scales>
<clustering>
<clus scale="   39.190">  1  9  2 -1</clus>
<clus scale="   52.876">  2 10  1 -1</clus>
<clus scale="   87.509">  5  6 -1 -1</clus>
<clus scale="   88.635">  7  8 -1 -1</clus>
<clus scale="  144.836">  1  5  2 -1</clus>
<clus scale="   52.876">  2  5  1 -1</clus>
</clustering>
</event>
<event>
10    2  0.3984345E-006  0.1054530E+03  0.7546771E-02  0.1269597E+00
          3   -1    0    0  503    0 -0.00000000000E+00  0.00000000000E+00  0.11393639685E+04  0.11393639685E+04  0.00000000000E+00 0. -1.
         21   -1    0    0  501  502  0.00000000000E+00 -0.00000000000E+00 -0.48347618234E+02  0.48347618234E+02  0.00000000000E+00 0.  1.
         23    2    1    2    0    0  0.65706814721E+02  0.11723818699E+02  0.33132881833E+03  0.34983440231E+03  0.90280062902E+02 0.  0.
         23    2    1    2    0    0  0.26865329139E+02 -0.88361021546E+02  0.35210543858E+03  0.37525322252E+03  0.91144528637E+02 0.  0.
        -11    1    3    3    0    0  0.86483752057E+02 -0.92080835414E-01  0.22993509387E+03  0.24566154612E+03  0.00000000000E+00 0. -1.
         11    1    3    3    0    0 -0.20776937336E+02  0.11815899534E+02  0.10139372447E+03  0.10417285620E+03  0.00000000000E+00 0.  1.
        -13    1    4    4    0    0  0.36810044402E+02 -0.61916984647E+01  0.18552928070E+03  0.18924700921E+03  0.00000000000E+00 0. -1.
         13    1    4    4    0    0 -0.99447152624E+01 -0.82169323081E+02  0.16657615788E+03  0.18600621331E+03  0.00000000000E+00 0.  1.
         21    1    1    2  503  502 -0.52645327459E+02  0.41462841005E+02  0.40375210410E+03  0.40927552975E+03  0.00000000000E+00 0.  1.
          3    1    1    2  501    0 -0.39926816402E+02  0.35174361841E+02  0.38299892967E+01  0.53348432188E+02  0.00000000000E+00 0. -1.
<scales pt_clust_5="13000.00000" pt_clust_6="13000.00000" pt_clust_7="13000.00000" pt_clust_8="13000.00000" pt_clust_9="73.23390" pt_clust_10="53.21077"></scales>
<clustering>
<clus scale="   53.211">  2 10  1 -1</clus>
<clus scale="   73.234">  1  9  2 -1</clus>
<clus scale="   90.280">  5  6 -1 -1</clus>
<clus scale="   91.145">  7  8 -1 -1</clus>
<clus scale="  104.707">  1  5  2 -1</clus>
<clus scale="   53.211">  2  5  1 -1</clus>
</clustering>
</event>
<event>
10    2  0.3984345E-006  0.1350807E+03  0.7546771E-02  0.1221063E+00
          3   -1    0    0  503    0 -0.00000000000E+00  0.00000000000E+00  0.13003494732E+04  0.13003494732E+04  0.00000000000E+00 0. -1.
         21   -1    0    0  501  502  0.00000000000E+00 -0.00000000000E+00 -0.40481486660E+02  0.40481486660E+02  0.00000000000E+00 0. -1.
         23    2    1    2    0    0  0.15629294920E+03 -0.22438473190E+02  0.73282451561E+03  0.75539369521E+03  0.93042425951E+02 0.  0.
         23    2    1    2    0    0 -0.55111709027E+02  0.70253393677E+01  0.27826593019E+03  0.29741782093E+03  0.89099811651E+02 0.  0.
        -11    1    4    4    0    0 -0.34909214674E+02  0.45675308931E+02  0.11702417173E+03  0.13038229897E+03  0.00000000000E+00 0.  1.
         11    1    4    4    0    0 -0.20202494354E+02 -0.38649969563E+02  0.16124175846E+03  0.16703552196E+03  0.00000000000E+00 0. -1.
        -13    1    3    3    0    0  0.10417879613E+03 -0.36574841975E+02  0.62637573258E+03  0.63603262416E+03  0.00000000000E+00 0. -1.
         13    1    3    3    0    0  0.52114153072E+02  0.14136368785E+02  0.10644878303E+03  0.11936107105E+03  0.00000000000E+00 0.  1.
         21    1    1    2  503  502 -0.54231325641E+02  0.43684304543E+01  0.22985903113E+03  0.23621027509E+03  0.00000000000E+00 0.  1.
          3    1    1    2  501    0 -0.46949914531E+02  0.11044703368E+02  0.18918509577E+02  0.51809168606E+02  0.00000000000E+00 0. -1.
<scales pt_clust_5="13000.00000" pt_clust_6="13000.00000" pt_clust_7="13000.00000" pt_clust_8="13000.00000" pt_clust_9="60.71461" pt_clust_10="48.23152"></scales>
<clustering>
<clus scale="   48.232">  2 10  1 -1</clus>
<clus scale="   60.715">  1  9  2 -1</clus>
<clus scale="   89.100">  5  6 -1 -1</clus>
<clus scale="   93.042">  7  8 -1 -1</clus>
<clus scale="  132.396">  2  5  1 -1</clus>
<clus scale="   48.232">  2  5  1 -1</clus>
</clustering>
</event>
<event>
10    2  0.3984345E-006  0.1764238E+03  0.7546771E-02  0.1196775E+00
         21   -1    0    0  501  502  0.00000000000E+00  0.00000000000E+00  0.41616000900E+03  0.41616000900E+03  0.00000000000E+00 0. -1.
          2   -1    0    0  503    0 -0.00000000000E+00 -0.00000000000E+00 -0.51026190592E+03  0.51026190592E+03  0.00000000000E+00 0. -1.
         23    2    1    2    0    0  0.35120605907E+02 -0.54568245938E+02 -0.21896968030E+03  0.24576170027E+03  0.90774126275E+02 0.  0.
         23    2    1    2    0    0 -0.25014457739E+02 -0.12811220660E+03  0.77537239952E+02  0.17976394719E+03  0.96252753478E+02 0.  0.
        -11    1    4    4    0    0 -0.40745079413E+02 -0.18446944123E+02  0.46922206968E+02  0.64823951982E+02  0.00000000000E+00 0.  1.
         11    1    4    4    0    0  0.15730621674E+02 -0.10966526248E+03  0.30615032984E+02  0.11493999520E+03  0.00000000000E+00 0. -1.
        -13    1    3    3    0    0 -0.25540907813E+02 -0.16815436649E+02 -0.26522289339E+02  0.40478743970E+02  0.00000000000E+00 0.  1.
         13    1    3    3    0    0  0.60661513721E+02 -0.37752809289E+02 -0.19244739097E+03  0.20528295630E+03  0.00000000000E+00 0. -1.
         21    1    1    2  503  502 -0.14690670000E+02  0.26788236760E+02 -0.20336535701E+03  0.20564749900E+03  0.00000000000E+00 0. -1.
          2    1    1    2  501    0  0.45845218316E+01  0.15589221578E+03  0.25069590044E+03  0.29524876846E+03  0.00000000000E+00 0. -1.
<scales pt_clust_5="13000.00000" pt_clust_6="13000.00000" pt_clust_7="13000.00000" pt_clust_8="13000.00000" pt_clust_9="30.55201" pt_clust_10="147.85391"></scales>
<clustering>
<clus scale="   30.552">  2  9  1 -1</clus>
<clus scale="   90.774">  7  8 -1 -1</clus>
<clus scale="   96.253">  5  6 -1 -1</clus>
<clus scale="   99.921">  2  7  1 -1</clus>
<clus scale="  147.854">  1 10  2 -1</clus>
<clus scale="  147.854">  1  5  2 -1</clus>
</clustering>
</event>
<event>
10    2  0.3984345E-006  0.1576248E+03  0.7546771E-02  0.1191682E+00
         21   -1    0    0  503  502  0.00000000000E+00  0.00000000000E+00  0.11783041129E+04  0.11783041129E+04  0.00000000000E+00 0. -1.
         -1   -1    0    0    0  501 -0.00000000000E+00 -0.00000000000E+00 -0.74102703558E+02  0.74102703558E+02  0.00000000000E+00 0.  1.
         23    2    1    2    0    0  0.14266045262E+03 -0.38530139759E+02  0.96243006215E+02  0.19932467508E+03  0.92903355367E+02 0.  0.
         23    2    1    2    0    0 -0.39166343693E+02  0.10083474343E+03  0.38587346218E+03  0.41101002172E+03  0.91264786087E+02 0.  0.
        -13    1    4    4    0    0 -0.68918944447E+02  0.74794397047E+02  0.28924747748E+03  0.30660744603E+03  0.00000000000E+00 0. -1.
         13    1    4    4    0    0  0.29752600754E+02  0.26040346379E+02  0.96625984699E+02  0.10440257569E+03  0.00000000000E+00 0.  1.
        -13    1    3    3    0    0  0.13401777957E+03 -0.63113058908E+02  0.86259462705E+02  0.17141971401E+03  0.00000000000E+00 0.  1.
         13    1    3    3    0    0  0.86426730551E+01  0.24582919149E+02  0.99835435103E+01  0.27904961072E+02  0.00000000000E+00 0. -1.
         21    1    1    2  503  501 -0.74685745811E+02 -0.91221305824E+02  0.44612799962E+03  0.46144282344E+03  0.00000000000E+00 0. -1.
         -1    1    1    2    0  502 -0.28808363120E+02  0.28916702157E+02  0.17595694138E+03  0.18062929626E+03  0.00000000000E+00 0.  1.
<scales pt_clust_5="13000.00000" pt_clust_6="13000.00000" pt_clust_7="13000.00000" pt_clust_8="13000.00000" pt_clust_9="117.47794" pt_clust_10="40.81786"></scales>
<clustering>
<clus scale="   40.818">  1 10  2 -1</clus>
<clus scale="   91.265">  5  6 -1 -1</clus>
<clus scale="   92.903">  7  8 -1 -1</clus>
<clus scale="  117.478">  1  9  2 -1</clus>
<clus scale="  156.665">  1  5  2 -1</clus>
<clus scale="   40.818">  1  5  2 -1</clus>
</clustering>
</event>
<event>
10    2  0.3984345E-006  0.1028517E+03  0.7546771E-02  0.1274432E+00
          4   -1    0    0  503    0 -0.00000000000E+00  0.00000000000E+00  0.27453450735E+02  0.27453450735E+02  0.00000000000E+00 0. -1.
         21   -1    0    0  501  502  0.00000000000E+00 -0.00000000000E+00 -0.87335968440E+03  0.87335968440E+03  0.00000000000E+00 0.  1.
         23    2    1    2    0    0 -0.12990055368E+02  0.38015560302E+02 -0.18865442441E+03  0.21295854616E+03  0.90260324441E+02 0.  0.
         23    2    1    2    0    0  0.17716967986E+02 -0.70767563383E+02 -0.31695636677E+03  0.33752291698E+03  0.90213314240E+02 0.  0.
        -11    1    4    4    0    0  0.37845709678E+02 -0.23530243386E+02 -0.24561177232E+03  0.24962193974E+03  0.00000000000E+00 0.  1.
         11    1    4    4    0    0 -0.20128741693E+02 -0.47237319998E+02 -0.71344594449E+02  0.87900977240E+02  0.00000000000E+00 0. -1.
        -13    1    3    3    0    0  0.15907826484E+02  0.57922228394E+02 -0.89591468588E+02  0.10786414942E+03  0.00000000000E+00 0.  1.
         13    1    3    3    0    0 -0.28897881852E+02 -0.19906668092E+02 -0.99062955822E+02  0.10509439674E+03  0.00000000000E+00 0. -1.
         21    1    1    2  503  502  0.18609353382E+02 -0.14653681966E+02 -0.50760263196E+02  0.56014665474E+02  0.00000000000E+00 0.  1.
          4    1    1    2  501    0 -0.23336266000E+02  0.47405685048E+02 -0.28953517929E+03  0.29431700653E+03  0.00000000000E+00 0. -1.
<scales pt_clust_5="13000.00000" pt_clust_6="13000.00000" pt_clust_7="13000.00000" pt_clust_8="13000.00000" pt_clust_9="23.68625" pt_clust_10="50.79012"></scales>
<clustering>
<clus scale="   23.686">  1  9  2 -1</clus>
<clus scale="   50.790">  2 10  1 -1</clus>
<clus scale="   90.213">  5  6 -1 -1</clus>
<clus scale="   90.260">  7  8 -1 -1</clus>
<clus scale="  102.810">  2  5  1 -1</clus>
<clus scale="   50.790">  2  5  1 -1</clus>
</clustering>
</event>
<event>
10    2  0.3984345E-006  0.1767618E+03  0.7546771E-02  0.1171647E+00
         -2   -1    0    0    0  501 -0.00000000000E+00  0.00000000000E+00  0.60170356945E+03  0.60170356945E+03  0.00000000000E+00 0.  1.
         21   -1    0    0  503  502  0.00000000000E+00 -0.00000000000E+00 -0.33178741837E+03  0.33178741837E+03  0.00000000000E+00 0.  1.
         23    2    1    2    0    0  0.95396788610E+02 -0.12690373902E+03  0.40720032735E+03  0.44660276220E+03  0.91852133114E+02 0.  0.
         23    2    1    2    0    0 -0.12896194104E+03  0.11316080357E+03  0.72280589632E+02  0.20986197512E+03  0.96855641360E+02 0.  0.
        -11    1    4    4    0    0 -0.46550520853E+02 -0.10603389167E+01  0.48114886672E+02  0.66956087324E+02  0.00000000000E+00 0.  1.
         11    1    4    4    0    0 -0.82411420191E+02  0.11422114248E+03  0.24165702960E+02  0.14290588780E+03  0.00000000000E+00 0. -1.
        -13    1    3    3    0    0  0.73480445796E+01 -0.85869922118E+02  0.19852909191E+03  0.21642882806E+03  0.00000000000E+00 0. -1.
         13    1    3    3    0    0  0.88048744031E+02 -0.41033816900E+02  0.20867123544E+03  0.23017393413E+03  0.00000000000E+00 0.  1.
         21    1    1    2  503  501 -0.20834645872E+02  0.15151246885E+02  0.25199858561E+02  0.36037142260E+02  0.00000000000E+00 0. -1.
         -2    1    1    2    0  502  0.54399798305E+02 -0.14083114321E+01 -0.23476462446E+03  0.24098910824E+03  0.00000000000E+00 0.  1.
<scales pt_clust_5="13000.00000" pt_clust_6="13000.00000" pt_clust_7="13000.00000" pt_clust_8="13000.00000" pt_clust_9="25.76126" pt_clust_10="54.30244"></scales>
<clustering>
<clus scale="   25.761">  1  9  2 -1</clus>
<clus scale="   54.302">  2 10  1 -1</clus>
<clus scale="   91.852">  7  8 -1 -1</clus>
<clus scale="   96.856">  5  6 -1 -1</clus>
<clus scale="  174.070">  1  7  2 -1</clus>
<clus scale="   54.302">  2  5  1 -1</clus>
</clustering>
</event>
<event>
10    2  0.3984345E-006  0.1068639E+03  0.7546771E-02  0.1266594E+00
         21   -1    0    0  503  502  0.00000000000E+00  0.00000000000E+00  0.15093369802E+03  0.15093369802E+03  0.00000000000E+00 0.  1.
         -2   -1    0    0    0  501 -0.00000000000E+00 -0.00000000000E+00 -0.46356675203E+03  0.46356675203E+03  0.00000000000E+00 0.  1.
         23    2    1    2    0    0 -0.34058278934E+02 -0.42800891549E+02 -0.29286091774E+03  0.31130154241E+03  0.90273199149E+02 0.  0.
         23    2    1    2    0    0  0.77230006604E+02  0.17195560748E+02 -0.73591782797E+02  0.14063806602E+03  0.90017519908E+02 0.  0.
        -13    1    3    3    0    0 -0.23268058106E+02 -0.70983510145E+02 -0.19187640867E+03  0.20590438909E+03  0.00000000000E+00 0. -1.
         13    1    3    3    0    0 -0.10790220828E+02  0.28182618595E+02 -0.10098450907E+03  0.10539715332E+03  0.00000000000E+00 0.  1.
        -13    1    4    4    0    0  0.60901760233E+02  0.50055256431E+02 -0.66785540448E+02  0.10331922139E+03  0.00000000000E+00 0.  1.
         13    1    4    4    0    0  0.16328246371E+02 -0.32859695683E+02 -0.68062423486E+01  0.37318844634E+02  0.00000000000E+00 0. -1.
         21    1    1    2  503  501 -0.67050117093E+01  0.45450057934E+02 -0.39394357735E+02  0.60519256188E+02  0.00000000000E+00 0.  1.
         -2    1    1    2    0  502 -0.36466715961E+02 -0.19844727133E+02  0.93214004257E+02  0.10204158543E+03  0.00000000000E+00 0.  1.
<scales pt_clust_5="13000.00000" pt_clust_6="13000.00000" pt_clust_7="13000.00000" pt_clust_8="13000.00000" pt_clust_9="43.79270" pt_clust_10="41.51668"></scales>
<clustering>
<clus scale="   41.517">  1 10  2 -1</clus>
<clus scale="   43.793">  1  9  2 -1</clus>
<clus scale="   90.018">  7  8 -1 -1</clus>
<clus scale="   90.273">  5  6 -1 -1</clus>
<clus scale="  106.648">  1  7  2 -1</clus>
<clus scale="   41.517">  1  5  2 -1</clus>
</clustering>
</event>
<event>
10    2  0.3984345E-006  0.3822720E+03  0.7546771E-02  0.1050128E+00
         -2   -1    0    0    0  501 -0.00000000000E+00  0.00000000000E+00  0.45300485941E+03  0.45300485941E+03  0.00000000000E+00 0.  1.
         21   -1    0    0  503  502  0.00000000000E+00 -0.00000000000E+00 -0.98213445923E+03  0.98213445923E+03  0.00000000000E+00 0.  1.
         23    2    1    2    0    0 -0.31713105073E+03  0.16573155998E+03  0.16751272711E+03  0.40531260496E+03  0.90436390292E+02 0.  0.
         23    2    1    2    0    0  0.30763035838E+03 -0.36414188965E+03 -0.37865893608E+03  0.61567331326E+03  0.91843810896E+02 0.  0.
        -11    1    4    4    0    0  0.56572820433E+02 -0.13163157187E+03 -0.11140114236E+03  0.18148710489E+03  0.00000000000E+00 0.  1.
         11    1    4    4    0    0  0.25105753795E+03 -0.23251031778E+03 -0.26725779372E+03  0.43418620837E+03  0.00000000000E+00 0. -1.
        -13    1    3    3    0    0 -0.14730198687E+03  0.12774740206E+03  0.84521768942E+02  0.21251165496E+03  0.00000000000E+00 0.  1.
         13    1    3    3    0    0 -0.16982906386E+03  0.37984157915E+02  0.82990958171E+02  0.19280095000E+03  0.00000000000E+00 0. -1.
         21    1    1    2  503  501  0.19834387266E+02  0.13396094891E+02  0.18344999657E+02  0.30156214765E+02  0.00000000000E+00 0. -1.
         -2    1    1    2    0  502 -0.10333694917E+02  0.18501423478E+03 -0.33632839051E+03  0.38399718564E+03  0.00000000000E+00 0.  1.
<scales pt_clust_5="13000.00000" pt_clust_6="13000.00000" pt_clust_7="13000.00000" pt_clust_8="13000.00000" pt_clust_9="23.93446" pt_clust_10="185.98815"></scales>
<clustering>
<clus scale="   23.934">  1  9  2 -1</clus>
<clus scale="   90.436">  7  8 -1 -1</clus>
<clus scale="   91.844">  5  6 -1 -1</clus>
<clus scale="  185.988">  2 10  1 -1</clus>
<clus scale="  381.936">  1  7  2 -1</clus>
<clus scale="  185.988">  2  5  1 -1</clus>
</clustering>
</event>
<event>
10    2  0.3984345E-006  0.1309546E+03  0.7546771E-02  0.1233499E+00
          3   -1    0    0  503    0 -0.00000000000E+00  0.00000000000E+00  0.11400472393E+04  0.11400472393E+04  0.00000000000E+00 0. -1.
         21   -1    0    0  501  502  0.00000000000E+00 -0.00000000000E+00 -0.35991340929E+02  0.35991340929E+02  0.00000000000E+00 0.  1.
         23    2    1    2    0    0  0.11711185844E+03  0.46058234643E+02  0.53511307647E+03  0.55304875485E+03  0.60666071699E+02 0.  0.
         23    2    1    2    0    0 -0.22807673908E+02 -0.82590435151E+02  0.26429096483E+03  0.29226100860E+03  0.90694063157E+02 0.  0.
        -11    1    3    3    0    0  0.63968177594E+02  0.64539381917E+01  0.36233080986E+03  0.36799075645E+03  0.00000000000E+00 0. -1.
         11    1    3    3    0    0  0.53143680849E+02  0.39604296451E+02  0.17278226662E+03  0.18505799839E+03  0.00000000000E+00 0.  1.
        -13    1    4    4    0    0 -0.44158481471E+02 -0.75384138047E+01  0.12223488252E+03  0.13018512078E+03  0.00000000000E+00 0. -1.
         13    1    4    4    0    0  0.21350807563E+02 -0.75052021347E+02  0.14205608231E+03  0.16207588782E+03  0.00000000000E+00 0.  1.
         21    1    1    2  503  502 -0.44609812237E+02  0.10832286378E+02  0.24373010805E+03  0.24801560303E+03  0.00000000000E+00 0. -1.
          3    1    1    2  501    0 -0.49694372299E+02  0.25699914130E+02  0.60921748990E+02  0.82713213723E+02  0.00000000000E+00 0. -1.
<scales pt_clust_5="13000.00000" pt_clust_6="13000.00000" pt_clust_7="13000.00000" pt_clust_8="13000.00000" pt_clust_9="45.90614" pt_clust_10="59.53513"></scales>
<clustering>
<clus scale="   45.906">  1  9  2 -1</clus>
<clus scale="   59.535">  2 10  1 -1</clus>
<clus scale="   60.666">  5  6 -1 -1</clus>
<clus scale="   90.694">  7  8 -1 -1</clus>
<clus scale="  112.268">  1  5  2 -1</clus>
<clus scale="   59.535">  2  5  1 -1</clus>
</clustering>
</event>
<event>
10    2  0.3984345E-006  0.2562578E+03  0.7546771E-02  0.1118156E+00
          1   -1    0    0  503    0 -0.00000000000E+00  0.00000000000E+00  0.14899113282E+04  0.14899113282E+04  0.00000000000E+00 0. -1.
         21   -1    0    0  501  502  0.00000000000E+00 -0.00000000000E+00 -0.21235925077E+03  0.21235925077E+03  0.00000000000E+00 0. -1.
         23    2    1    2    0    0  0.19886071088E+03 -0.11324273853E+02  0.31159331989E+03  0.38105287127E+03  0.91853536619E+02 0.  0.
         23    2    1    2    0    0 -0.35560949007E+03 -0.79994065683E+02  0.53897336058E+03  0.65704760281E+03  0.91444567821E+02 0.  0.
        -11    1    4    4    0    0 -0.36511428027E+02  0.19502619219E+02  0.53785477543E+02  0.67869832234E+02  0.00000000000E+00 0.  1.
         11    1    4    4    0    0 -0.31909806204E+03 -0.99496684902E+02  0.48518788303E+03  0.58917777058E+03  0.00000000000E+00 0. -1.
        -13    1    3    3    0    0  0.68106411452E+02  0.22962261836E+02  0.53139981037E+02  0.89384597857E+02  0.00000000000E+00 0.  1.
         13    1    3    3    0    0  0.13075429943E+03 -0.34286535689E+02  0.25845333886E+03  0.29166827341E+03  0.00000000000E+00 0. -1.
         21    1    1    2  503  502 -0.57344992179E+02  0.14536639122E+03  0.41453197874E+03  0.44300857466E+03  0.00000000000E+00 0. -1.
          1    1    1    2  501    0  0.21409377137E+03 -0.54048051689E+02  0.12453418240E+02  0.22116153023E+03  0.00000000000E+00 0. -1.
<scales pt_clust_5="13000.00000" pt_clust_6="13000.00000" pt_clust_7="13000.00000" pt_clust_8="13000.00000" pt_clust_9="156.26847" pt_clust_10="239.38663"></scales>
<clustering>
<clus scale="   91.445">  5  6 -1 -1</clus>
<clus scale="   91.854">  7  8 -1 -1</clus>
<clus scale="  156.268">  1  9  2 -1</clus>
<clus scale="  205.412">  1  7  2 -1</clus>
<clus scale="  239.387">  2 10  1 -1</clus>
<clus scale="  239.387">  2  5  1 -1</clus>
</clustering>
</event>
<event>
10    2  0.3984345E-006  0.1424436E+03  0.7546771E-02  0.1218479E+00
          1   -1    0    0  503    0 -0.00000000000E+00  0.00000000000E+00  0.81236991821E+03  0.81236991821E+03  0.00000000000E+00 0. -1.
         21   -1    0    0  501  502  0.00000000000E+00 -0.00000000000E+00 -0.16101569454E+03  0.16101569454E+03  0.00000000000E+00 0.  1.
         23    2    1    2    0    0  0.30540036785E+02 -0.35519697693E+02  0.39347113222E+03  0.41433386631E+03  0.12107302800E+03 0.  0.
         23    2    1    2    0    0 -0.11293001617E+02  0.89976082339E+02 -0.73011600568E+02  0.14877019820E+03  0.92621006135E+02 0.  0.
        -11    1    3    3    0    0 -0.44163523307E+02  0.49847568415E+01  0.12010850423E+03  0.12806762815E+03  0.00000000000E+00 0.  1.
         11    1    3    3    0    0  0.74703560092E+02 -0.40504454535E+02  0.27336262799E+03  0.28626623816E+03  0.00000000000E+00 0. -1.
        -13    1    4    4    0    0  0.10425318508E+02  0.85725191346E+02 -0.87005511368E+02  0.12258651927E+03  0.00000000000E+00 0.  1.
         13    1    4    4    0    0 -0.21718320124E+02  0.42508909932E+01  0.13993910800E+02  0.26183678938E+02  0.00000000000E+00 0. -1.
         21    1    1    2  503  502 -0.60037770512E+02 -0.39690248097E+02  0.35392334197E+03  0.36116697201E+03  0.00000000000E+00 0. -1.
          1    1    1    2  501    0  0.40790735344E+02 -0.14766136550E+02 -0.23028649960E+02  0.49114576222E+02  0.00000000000E+00 0. -1.
<scales pt_clust_5="13000.00000" pt_clust_6="13000.00000" pt_clust_7="13000.00000" pt_clust_8="13000.00000" pt_clust_9="71.22800" pt_clust_10="43.38114"></scales>
<clustering>
<clus scale="   43.381">  2 10  1 -1</clus>
<clus scale="   71.228">  1  9  2 -1</clus>
<clus scale="   92.621">  7  8 -1 -1</clus>
<clus scale="  119.206">  2  7  1 -1</clus>
<clus scale="  121.073">  5  6 -1 -1</clus>
<clus scale="   43.381">  2  5  1 -1</clus>
</clustering>
</event>
<event>
10    2  0.3984345E-006  0.1097718E+03  0.7546771E-02  0.1262958E+00
         21   -1    0    0  501  502  0.00000000000E+00  0.00000000000E+00  0.21313252076E+03  0.21313252076E+03  0.00000000000E+00 0. -1.
          1   -1    0    0  503    0 -0.00000000000E+00 -0.00000000000E+00 -0.36405138931E+03  0.36405138931E+03  0.00000000000E+00 0. -1.
         23    2    1    2    0    0 -0.57507075908E+02 -0.24325702086E+01 -0.95241837616E+02  0.14631296570E+03  0.94992079262E+02 0.  0.
         23    2    1    2    0    0  0.40242056206E+02  0.49314181512E+02 -0.82680108080E+02  0.13790495683E+03  0.90169092593E+02 0.  0.
        -11    1    3    3    0    0 -0.16912147812E+02 -0.22625146101E+02  0.11378284576E+02  0.30452969307E+02  0.00000000000E+00 0.  1.
         11    1    3    3    0    0 -0.40594928096E+02  0.20192575893E+02 -0.10662012219E+03  0.11585999639E+03  0.00000000000E+00 0. -1.
        -13    1    4    4    0    0  0.63474721155E+02  0.57553104857E+02 -0.65715573468E+02  0.10798118679E+03  0.00000000000E+00 0. -1.
         13    1    4    4    0    0 -0.23232664949E+02 -0.82389233453E+01 -0.16964534612E+02  0.29923770036E+02  0.00000000000E+00 0.  1.
         21    1    1    2  503  502  0.16995137707E+02 -0.25803035812E+02 -0.13047492638E+03  0.13408332401E+03  0.00000000000E+00 0. -1.
          1    1    1    2  501    0  0.26988199499E+00 -0.21078575491E+02  0.15747800352E+03  0.15888266354E+03  0.00000000000E+00 0. -1.
<scales pt_clust_5="13000.00000" pt_clust_6="13000.00000" pt_clust_7="13000.00000" pt_clust_8="13000.00000" pt_clust_9="31.48215" pt_clust_10="21.08030"></scales>
<clustering>
<clus scale="   21.080">  1 10  2 -1</clus>
<clus scale="   31.482">  2  9  1 -1</clus>
<clus scale="   90.169">  7  8 -1 -1</clus>
<clus scale="   94.992">  5  6 -1 -1</clus>
<clus scale="  105.626">  1  7  2 -1</clus>
<clus scale="   21.080">  1  5  2 -1</clus>
</clustering>
</event>
<event>
10    2  0.3984345E-006  0.1034534E+03  0.7546771E-02  0.1278527E+00
          1   -1    0    0  503    0 -0.00000000000E+00  0.00000000000E+00  0.25687787363E+03  0.25687787363E+03  0.00000000000E+00 0. -1.
         21   -1    0    0  501  502  0.00000000000E+00 -0.00000000000E+00 -0.31052982033E+03  0.31052982033E+03  0.00000000000E+00 0.  1.
         23    2    1    2    0    0 -0.29218483555E+02 -0.39568407211E+02  0.15606262883E+03  0.18341719485E+03  0.82867029734E+02 0.  0.
         23    2    1    2    0    0  0.10515649504E+03  0.61612003118E+01 -0.37924680161E+02  0.14621159807E+03  0.94040954940E+02 0.  0.
        -11    1    4    4    0    0  0.68102769838E+02 -0.37497564645E+02 -0.42791293994E+02  0.88742038829E+02  0.00000000000E+00 0.  1.
         11    1    4    4    0    0  0.37053725203E+02  0.43658764957E+02  0.48666138329E+01  0.57469559240E+02  0.00000000000E+00 0. -1.
        -13    1    3    3    0    0  0.57974984226E+01 -0.56958169918E+02  0.94411445342E+02  0.11041451499E+03  0.00000000000E+00 0. -1.
         13    1    3    3    0    0 -0.35015981978E+02  0.17389762707E+02  0.61651183490E+02  0.73002679859E+02  0.00000000000E+00 0.  1.
         21    1    1    2  503  502  0.44340239064E+01  0.28150330693E+02  0.16539333673E+02  0.32949222213E+02  0.00000000000E+00 0. -1.
          1    1    1    2  501    0 -0.80372035392E+02  0.52568762066E+01 -0.18832922904E+03  0.20482967883E+03  0.00000000000E+00 0. -1.
<scales pt_clust_5="13000.00000" pt_clust_6="13000.00000" pt_clust_7="13000.00000" pt_clust_8="13000.00000" pt_clust_9="28.49740" pt_clust_10="80.45814"></scales>
<clustering>
<clus scale="   28.497">  1  9  2 -1</clus>
<clus scale="   80.458">  2 10  1 -1</clus>
<clus scale="   82.867">  7  8 -1 -1</clus>
<clus scale="   93.412">  1  7  2 -1</clus>
<clus scale="   94.041">  5  6 -1 -1</clus>
<clus scale="   80.458">  2  5  1 -1</clus>
</clustering>
</event>
<event>
10    2  0.3984345E-006  0.1217504E+03  0.7546771E-02  0.1240287E+00
         -3   -1    0    0    0  501 -0.00000000000E+00  0.00000000000E+00  0.22319743181E+03  0.22319743181E+03  0.00000000000E+00 0.  1.
         21   -1    0    0  503  502  0.00000000000E+00 -0.00000000000E+00 -0.35171660930E+03  0.35171660930E+03  0.00000000000E+00 0. -1.
         23    2    1    2    0    0 -0.38420860588E+02 -0.76246796484E+02  0.15223333144E+03  0.19488785692E+03  0.86698056901E+02 0.  0.
         23    2    1    2    0    0  0.16085782005E+02  0.86069322554E+02 -0.23931066907E+03  0.26922673710E+03  0.86872083959E+02 0.  0.
        -13    1    4    4    0    0 -0.19551702160E+02  0.52663259249E+02 -0.55241175795E+02  0.78786264255E+02  0.00000000000E+00 0.  1.
         13    1    4    4    0    0  0.35637484165E+02  0.33406063305E+02 -0.18406949327E+03  0.19044047284E+03  0.00000000000E+00 0. -1.
        -13    1    3    3    0    0 -0.30285919715E+02  0.90039010942E+01  0.20159115180E+02  0.37479288850E+02  0.00000000000E+00 0. -1.
         13    1    3    3    0    0 -0.81349408731E+01 -0.85250697578E+02  0.13207421626E+03  0.15740856807E+03  0.00000000000E+00 0.  1.
         21    1    1    2  503  501  0.61583207358E+02 -0.44068386097E+01 -0.16231125651E+02  0.63838554925E+02  0.00000000000E+00 0. -1.
         -3    1    1    2    0  502 -0.39248128776E+02 -0.54156874601E+01 -0.25210714202E+02  0.46960892173E+02  0.00000000000E+00 0.  1.
<scales pt_clust_5="13000.00000" pt_clust_6="13000.00000" pt_clust_7="13000.00000" pt_clust_8="13000.00000" pt_clust_9="56.83367" pt_clust_10="39.62001"></scales>
<clustering>
<clus scale="   39.620">  2 10  1 -1</clus>
<clus scale="   56.834">  2  9  1 -1</clus>
<clus scale="   86.698">  7  8 -1 -1</clus>
<clus scale="   86.872">  5  6 -1 -1</clus>
<clus scale="  121.626">  1  7  2 -1</clus>
<clus scale="   39.620">  2  5  1 -1</clus>
</clustering>
</event>
<event>
10    2  0.3984345E-006  0.1968555E+03  0.7546771E-02  0.1158006E+00
         -1   -1    0    0    0  501 -0.00000000000E+00  0.00000000000E+00  0.30533992248E+03  0.30533992248E+03  0.00000000000E+00 0.  1.
         21   -1    0    0  503  502  0.00000000000E+00 -0.00000000000E+00 -0.31328138541E+03  0.31328138541E+03  0.00000000000E+00 0.  1.
         23    2    1    2    0    0  0.87724379099E+02  0.10620910445E+03  0.61977577185E+02  0.17611834124E+03  0.90556664531E+02 0.  0.
         23    2    1    2    0    0 -0.12294985242E+03  0.93496367974E+02 -0.18382509815E+02  0.18106014182E+03  0.92664023515E+02 0.  0.
        -11    1    4    4    0    0 -0.86944197833E+02  0.10386470321E+03 -0.35259670126E+02  0.13996576169E+03  0.00000000000E+00 0.  1.
         11    1    4    4    0    0 -0.36005654588E+02 -0.10368335233E+02  0.16877160311E+02  0.41094380126E+02  0.00000000000E+00 0. -1.
        -11    1    3    3    0    0  0.39826888900E+02  0.66304659170E+02  0.79946649785E+02  0.11123828351E+03  0.00000000000E+00 0.  1.
         11    1    3    3    0    0  0.47897490199E+02  0.39904445282E+02 -0.17969072600E+02  0.64880057728E+02  0.00000000000E+00 0. -1.
         21    1    1    2  503  501  0.92363188841E+01  0.20731780077E+02  0.17862899596E+02  0.28882511554E+02  0.00000000000E+00 0.  1.
         -1    1    1    2    0  502  0.25989154438E+02 -0.22043725250E+03 -0.69399429897E+02  0.23256031327E+03  0.00000000000E+00 0.  1.
<scales pt_clust_5="13000.00000" pt_clust_6="13000.00000" pt_clust_7="13000.00000" pt_clust_8="13000.00000" pt_clust_9="22.69617" pt_clust_10="173.68215"></scales>
<clustering>
<clus scale="   22.696">  1  9  2 -1</clus>
<clus scale="   90.557">  7  8 -1 -1</clus>
<clus scale="   92.664">  5  6 -1 -1</clus>
<clus scale="  172.661">  1  7  2 -1</clus>
<clus scale="  173.682">  2 10  1 -1</clus>
<clus scale="  173.682">  2  5  1 -1</clus>
</clustering>
</event>
<event>
10    2  0.3984345E-006  0.1395956E+03  0.7546771E-02  0.1214976E+00
          2   -1    0    0  503    0 -0.00000000000E+00  0.00000000000E+00  0.73787388496E+03  0.73787388496E+03  0.00000000000E+00 0. -1.
         21   -1    0    0  501  502  0.00000000000E+00 -0.00000000000E+00 -0.12674475255E+03  0.12674475255E+03  0.00000000000E+00 0.  1.
         23    2    1    2    0    0 -0.77450452824E+02  0.96223181614E+01  0.43861067479E+03  0.45466805593E+03  0.90843576532E+02 0.  0.
         23    2    1    2    0    0  0.10508805655E+03 -0.93133974078E+02  0.33140423435E+02  0.17308147615E+03  0.95611050421E+02 0.  0.
        -11    1    4    4    0    0  0.86409658182E+02 -0.67167088806E+02 -0.19806892971E+02  0.11122211945E+03  0.00000000000E+00 0.  1.
         11    1    4    4    0    0  0.18678398370E+02 -0.25966885272E+02  0.52947316406E+02  0.61859356697E+02  0.00000000000E+00 0. -1.
        -13    1    3    3    0    0 -0.16947934604E+02  0.45384458611E+02  0.15030104171E+03  0.15791575194E+03  0.00000000000E+00 0.  1.
         13    1    3    3    0    0 -0.60502518220E+02 -0.35762140449E+02  0.28830963308E+03  0.29675230399E+03  0.00000000000E+00 0. -1.
         21    1    1    2  503  502 -0.15541161143E+02  0.33637853233E+02  0.17207430434E+03  0.17601874637E+03  0.00000000000E+00 0. -1.
          2    1    1    2  501    0 -0.12096442585E+02  0.49873802683E+02 -0.32696270148E+02  0.60850359069E+02  0.00000000000E+00 0. -1.
<scales pt_clust_5="13000.00000" pt_clust_6="13000.00000" pt_clust_7="13000.00000" pt_clust_8="13000.00000" pt_clust_9="37.05446" pt_clust_10="52.22772"></scales>
<clustering>
<clus scale="   37.054">  1  9  2 -1</clus>
<clus scale="   52.228">  2 10  1 -1</clus>
<clus scale="   90.844">  7  8 -1 -1</clus>
<clus scale="   95.611">  5  6 -1 -1</clus>
<clus scale="  136.375">  1  7  2 -1</clus>
<clus scale="   52.228">  2  5  1 -1</clus>
</clustering>
</event>
<event>
10    2  0.5428832E-006  0.1023946E+03  0.7546771E-02  0.1275814E+00
         21   -1    0    0  503  502  0.00000000000E+00  0.00000000000E+00  0.11839541849E+03  0.11839541849E+03  0.00000000000E+00 0.  1.
         -1   -1    0    0    0  501 -0.00000000000E+00 -0.00000000000E+00 -0.48697750565E+03  0.48697750565E+03  0.00000000000E+00 0.  1.
         23    2    1    2    0    0  0.56958019571E+02  0.25591333795E+02 -0.34993261360E+03  0.36666166171E+03  0.89937799341E+02 0.  0.
         23    2    1    2    0    0 -0.36454497109E+02 -0.26606843343E+01 -0.74497992842E+02  0.12314128727E+03  0.90982504320E+02 0.  0.
        -11    1    3    3    0    0 -0.91623897971E+01  0.27282497986E+02 -0.37318124440E+02  0.47126706811E+02  0.00000000000E+00 0. -1.
         11    1    3    3    0    0  0.66120409368E+02 -0.16911641907E+01 -0.31261448916E+03  0.31953495490E+03  0.00000000000E+00 0.  1.
        -11    1    4    4    0    0 -0.29898436625E+01  0.25784866101E+02 -0.74845686792E+02  0.79219160033E+02  0.00000000000E+00 0.  1.
         11    1    4    4    0    0 -0.33464653447E+02 -0.28445550435E+02  0.34769395019E+00  0.43922127236E+02  0.00000000000E+00 0. -1.
         21    1    1    2  503  501 -0.20125843210E+02  0.80234713270E+01 -0.22555557292E+02  0.31275850457E+02  0.00000000000E+00 0. -1.
         -1    1    1    2    0  502 -0.37767925144E+00 -0.30954120788E+02  0.78404076575E+02  0.84294124700E+02  0.00000000000E+00 0.  1.
<scales pt_clust_5="13000.00000" pt_clust_6="13000.00000" pt_clust_7="13000.00000" pt_clust_8="13000.00000" pt_clust_9="21.66623" pt_clust_10="30.90691"></scales>
<clustering>
<clus scale="   21.666">  2  9  1 -1</clus>
<clus scale="   30.907">  1 10  2 -1</clus>
<clus scale="   89.938">  5  6 -1 -1</clus>
<clus scale="   90.983">  7  8 -1 -1</clus>
<clus scale="  101.467">  2  5  1 -1</clus>
<clus scale="   30.907">  1  5  2 -1</clus>
</clustering>
</event>
<event>
10    2  0.3984345E-006  0.1443094E+03  0.7546771E-02  0.1208481E+00
         21   -1    0    0  503  502  0.00000000000E+00  0.00000000000E+00  0.37174968556E+03  0.37174968556E+03  0.00000000000E+00 0. -1.
         -1   -1    0    0    0  501 -0.00000000000E+00 -0.00000000000E+00 -0.13748258087E+03  0.13748258087E+03  0.00000000000E+00 0.  1.
         23    2    1    2    0    0  0.80328617209E+02 -0.77630222100E+02 -0.41555883855E+02  0.14843994962E+03  0.88478183946E+02 0.  0.
         23    2    1    2    0    0 -0.67141679010E+02  0.85507906214E+02  0.12067192009E+03  0.18692947249E+03  0.92527338127E+02 0.  0.
        -13    1    4    4    0    0 -0.67347219068E+01  0.73158275185E+02  0.95118662669E+02  0.12018756048E+03  0.00000000000E+00 0.  1.
         13    1    4    4    0    0 -0.60406957103E+02  0.12349631029E+02  0.25553257421E+02  0.66741912003E+02  0.00000000000E+00 0. -1.
        -13    1    3    3    0    0  0.24714005049E+02 -0.19498466195E+02 -0.58308669271E+02  0.66263663811E+02  0.00000000000E+00 0.  1.
         13    1    3    3    0    0  0.55614612160E+02 -0.58131755905E+02  0.16752785416E+02  0.82176285810E+02  0.00000000000E+00 0. -1.
         21    1    1    2  503  501 -0.28644098730E+02  0.84999681894E+01  0.18013850273E+02  0.34888861445E+02  0.00000000000E+00 0.  1.
         -1    1    1    2    0  502  0.15457160531E+02 -0.16377652304E+02  0.13713721818E+03  0.13897398287E+03  0.00000000000E+00 0.  1.
<scales pt_clust_5="13000.00000" pt_clust_6="13000.00000" pt_clust_7="13000.00000" pt_clust_8="13000.00000" pt_clust_9="27.70358" pt_clust_10="22.52002"></scales>
<clustering>
<clus scale="   22.520">  1 10  2 -1</clus>
<clus scale="   27.704">  1  9  2 -1</clus>
<clus scale="   88.478">  7  8 -1 -1</clus>
<clus scale="   92.527">  5  6 -1 -1</clus>
<clus scale="  141.747">  2  7  1 -1</clus>
<clus scale="   22.520">  1  5  2 -1</clus>
</clustering>
</event>
<event>
10    2  0.3984345E-006  0.1026081E+03  0.7546771E-02  0.1274983E+00
          1   -1    0    0  503    0 -0.00000000000E+00  0.00000000000E+00  0.50008895272E+03  0.50008895272E+03  0.00000000000E+00 0. -1.
         21   -1    0    0  501  502  0.00000000000E+00 -0.00000000000E+00 -0.10733889645E+03  0.10733889645E+03  0.00000000000E+00 0.  1.
         23    2    1    2    0    0  0.37502480356E+02 -0.38721982431E+02  0.18887757480E+03  0.21604088892E+03  0.89961655523E+02 0.  0.
         23    2    1    2    0    0 -0.54932454395E+02  0.61698396512E+02 -0.43829024782E+02  0.12964110099E+03  0.89786218171E+02 0.  0.
        -11    1    3    3    0    0  0.64174390626E+01  0.29197166371E+02  0.61427850737E+02  0.68315729480E+02  0.00000000000E+00 0.  1.
         11    1    3    3    0    0  0.31085041294E+02 -0.67919148803E+02  0.12744972407E+03  0.14772515944E+03  0.00000000000E+00 0. -1.
        -13    1    4    4    0    0 -0.40446315024E+02  0.46688212404E+02 -0.71821140560E+02  0.94731039305E+02  0.00000000000E+00 0.  1.
         13    1    4    4    0    0 -0.14486139371E+02  0.15010184108E+02  0.27992115778E+02  0.34910061681E+02  0.00000000000E+00 0. -1.
         21    1    1    2  503  502 -0.30407145087E+02  0.58882527279E+00  0.10842134361E+03  0.11260607860E+03  0.00000000000E+00 0.  1.
          1    1    1    2  501    0  0.47837119125E+02 -0.23565239354E+02  0.13928016264E+03  0.14913978066E+03  0.00000000000E+00 0. -1.
<scales pt_clust_5="13000.00000" pt_clust_6="13000.00000" pt_clust_7="13000.00000" pt_clust_8="13000.00000" pt_clust_9="30.41285" pt_clust_10="43.39682"></scales>
<clustering>
<clus scale="   30.413">  1  9  2 -1</clus>
<clus scale="   43.397">  2 10  1 -1</clus>
<clus scale="   89.786">  7  8 -1 -1</clus>
<clus scale="   89.962">  5  6 -1 -1</clus>
<clus scale="  102.454">  2  7  1 -1</clus>
<clus scale="   43.397">  2  5  1 -1</clus>
</clustering>
</event>
<event>
10    2  0.3984345E-006  0.2277247E+03  0.7546771E-02  0.1128575E+00
         21   -1    0    0  501  502  0.00000000000E+00  0.00000000000E+00  0.11247522011E+03  0.11247522011E+03  0.00000000000E+00 0. -1.
          4   -1    0    0  503    0 -0.00000000000E+00 -0.00000000000E+00 -0.66501670914E+03  0.66501670914E+03  0.00000000000E+00 0. -1.
         23    2    1    2    0    0  0.12126290826E+03 -0.18102545423E+03 -0.36955967321E+03  0.43775603627E+03  0.87069439154E+02 0.  0.
         23    2    1    2    0    0 -0.96632210532E+02  0.16588326292E+03 -0.12626002766E+03  0.24738307919E+03  0.91661072742E+02 0.  0.
        -11    1    3    3    0    0  0.23595906488E+02  0.53769787993E+01 -0.38161388778E+02  0.45188165458E+02  0.00000000000E+00 0.  1.
         11    1    3    3    0    0  0.97667001770E+02 -0.18640243303E+03 -0.33139828443E+03  0.39256787081E+03  0.00000000000E+00 0. -1.
        -11    1    4    4    0    0 -0.56465002022E+01  0.53066641058E+02  0.26256397756E+01  0.53430752774E+02  0.00000000000E+00 0.  1.
         11    1    4    4    0    0 -0.90985710330E+02  0.11281662186E+03 -0.12888566743E+03  0.19395232641E+03  0.00000000000E+00 0. -1.
         21    1    1    2  503  502 -0.47519716112E+02  0.84816485735E+01 -0.44083651529E+02  0.65371477833E+02  0.00000000000E+00 0. -1.
          4    1    1    2  501    0  0.22889018386E+02  0.66605427410E+01 -0.12638136642E+02  0.26981335957E+02  0.00000000000E+00 0. -1.
<scales pt_clust_5="13000.00000" pt_clust_6="13000.00000" pt_clust_7="13000.00000" pt_clust_8="13000.00000" pt_clust_9="46.12382" pt_clust_10="23.83841"></scales>
<clustering>
<clus scale="   23.838">  1 10  2 -1</clus>
<clus scale="   46.124">  1  9  2 -1</clus>
<clus scale="   87.069">  5  6 -1 -1</clus>
<clus scale="   91.661">  7  8 -1 -1</clus>
<clus scale="  225.916">  2  5  1 -1</clus>
<clus scale="   23.838">  1  5  2 -1</clus>
</clustering>
</event>
<event>
10    2  0.3984345E-006  0.1772678E+03  0.7546771E-02  0.1170667E+00
          1   -1    0    0  503    0 -0.00000000000E+00  0.00000000000E+00  0.11597961290E+03  0.11597961290E+03  0.00000000000E+00 0. -1.
         21   -1    0    0  501  502  0.00000000000E+00 -0.00000000000E+00 -0.14631984461E+04  0.14631984461E+04  0.00000000000E+00 0. -1.
         23    2    1    2    0    0  0.85066720175E+02  0.10476562203E+03 -0.29838075942E+03  0.34035167577E+03  0.92714632956E+02 0.  0.
         23    2    1    2    0    0 -0.20559795416E+03 -0.86660349514E+02 -0.79313734240E+03  0.82895515269E+03  0.91210012200E+02 0.  0.
        -11    1    4    4    0    0 -0.65559712990E+02 -0.49250177520E+02 -0.16425767958E+03  0.18358714893E+03  0.00000000000E+00 0.  1.
         11    1    4    4    0    0 -0.14003824117E+03 -0.37410171994E+02 -0.62887966282E+03  0.64536800375E+03  0.00000000000E+00 0. -1.
        -11    1    3    3    0    0  0.41760389174E+02 -0.70449570185E+01 -0.99249521332E+02  0.10790750209E+03  0.00000000000E+00 0. -1.
         11    1    3    3    0    0  0.43306331000E+02  0.11181057905E+03 -0.19913123809E+03  0.23244417367E+03  0.00000000000E+00 0.  1.
         21    1    1    2  503  502  0.17800506776E+02 -0.45207573850E+02  0.59748991838E+02  0.77009900666E+02  0.00000000000E+00 0. -1.
          1    1    1    2  501    0  0.10273072720E+03  0.27102301333E+02 -0.31544972317E+03  0.33286132983E+03  0.00000000000E+00 0. -1.
<scales pt_clust_5="13000.00000" pt_clust_6="13000.00000" pt_clust_7="13000.00000" pt_clust_8="13000.00000" pt_clust_9="48.58583" pt_clust_10="107.64677"></scales>
<clustering>
<clus scale="   48.586">  1  9  2 -1</clus>
<clus scale="   91.210">  5  6 -1 -1</clus>
<clus scale="   92.715">  7  8 -1 -1</clus>
<clus scale="  107.647">  2 10  1 -1</clus>
<clus scale="  176.486">  2  5  1 -1</clus>
<clus scale="  107.647">  2  5  1 -1</clus>
</clustering>
</event>
<event>
10    2  0.3984345E-006  0.9473000E+02  0.7546771E-02  0.1291826E+00
         21   -1    0    0  501  502  0.00000000000E+00  0.00000000000E+00  0.21922199235E+03  0.21922199235E+03  0.00000000000E+00 0. -1.
          3   -1    0    0  503    0 -0.00000000000E+00 -0.00000000000E+00 -0.20558856810E+03  0.20558856810E+03  0.00000000000E+00 0. -1.
         23    2    1    2    0    0 -0.88091340472E+01 -0.25646196889E+02 -0.15793030305E+03  0.18416559538E+03  0.90772559965E+02 0.  0.
         23    2    1    2    0    0 -0.93093453870E+00  0.26120549243E+02  0.88902004785E+02  0.12976843416E+03  0.90846740820E+02 0.  0.
        -11    1    4    4    0    0 -0.40069184921E+02  0.61010329846E+01  0.13929565743E+02  0.42857846254E+02  0.00000000000E+00 0. -1.
         11    1    4    4    0    0  0.39138250383E+02  0.20019516258E+02  0.74972439042E+02  0.86910587906E+02  0.00000000000E+00 0.  1.
        -13    1    3    3    0    0 -0.30966916894E+02  0.98051164975E+01 -0.16005316978E+02  0.36211330037E+02  0.00000000000E+00 0. -1.
         13    1    3    3    0    0  0.22157782847E+02 -0.35451313387E+02 -0.14192498607E+03  0.14795426534E+03  0.00000000000E+00 0.  1.
         21    1    1    2  503  502  0.92123376337E+01 -0.25407625742E+02  0.27523274840E+01  0.27165969836E+02  0.00000000000E+00 0. -1.
          3    1    1    2  501    0  0.52773095211E+00  0.24933273389E+02  0.79909395030E+02  0.83710561077E+02  0.00000000000E+00 0. -1.
<scales pt_clust_5="13000.00000" pt_clust_6="13000.00000" pt_clust_7="13000.00000" pt_clust_8="13000.00000" pt_clust_9="24.51357" pt_clust_10="24.93886"></scales>
<clustering>
<clus scale="   24.939">  1 10  2 -1</clus>
<clus scale="   24.514">  1  9  2 -1</clus>
<clus scale="   90.773">  7  8 -1 -1</clus>
<clus scale="   90.847">  5  6 -1 -1</clus>
<clus scale="   94.659">  2  7  1 -1</clus>
<clus scale="   24.939">  1  5  2 -1</clus>
</clustering>
</event>
<event>
10    2  0.3984345E-006  0.9785513E+02  0.7546771E-02  0.1287489E+00
         21   -1    0    0  503  502  0.00000000000E+00  0.00000000000E+00  0.36719172412E+02  0.36719172412E+02  0.00000000000E+00 0.  1.
         -4   -1    0    0    0  501 -0.00000000000E+00 -0.00000000000E+00 -0.65590645099E+03  0.65590645099E+03  0.00000000000E+00 0.  1.
         23    2    1    2    0    0  0.42913934102E+02 -0.49325590898E+01 -0.30713142595E+03  0.32254482851E+03  0.88541051019E+02 0.  0.
         23    2    1    2    0    0 -0.10025131785E+02 -0.21166070696E+02 -0.20778292173E+03  0.22904411843E+03  0.93482403741E+02 0.  0.
        -11    1    4    4    0    0 -0.43684617784E+02  0.14715830255E+02 -0.83524079006E+02  0.95400069523E+02  0.00000000000E+00 0. -1.
         11    1    4    4    0    0  0.33659485999E+02 -0.35881900951E+02 -0.12425884272E+03  0.13364404891E+03  0.00000000000E+00 0.  1.
        -13    1    3    3    0    0  0.66168271227E+02 -0.41813172193E+01 -0.27496838402E+03  0.28284860923E+03  0.00000000000E+00 0. -1.
         13    1    3    3    0    0 -0.23254337125E+02 -0.75124187050E+00 -0.32163041928E+02  0.39696219285E+02  0.00000000000E+00 0.  1.
         21    1    1    2  503  501 -0.10405711166E+02  0.22389487249E+02 -0.11371980383E+03  0.11636907556E+03  0.00000000000E+00 0. -1.
         -4    1    1    2    0  502 -0.22483091151E+02  0.37091425367E+01  0.94468729274E+01  0.24667600900E+02  0.00000000000E+00 0.  1.
<scales pt_clust_5="13000.00000" pt_clust_6="13000.00000" pt_clust_7="13000.00000" pt_clust_8="13000.00000" pt_clust_9="25.58588" pt_clust_10="22.78699"></scales>
<clustering>
<clus scale="   22.787">  1 10  2 -1</clus>
<clus scale="   25.586">  2  9  1 -1</clus>
<clus scale="   88.541">  7  8 -1 -1</clus>
<clus scale="   93.146">  2  7  1 -1</clus>
<clus scale="   93.482">  5  6 -1 -1</clus>
<clus scale="   22.787">  1  5  2 -1</clus>
</clustering>
</event>
<event>
10    2  0.3984345E-006  0.1200599E+03  0.7546771E-02  0.1243254E+00
         21   -1    0    0  501  502  0.00000000000E+00  0.00000000000E+00  0.56179367772E+03  0.56179367772E+03  0.00000000000E+00 0.  1.
          2   -1    0    0  503    0 -0.00000000000E+00 -0.00000000000E+00 -0.56372032312E+02  0.56372032312E+02  0.00000000000E+00 0. -1.
         23    2    1    2    0    0  0.49904666050E+01 -0.53180296585E+02  0.92707489127E+02  0.14014345019E+03  0.90512205748E+02 0.  0.
         23    2    1    2    0    0  0.30656992357E+02  0.11774473897E+03  0.31488151461E+03  0.34970695036E+03  0.91328572483E+02 0.  0.
        -13    1    3    3    0    0  0.34702396678E+02 -0.42916078591E+02  0.16339618444E+02  0.57558919967E+02  0.00000000000E+00 0.  1.
         13    1    3    3    0    0 -0.29711930073E+02 -0.10264217994E+02  0.76367870683E+02  0.82584530225E+02  0.00000000000E+00 0. -1.
        -13    1    4    4    0    0  0.43752312365E+02  0.14103043862E+02  0.12163202720E+03  0.13002888419E+03  0.00000000000E+00 0. -1.
         13    1    4    4    0    0 -0.13095320008E+02  0.10364169511E+03  0.19324948741E+03  0.21967806617E+03  0.00000000000E+00 0.  1.
         21    1    1    2  503  502 -0.63059527339E+01 -0.20024759007E+02  0.55288945108E+01  0.21710013535E+02  0.00000000000E+00 0. -1.
          2    1    1    2  501    0 -0.29341506228E+02 -0.44539683383E+02  0.92303747160E+02  0.10660529594E+03  0.00000000000E+00 0. -1.
<scales pt_clust_5="13000.00000" pt_clust_6="13000.00000" pt_clust_7="13000.00000" pt_clust_8="13000.00000" pt_clust_9="20.99419" pt_clust_10="56.33270"></scales>
<clustering>
<clus scale="   20.994">  2  9  1 -1</clus>
<clus scale="   56.333">  1 10  2 -1</clus>
<clus scale="   90.512">  5  6 -1 -1</clus>
<clus scale="   91.329">  7  8 -1 -1</clus>
<clus scale="  119.440">  2  5  1 -1</clus>
<clus scale="   56.333">  1  5  2 -1</clus>
</clustering>
</event>
<event>
10    2  0.3984345E-006  0.1605755E+03  0.7546771E-02  0.1188086E+00
          2   -1    0    0  503    0 -0.00000000000E+00  0.00000000000E+00  0.28314329449E+03  0.28314329449E+03  0.00000000000E+00 0. -1.
         21   -1    0    0  501  502  0.00000000000E+00 -0.00000000000E+00 -0.36084406765E+03  0.36084406765E+03  0.00000000000E+00 0. -1.
         23    2    1    2    0    0  0.15888430455E+02  0.16842029047E+03  0.45276264948E+02  0.19714105704E+03  0.90536289635E+02 0.  0.
         23    2    1    2    0    0 -0.48944110490E+02 -0.97071843204E+02 -0.92171547031E+02  0.16872595403E+03  0.90301632255E+02 0.  0.
        -13    1    4    4    0    0 -0.30532269509E+02 -0.11015396057E+03 -0.91004981100E+02  0.14610962013E+03  0.00000000000E+00 0. -1.
         13    1    4    4    0    0 -0.18411840981E+02  0.13082117365E+02 -0.11665659306E+01  0.22616333901E+02  0.00000000000E+00 0.  1.
        -13    1    3    3    0    0  0.37831460714E+02  0.52446861711E+02 -0.12282000092E+02  0.65823553910E+02  0.00000000000E+00 0.  1.
         13    1    3    3    0    0 -0.21943030259E+02  0.11597342876E+03  0.57558265041E+02  0.13131750313E+03  0.00000000000E+00 0. -1.
         21    1    1    2  503  502 -0.11418792128E+02 -0.35989726328E+02  0.11531655445E+03  0.12134066485E+03  0.00000000000E+00 0.  1.
          2    1    1    2  501    0  0.44474472164E+02 -0.35358720937E+02 -0.14612204553E+03  0.15677968621E+03  0.00000000000E+00 0. -1.
<scales pt_clust_5="13000.00000" pt_clust_6="13000.00000" pt_clust_7="13000.00000" pt_clust_8="13000.00000" pt_clust_9="37.75777" pt_clust_10="57.26393"></scales>
<clustering>
<clus scale="   37.758">  1  9  2 -1</clus>
<clus scale="   57.264">  2 10  1 -1</clus>
<clus scale="   90.302">  5  6 -1 -1</clus>
<clus scale="   90.536">  7  8 -1 -1</clus>
<clus scale="  160.443">  2  5  1 -1</clus>
<clus scale="   57.264">  2  5  1 -1</clus>
</clustering>
</event>
<event>
10    2  0.3984345E-006  0.3072677E+03  0.7546771E-02  0.1081743E+00
          2   -1    0    0  503    0 -0.00000000000E+00  0.00000000000E+00  0.58344083170E+03  0.58344083170E+03  0.00000000000E+00 0. -1.
         21   -1    0    0  501  502  0.00000000000E+00 -0.00000000000E+00 -0.79658854213E+03  0.79658854213E+03  0.00000000000E+00 0. -1.
         23    2    1    2    0    0 -0.39028630809E+03  0.32692695424E+02 -0.21707509810E+03  0.45686683991E+03  0.90628343091E+02 0.  0.
         23    2    1    2    0    0  0.21547879017E+03  0.24712959388E+02 -0.29668221629E+03  0.37798365694E+03  0.88371194846E+02 0.  0.
        -13    1    4    4    0    0  0.11649273543E+03  0.31353593880E+02 -0.22596118742E+03  0.25614851839E+03  0.00000000000E+00 0.  1.
         13    1    4    4    0    0  0.98986054747E+02 -0.66406344921E+01 -0.70721028869E+02  0.12183513855E+03  0.00000000000E+00 0. -1.
        -13    1    3    3    0    0 -0.25593699446E+03 -0.19879988436E+02 -0.12316680497E+03  0.28472622099E+03  0.00000000000E+00 0.  1.
         13    1    3    3    0    0 -0.13434931364E+03  0.52572683860E+02 -0.93908293126E+02  0.17214061892E+03  0.00000000000E+00 0. -1.
         21    1    1    2  503  502  0.91421279700E+02 -0.11586406575E+03  0.38538190104E+03  0.41267607366E+03  0.00000000000E+00 0. -1.
          2    1    1    2  501    0  0.83386238218E+02  0.58458410941E+02 -0.84772297095E+02  0.13250280332E+03  0.00000000000E+00 0. -1.
<scales pt_clust_5="13000.00000" pt_clust_6="13000.00000" pt_clust_7="13000.00000" pt_clust_8="13000.00000" pt_clust_9="147.71641" pt_clust_10="101.83639"></scales>
<clustering>
<clus scale="   88.371">  5  6 -1 -1</clus>
<clus scale="   90.628">  7  8 -1 -1</clus>
<clus scale="  101.836">  2 10  1 -1</clus>
<clus scale="  147.716">  1  9  2 -1</clus>
<clus scale="  306.610">  2  5  1 -1</clus>
<clus scale="  101.836">  2  5  1 -1</clus>
</clustering>
</event>
<event>
10    2  0.3984345E-006  0.1030881E+03  0.7546771E-02  0.1275601E+00
         21   -1    0    0  501  502  0.00000000000E+00  0.00000000000E+00  0.33985680835E+02  0.33985680835E+02  0.00000000000E+00 0. -1.
          2   -1    0    0  503    0 -0.00000000000E+00 -0.00000000000E+00 -0.95039591994E+03  0.95039591994E+03  0.00000000000E+00 0. -1.
         23    2    1    2    0    0 -0.35582381994E+02  0.55194567234E+02 -0.54593081133E+03  0.55704038734E+03  0.89112267421E+02 0.  0.
         23    2    1    2    0    0  0.19156639333E+02 -0.14423804187E+02 -0.29339230317E+03  0.30863278448E+03  0.92736881224E+02 0.  0.
        -13    1    3    3    0    0  0.28906400873E+02  0.59464747536E+01 -0.13898416113E+03  0.14208285477E+03  0.00000000000E+00 0. -1.
         13    1    3    3    0    0 -0.64488782867E+02  0.49248092480E+02 -0.40694665020E+03  0.41495753257E+03  0.00000000000E+00 0.  1.
        -13    1    4    4    0    0  0.55870713380E+02 -0.12632734350E+02 -0.20622005811E+03  0.21402764998E+03  0.00000000000E+00 0. -1.
         13    1    4    4    0    0 -0.36714074048E+02 -0.17910698370E+01 -0.87172245062E+02  0.94605134498E+02  0.00000000000E+00 0.  1.
         21    1    1    2  503  502  0.23922009725E+02  0.26966321481E+01 -0.70012416720E+02  0.74035618923E+02  0.00000000000E+00 0.  1.
          2    1    1    2  501    0 -0.74962670633E+01 -0.43467395195E+02 -0.70747078867E+01  0.44672810037E+02  0.00000000000E+00 0. -1.
<scales pt_clust_5="13000.00000" pt_clust_6="13000.00000" pt_clust_7="13000.00000" pt_clust_8="13000.00000" pt_clust_9="24.07352" pt_clust_10="43.91630"></scales>
<clustering>
<clus scale="   24.074">  2  9  1 -1</clus>
<clus scale="   43.916">  1 10  2 -1</clus>
<clus scale="   89.112">  5  6 -1 -1</clus>
<clus scale="   92.737">  7  8 -1 -1</clus>
<clus scale="   99.840">  2  5  1 -1</clus>
<clus scale="   43.916">  1  5  2 -1</clus>
</clustering>
</event>
<event>
10    2  0.3984345E-006  0.1137791E+03  0.7546771E-02  0.1254188E+00
          1   -1    0    0  503    0 -0.00000000000E+00  0.00000000000E+00  0.11750679514E+03  0.11750679514E+03  0.00000000000E+00 0. -1.
         21   -1    0    0  501  502  0.00000000000E+00 -0.00000000000E+00 -0.63967826052E+03  0.63967826052E+03  0.00000000000E+00 0.  1.
         23    2    1    2    0    0  0.18519303414E+02  0.87399110597E+02  0.24259929047E+02  0.12933560882E+03  0.90319357938E+02 0.  0.
         23    2    1    2    0    0 -0.12350710264E+02 -0.22646397753E+02 -0.31058717920E+03  0.32484163273E+03  0.91609448753E+02 0.  0.
        -11    1    3    3    0    0 -0.36343533217E+01  0.10052039963E+03  0.13734343490E+02  0.10151941418E+03  0.00000000000E+00 0. -1.
         11    1    3    3    0    0  0.22153656735E+02 -0.13121289028E+02  0.10525585557E+02  0.27816194633E+02  0.00000000000E+00 0.  1.
        -13    1    4    4    0    0 -0.48032693052E+02 -0.76927761488E+01 -0.23439523464E+03  0.23938973334E+03  0.00000000000E+00 0.  1.
         13    1    4    4    0    0  0.35681982788E+02 -0.14953621604E+02 -0.76191944556E+02  0.85451899394E+02  0.00000000000E+00 0. -1.
         21    1    1    2  503  502  0.32541770192E+02 -0.31880561594E+02  0.14310121142E+02  0.47750566299E+02  0.00000000000E+00 0.  1.
          1    1    1    2  501    0 -0.38710363341E+02 -0.32872151251E+02 -0.25015433637E+03  0.25525724782E+03  0.00000000000E+00 0. -1.
<scales pt_clust_5="13000.00000" pt_clust_6="13000.00000" pt_clust_7="13000.00000" pt_clust_8="13000.00000" pt_clust_9="45.55587" pt_clust_10="50.67922"></scales>
<clustering>
<clus scale="   45.556">  1  9  2 -1</clus>
<clus scale="   50.679">  2 10  1 -1</clus>
<clus scale="   90.319">  5  6 -1 -1</clus>
<clus scale="   91.609">  7  8 -1 -1</clus>
<clus scale="  112.743">  1  5  2 -1</clus>
<clus scale="   50.679">  2  5  1 -1</clus>
</clustering>
</event>
<event>
10    2  0.3984345E-006  0.1380818E+03  0.7546771E-02  0.1228825E+00
          1   -1    0    0  503    0 -0.00000000000E+00  0.00000000000E+00  0.10878072683E+03  0.10878072683E+03  0.00000000000E+00 0. -1.
         21   -1    0    0  501  502  0.00000000000E+00 -0.00000000000E+00 -0.56153385157E+03  0.56153385157E+03  0.00000000000E+00 0.  1.
         23    2    1    2    0    0 -0.50265056851E+02 -0.95101361850E+01 -0.85533682906E+02  0.13498068108E+03  0.91031613863E+02 0.  0.
         23    2    1    2    0    0 -0.61983178970E+02  0.70858281233E+01 -0.11289829696E+01  0.10797087201E+03  0.88115328777E+02 0.  0.
        -11    1    4    4    0    0 -0.39074251214E+02  0.18559593116E+02 -0.41636511395E+02  0.60040442085E+02  0.00000000000E+00 0.  1.
         11    1    4    4    0    0 -0.22908927756E+02 -0.11473764993E+02  0.40507528426E+02  0.47930429929E+02  0.00000000000E+00 0. -1.
        -13    1    3    3    0    0  0.20592966338E+02  0.18785030482E+02 -0.18856299111E+02  0.33652750986E+02  0.00000000000E+00 0.  1.
         13    1    3    3    0    0 -0.70858023189E+02 -0.28295166667E+02 -0.66677383795E+02  0.10132793009E+03  0.00000000000E+00 0. -1.
         21    1    1    2  503  502  0.10695701890E+02 -0.53056414540E+02 -0.12818439631E+02  0.55620981269E+02  0.00000000000E+00 0. -1.
          1    1    1    2  501    0  0.10155253393E+03  0.55480722601E+02 -0.35327201923E+03  0.37174204403E+03  0.00000000000E+00 0. -1.
<scales pt_clust_5="13000.00000" pt_clust_6="13000.00000" pt_clust_7="13000.00000" pt_clust_8="13000.00000" pt_clust_9="54.12376" pt_clust_10="106.31210"></scales>
<clustering>
<clus scale="   54.124">  1  9  2 -1</clus>
<clus scale="   88.115">  5  6 -1 -1</clus>
<clus scale="   91.032">  7  8 -1 -1</clus>
<clus scale="  105.449">  1  7  2 -1</clus>
<clus scale="  106.312">  2 10  1 -1</clus>
<clus scale="  106.312">  2  5  1 -1</clus>
</clustering>
</event>
<event>
10    2  0.3984345E-006  0.1265026E+03  0.7546771E-02  0.1233269E+00
         -3   -1    0    0    0  501 -0.00000000000E+00  0.00000000000E+00  0.41445174536E+03  0.41445174536E+03  0.00000000000E+00 0.  1.
         21   -1    0    0  503  502  0.00000000000E+00 -0.00000000000E+00 -0.73441384569E+02  0.73441384569E+02  0.00000000000E+00 0.  1.
         23    2    1    2    0    0 -0.56326297862E+01 -0.87865976599E+02  0.13922919437E+03  0.18850684535E+03  0.91640088480E+02 0.  0.
         23    2    1    2    0    0 -0.15353225562E+02  0.77601838625E+02  0.65931357756E+02  0.13909374819E+03  0.93500587998E+02 0.  0.
        -13    1    3    3    0    0  0.38441272339E+02 -0.68579890148E+02  0.93116425650E+02  0.12186714683E+03  0.00000000000E+00 0.  1.
         13    1    3    3    0    0 -0.44073902125E+02 -0.19286086451E+02  0.46112768724E+02  0.66639698518E+02  0.00000000000E+00 0. -1.
        -13    1    4    4    0    0  0.29574677234E+02  0.48425982068E+01  0.39514874254E+02  0.49593725189E+02  0.00000000000E+00 0.  1.
         13    1    4    4    0    0 -0.44927902796E+02  0.72759240419E+02  0.26416483503E+02  0.89500022998E+02  0.00000000000E+00 0. -1.
         21    1    1    2  503  501  0.37768471973E+02 -0.73377098356E+01  0.12958801628E+03  0.13517896812E+03  0.00000000000E+00 0.  1.
         -3    1    1    2    0  502 -0.16782616625E+02  0.17601847809E+02  0.62617923835E+01  0.25113568264E+02  0.00000000000E+00 0.  1.
<scales pt_clust_5="13000.00000" pt_clust_6="13000.00000" pt_clust_7="13000.00000" pt_clust_8="13000.00000" pt_clust_9="37.61367" pt_clust_10="24.32039"></scales>
<clustering>
<clus scale="   24.320">  2 10  1 -1</clus>
<clus scale="   37.614">  1  9  2 -1</clus>
<clus scale="   91.640">  5  6 -1 -1</clus>
<clus scale="   93.501">  7  8 -1 -1</clus>
<clus scale="  125.134">  1  5  2 -1</clus>
<clus scale="   24.320">  2  5  1 -1</clus>
</clustering>
</event>
<event>
10    2  0.3984345E-006  0.1293091E+03  0.7546771E-02  0.1229267E+00
         21   -1    0    0  503  502  0.00000000000E+00  0.00000000000E+00  0.20244102049E+03  0.20244102049E+03  0.00000000000E+00 0.  1.
         -4   -1    0    0    0  501 -0.00000000000E+00 -0.00000000000E+00 -0.34720877010E+03  0.34720877010E+03  0.00000000000E+00 0.  1.
         23    2    1    2    0    0  0.10075802922E+03  0.40162621752E+01 -0.23346563792E+03  0.27064513237E+03  0.92597369150E+02 0.  0.
         23    2    1    2    0    0 -0.10450011977E+03 -0.83043422670E+01 -0.34026922410E+00  0.13795360468E+03  0.89676329817E+02 0.  0.
        -11    1    4    4    0    0 -0.25404773141E+02 -0.44169781180E+02 -0.32470450137E+01  0.51057960879E+02  0.00000000000E+00 0.  1.
         11    1    4    4    0    0 -0.79095346624E+02  0.35865438913E+02  0.29067757896E+01  0.86895643801E+02  0.00000000000E+00 0. -1.
        -13    1    3    3    0    0  0.13328186386E+02  0.20620657764E+02 -0.44587635293E+01  0.24954611821E+02  0.00000000000E+00 0. -1.
         13    1    3    3    0    0  0.87429842836E+02 -0.16604395588E+02 -0.22900687439E+03  0.24569052055E+03  0.00000000000E+00 0.  1.
         21    1    1    2  503  501 -0.22670006779E+02 -0.24387301005E+02 -0.98767012343E+01  0.34730662028E+02  0.00000000000E+00 0. -1.
         -4    1    1    2    0  502  0.26412097322E+02  0.28675381097E+02  0.98914858761E+02  0.10632039150E+03  0.00000000000E+00 0.  1.
<scales pt_clust_5="13000.00000" pt_clust_6="13000.00000" pt_clust_7="13000.00000" pt_clust_8="13000.00000" pt_clust_9="33.29669" pt_clust_10="38.60613"></scales>
<clustering>
<clus scale="   33.297">  2  9  1 -1</clus>
<clus scale="   38.606">  1 10  2 -1</clus>
<clus scale="   89.676">  5  6 -1 -1</clus>
<clus scale="   92.597">  7  8 -1 -1</clus>
<clus scale="  127.234">  1  5  2 -1</clus>
<clus scale="   38.606">  1  5  2 -1</clus>
</clustering>
</event>
<event>
10    2  0.3984345E-006  0.9759789E+02  0.7546771E-02  0.1287303E+00
          1   -1    0    0  503    0 -0.00000000000E+00  0.00000000000E+00  0.59473178850E+03  0.59473178850E+03  0.00000000000E+00 0. -1.
         21   -1    0    0  501  502  0.00000000000E+00 -0.00000000000E+00 -0.11906075595E+03  0.11906075595E+03  0.00000000000E+00 0. -1.
         23    2    1    2    0    0 -0.61993590807E+01 -0.44347838368E+02  0.27536693088E+03  0.29249127412E+03  0.87858044538E+02 0.  0.
         23    2    1    2    0    0 -0.52466060005E+02  0.66071421965E+01  0.19152270887E+03  0.21873593829E+03  0.91477433865E+02 0.  0.
        -11    1    4    4    0    0  0.24135563212E+02  0.15241966553E+02  0.49473649245E+02  0.57118166336E+02  0.00000000000E+00 0.  1.
         11    1    4    4    0    0 -0.76601623217E+02 -0.86348243569E+01  0.14204905962E+03  0.16161777195E+03  0.00000000000E+00 0. -1.
        -11    1    3    3    0    0 -0.13271130619E+02 -0.68688468651E+02  0.23136884223E+03  0.24171423167E+03  0.00000000000E+00 0. -1.
         11    1    3    3    0    0  0.70717715380E+01  0.24340630283E+02  0.43998088650E+02  0.50777042452E+02  0.00000000000E+00 0.  1.
         21    1    1    2  503  502  0.58812525546E+02  0.14546838487E+02  0.95335456135E+02  0.11295739404E+03  0.00000000000E+00 0.  1.
          1    1    1    2  501    0 -0.14710646043E+00  0.23193857684E+02 -0.86554063336E+02  0.89607938011E+02  0.00000000000E+00 0. -1.
<scales pt_clust_5="13000.00000" pt_clust_6="13000.00000" pt_clust_7="13000.00000" pt_clust_8="13000.00000" pt_clust_9="62.45829" pt_clust_10="23.19432"></scales>
<clustering>
<clus scale="   23.194">  2 10  1 -1</clus>
<clus scale="   62.458">  2  9  1 -1</clus>
<clus scale="   87.858">  7  8 -1 -1</clus>
<clus scale="   91.477">  5  6 -1 -1</clus>
<clus scale="   94.214">  1  7  2 -1</clus>
<clus scale="   23.194">  2  5  1 -1</clus>
</clustering>
</event>
<event>
10    2  0.3984345E-006  0.1220625E+03  0.7546771E-02  0.1245163E+00
         21   -1    0    0  501  502  0.00000000000E+00  0.00000000000E+00  0.13123543975E+03  0.13123543975E+03  0.00000000000E+00 0.  1.
          1   -1    0    0  503    0 -0.00000000000E+00 -0.00000000000E+00 -0.32294761365E+03  0.32294761365E+03  0.00000000000E+00 0. -1.
         23    2    1    2    0    0 -0.42703280713E+02  0.21998706228E+02 -0.47184054314E+02  0.11394173302E+03  0.91917736493E+02 0.  0.
         23    2    1    2    0    0  0.13751830734E+03 -0.21006229190E+02 -0.19149395057E+02  0.15883762233E+03  0.74230347010E+02 0.  0.
        -11    1    3    3    0    0 -0.29302338567E+02  0.57976631481E+02 -0.34195541211E+02  0.73411524178E+02  0.00000000000E+00 0.  1.
         11    1    3    3    0    0 -0.13400942145E+02 -0.35977925253E+02 -0.12988513103E+02  0.40530208839E+02  0.00000000000E+00 0. -1.
        -13    1    4    4    0    0  0.11437086723E+03 -0.32982884276E+02  0.10342281347E+02  0.11948024401E+03  0.00000000000E+00 0.  1.
         13    1    4    4    0    0  0.23147440112E+02  0.11976655086E+02 -0.29491676404E+02  0.39357378316E+02  0.00000000000E+00 0. -1.
         21    1    1    2  503  502 -0.20584082939E+02 -0.38532253348E+02 -0.66209611483E+02  0.79323084101E+02  0.00000000000E+00 0.  1.
          1    1    1    2  501    0 -0.74230943690E+02  0.37539776310E+02 -0.59169113048E+02  0.10208061395E+03  0.00000000000E+00 0. -1.
<scales pt_clust_5="13000.00000" pt_clust_6="13000.00000" pt_clust_7="13000.00000" pt_clust_8="13000.00000" pt_clust_9="43.68568" pt_clust_10="84.67701"></scales>
<clustering>
<clus scale="   43.686">  2  9  1 -1</clus>
<clus scale="   74.230">  7  8 -1 -1</clus>
<clus scale="   84.677">  1 10  2 -1</clus>
<clus scale="   91.918">  5  6 -1 -1</clus>
<clus scale="  109.364">  1  7  2 -1</clus>
<clus scale="   84.677">  1  5  2 -1</clus>
</clustering>
</event>
<event>
10    2  0.3984345E-006  0.1508824E+03  0.7546771E-02  0.1199530E+00
         21   -1    0    0  501  502  0.00000000000E+00  0.00000000000E+00  0.22509896372E+03  0.22509896372E+03  0.00000000000E+00 0.  1.
          1   -1    0    0  503    0 -0.00000000000E+00 -0.00000000000E+00 -0.61091003410E+03  0.61091003410E+03  0.00000000000E+00 0. -1.
         23    2    1    2    0    0  0.68139778996E+02 -0.12013425191E+02 -0.59896352695E+02  0.12868547929E+03  0.90471142629E+02 0.  0.
         23    2    1    2    0    0 -0.16983319247E+03  0.94423224850E+02  0.89410746882E+02  0.23195558458E+03  0.89722087050E+02 0.  0.
        -11    1    3    3    0    0  0.12554555365E+02  0.17481856584E+02  0.18344361244E+02  0.28279811871E+02  0.00000000000E+00 0.  1.
         11    1    3    3    0    0  0.55585223631E+02 -0.29495281775E+02 -0.78240713939E+02  0.10040566742E+03  0.00000000000E+00 0. -1.
        -13    1    4    4    0    0 -0.77426275360E+02  0.84900630673E+02  0.21536304253E+02  0.11690490839E+03  0.00000000000E+00 0. -1.
         13    1    4    4    0    0 -0.92406917113E+02  0.95225941768E+01  0.67874442629E+02  0.11505067619E+03  0.00000000000E+00 0.  1.
         21    1    1    2  503  502  0.67244054150E+02 -0.27475358662E+02 -0.40283671651E+03  0.40933370044E+03  0.00000000000E+00 0. -1.
          1    1    1    2  501    0  0.34449359327E+02 -0.54934440997E+02 -0.12488748065E+02  0.66034233500E+02  0.00000000000E+00 0. -1.
<scales pt_clust_5="13000.00000" pt_clust_6="13000.00000" pt_clust_7="13000.00000" pt_clust_8="13000.00000" pt_clust_9="73.50590" pt_clust_10="64.84251"></scales>
<clustering>
<clus scale="   64.843">  1 10  2 -1</clus>
<clus scale="   73.506">  2  9  1 -1</clus>
<clus scale="   89.722">  7  8 -1 -1</clus>
<clus scale="   90.471">  5  6 -1 -1</clus>
<clus scale="  150.434">  1  7  2 -1</clus>
<clus scale="   64.843">  1  5  2 -1</clus>
</clustering>
</event>
<event>
10    2  0.3984345E-006  0.2055654E+03  0.7546771E-02  0.1166934E+00
         21   -1    0    0  501  502  0.00000000000E+00  0.00000000000E+00  0.12683651958E+04  0.12683651958E+04  0.00000000000E+00 0. -1.
          3   -1    0    0  503    0 -0.00000000000E+00 -0.00000000000E+00 -0.22157676183E+03  0.22157676183E+03  0.00000000000E+00 0. -1.
         23    2    1    2    0    0  0.10127133911E+02  0.54196886909E+02  0.35402962285E+02  0.11296846544E+03  0.92025230525E+02 0.  0.
         23    2    1    2    0    0 -0.18803958338E+03  0.13262129153E+00  0.80729230253E+02  0.22295280177E+03  0.88497687508E+02 0.  0.
        -11    1    3    3    0    0  0.31284489177E+02 -0.97648735642E+01 -0.68000563645E+01  0.33471073860E+02  0.00000000000E+00 0.  1.
         11    1    3    3    0    0 -0.21157355266E+02  0.63961760473E+02  0.42203018650E+02  0.79497391579E+02  0.00000000000E+00 0. -1.
        -13    1    4    4    0    0 -0.15199469965E+03  0.28841812837E+02  0.36228674050E+02  0.15889227707E+03  0.00000000000E+00 0. -1.
         13    1    4    4    0    0 -0.36044883726E+02 -0.28709191546E+02  0.44500556203E+02  0.64060524697E+02  0.00000000000E+00 0.  1.
         21    1    1    2  503  502  0.38062644470E+02  0.75594352857E+02 -0.85372746375E+02  0.12021554355E+03  0.00000000000E+00 0. -1.
          3    1    1    2  501    0  0.13984980500E+03 -0.12992386106E+03  0.10160289878E+04  0.10338051468E+04  0.00000000000E+00 0. -1.
<scales pt_clust_5="13000.00000" pt_clust_6="13000.00000" pt_clust_7="13000.00000" pt_clust_8="13000.00000" pt_clust_9="84.63611" pt_clust_10="185.54051"></scales>
<clustering>
<clus scale="   84.636">  2  9  1 -1</clus>
<clus scale="   88.498">  7  8 -1 -1</clus>
<clus scale="   92.025">  5  6 -1 -1</clus>
<clus scale="  123.285">  2  5  1 -1</clus>
<clus scale="  185.541">  1 10  2 -1</clus>
<clus scale="  185.541">  1  5  2 -1</clus>
</clustering>
</event>
<event>
10    2  0.3984345E-006  0.9258595E+02  0.7546771E-02  0.1297417E+00
         -1   -1    0    0    0  501 -0.00000000000E+00  0.00000000000E+00  0.31723300435E+03  0.31723300435E+03  0.00000000000E+00 0.  1.
         21   -1    0    0  503  502  0.00000000000E+00 -0.00000000000E+00 -0.13274541188E+03  0.13274541188E+03  0.00000000000E+00 0.  1.
         23    2    1    2    0    0  0.26029829812E+02 -0.12624025115E+02  0.17418434668E+03  0.19900049297E+03  0.91782849840E+02 0.  0.
         23    2    1    2    0    0  0.41170812683E+02  0.64426220661E+01  0.58287565349E+02  0.11547985571E+03  0.90562760582E+02 0.  0.
        -11    1    4    4    0    0  0.25386554092E+02 -0.23424856966E+02 -0.12748569339E+02  0.36820199249E+02  0.00000000000E+00 0. -1.
         11    1    4    4    0    0  0.15784258591E+02  0.29867479032E+02  0.71036134688E+02  0.78659656460E+02  0.00000000000E+00 0.  1.
        -13    1    3    3    0    0  0.85856471303E+00  0.23971634564E+02  0.14234246391E+03  0.14434941437E+03  0.00000000000E+00 0.  1.
         13    1    3    3    0    0  0.25171265099E+02 -0.36595659680E+02  0.31841882772E+02  0.54651078603E+02  0.00000000000E+00 0. -1.
         21    1    1    2  503  501 -0.49522469408E+02  0.16065736905E+02  0.26422198181E+02  0.58384205357E+02  0.00000000000E+00 0.  1.
         -1    1    1    2    0  502 -0.17678173088E+02 -0.98843338559E+01 -0.74406517742E+02  0.77113862190E+02  0.00000000000E+00 0.  1.
<scales pt_clust_5="13000.00000" pt_clust_6="13000.00000" pt_clust_7="13000.00000" pt_clust_8="13000.00000" pt_clust_9="56.07862" pt_clust_10="20.25384"></scales>
<clustering>
<clus scale="   20.254">  2 10  1 -1</clus>
<clus scale="   56.079">  2  9  1 -1</clus>
<clus scale="   90.563">  5  6 -1 -1</clus>
<clus scale="   91.377">  2  5  1 -1</clus>
<clus scale="   91.783">  7  8 -1 -1</clus>
<clus scale="   20.254">  2  5  1 -1</clus>
</clustering>
</event>
<event>
10    2  0.3984345E-006  0.9413762E+02  0.7546771E-02  0.1294128E+00
          3   -1    0    0  503    0 -0.00000000000E+00  0.00000000000E+00  0.28571865539E+03  0.28571865539E+03  0.00000000000E+00 0. -1.
         21   -1    0    0  501  502  0.00000000000E+00 -0.00000000000E+00 -0.15167380761E+03  0.15167380761E+03  0.00000000000E+00 0. -1.
         23    2    1    2    0    0  0.18462083145E+00  0.75540615210E+01  0.72316892863E+02  0.11676060399E+03  0.91357581625E+02 0.  0.
         23    2    1    2    0    0  0.32615773852E+02 -0.15236006800E+02 -0.14595744548E+02  0.97632267912E+02  0.89571755434E+02 0.  0.
        -11    1    3    3    0    0  0.32784201166E+02  0.35757774984E+02  0.36349001248E+02  0.60619074635E+02  0.00000000000E+00 0.  1.
         11    1    3    3    0    0 -0.32599580334E+02 -0.28203713463E+02  0.35967891614E+02  0.56141529354E+02  0.00000000000E+00 0. -1.
        -11    1    4    4    0    0 -0.25219966997E+02 -0.25700675555E+02  0.33897917035E+01  0.36167141816E+02  0.00000000000E+00 0. -1.
         11    1    4    4    0    0  0.57835740849E+02  0.10464668755E+02 -0.17985536252E+02  0.61465126096E+02  0.00000000000E+00 0.  1.
         21    1    1    2  503  502 -0.33550061465E+02 -0.22096831030E+02  0.14376511192E+03  0.14927251579E+03  0.00000000000E+00 0. -1.
          3    1    1    2  501    0  0.74966678194E+00  0.29778776308E+02 -0.67441412452E+02  0.73727075299E+02  0.00000000000E+00 0. -1.
<scales pt_clust_5="13000.00000" pt_clust_6="13000.00000" pt_clust_7="13000.00000" pt_clust_8="13000.00000" pt_clust_9="39.60430" pt_clust_10="29.78821"></scales>
<clustering>
<clus scale="   29.788">  2 10  1 -1</clus>
<clus scale="   39.604">  1  9  2 -1</clus>
<clus scale="   89.572">  7  8 -1 -1</clus>
<clus scale="   91.358">  5  6 -1 -1</clus>
<clus scale="   92.406">  2  7  1 -1</clus>
<clus scale="   29.788">  2  5  1 -1</clus>
</clustering>
</event>
<event>
10    2  0.3984345E-006  0.1192770E+03  0.7546771E-02  0.1244912E+00
         21   -1    0    0  501  502  0.00000000000E+00  0.00000000000E+00  0.85398380970E+02  0.85398380970E+02  0.00000000000E+00 0. -1.
          2   -1    0    0  503    0 -0.00000000000E+00 -0.00000000000E+00 -0.64533993477E+03  0.64533993477E+03  0.00000000000E+00 0. -1.
         23    2    1    2    0    0  0.25247706448E+02  0.96239861930E+02 -0.42682745777E+03  0.44746386015E+03  0.90236742672E+02 0.  0.
         23    2    1    2    0    0  0.25925768168E+02 -0.36098048776E+02 -0.66386231787E+02  0.11906045685E+03  0.88278230799E+02 0.  0.
        -11    1    3    3    0    0 -0.28225065665E+02  0.55921980073E+01 -0.10454676560E+03  0.10843409615E+03  0.00000000000E+00 0.  1.
         11    1    3    3    0    0  0.53472772113E+02  0.90647663923E+02 -0.32228069217E+03  0.33902976400E+03  0.00000000000E+00 0. -1.
        -13    1    4    4    0    0  0.45199928157E+02 -0.16648707545E+02 -0.76051757797E+02  0.90022679545E+02  0.00000000000E+00 0. -1.
         13    1    4    4    0    0 -0.19274159988E+02 -0.19449341231E+02  0.96655260102E+01  0.29037777302E+02  0.00000000000E+00 0.  1.
         21    1    1    2  503  502 -0.42533925177E+02  0.36419968517E+01 -0.86850974379E+02  0.96775465293E+02  0.00000000000E+00 0. -1.
          2    1    1    2  501    0 -0.86395494394E+01 -0.63783810005E+02  0.20123110132E+02  0.67438533456E+02  0.00000000000E+00 0. -1.
<scales pt_clust_5="13000.00000" pt_clust_6="13000.00000" pt_clust_7="13000.00000" pt_clust_8="13000.00000" pt_clust_9="42.68956" pt_clust_10="64.48178"></scales>
<clustering>
<clus scale="   42.690">  2  9  1 -1</clus>
<clus scale="   64.482">  1 10  2 -1</clus>
<clus scale="   88.278">  7  8 -1 -1</clus>
<clus scale="   90.237">  5  6 -1 -1</clus>
<clus scale="  117.802">  1  7  2 -1</clus>
<clus scale="   64.482">  1  5  2 -1</clus>
</clustering>
</event>
<event>
10    2  0.3984345E-006  0.9867522E+02  0.7546771E-02  0.1283282E+00
         21   -1    0    0  501  502  0.00000000000E+00  0.00000000000E+00  0.17892223637E+03  0.17892223637E+03  0.00000000000E+00 0.  1.
          2   -1    0    0  503    0 -0.00000000000E+00 -0.00000000000E+00 -0.18231185036E+03  0.18231185036E+03  0.00000000000E+00 0. -1.
         23    2    1    2    0    0 -0.58269227238E+02  0.10479344474E+01 -0.79686174126E+02  0.13402897038E+03  0.90650303608E+02 0.  0.
         23    2    1    2    0    0  0.48483822789E+02 -0.18858562225E+02  0.78745369302E+02  0.13061492008E+03  0.90294505478E+02 0.  0.
        -11    1    3    3    0    0 -0.36821185180E+02 -0.34661048664E+01 -0.98455511788E+02  0.10517272157E+03  0.00000000000E+00 0. -1.
         11    1    3    3    0    0 -0.21448042058E+02  0.45140393138E+01  0.18769337661E+02  0.28856248809E+02  0.00000000000E+00 0.  1.
        -13    1    4    4    0    0  0.58394814439E+02 -0.41834750326E+02  0.77338774715E+02  0.10555276767E+03  0.00000000000E+00 0.  1.
         13    1    4    4    0    0 -0.99109916498E+01  0.22976188101E+02  0.14065945870E+01  0.25062152411E+02  0.00000000000E+00 0. -1.
         21    1    1    2  503  502  0.44862597274E+02  0.29190119907E+02 -0.18140456370E+02  0.56513643412E+02  0.00000000000E+00 0.  1.
          2    1    1    2  501    0 -0.35077192825E+02 -0.11379492130E+02  0.15691647206E+02  0.40076552866E+02  0.00000000000E+00 0. -1.
<scales pt_clust_5="13000.00000" pt_clust_6="13000.00000" pt_clust_7="13000.00000" pt_clust_8="13000.00000" pt_clust_9="49.01491" pt_clust_10="36.87685"></scales>
<clustering>
<clus scale="   36.877">  1 10  2 -1</clus>
<clus scale="   49.015">  2  9  1 -1</clus>
<clus scale="   90.295">  7  8 -1 -1</clus>
<clus scale="   90.650">  5  6 -1 -1</clus>
<clus scale="   98.348">  1  7  2 -1</clus>
<clus scale="   36.877">  1  5  2 -1</clus>
</clustering>
</event>
<event>
10    2  0.3984345E-006  0.1062286E+03  0.7546771E-02  0.1269670E+00
         21   -1    0    0  501  502  0.00000000000E+00  0.00000000000E+00  0.13795692441E+03  0.13795692441E+03  0.00000000000E+00 0. -1.
          1   -1    0    0  503    0 -0.00000000000E+00 -0.00000000000E+00 -0.28254130065E+03  0.28254130065E+03  0.00000000000E+00 0. -1.
         23    2    1    2    0    0  0.44665925906E+02  0.17581764278E+02 -0.18888228614E+03  0.21524578172E+03  0.91378690954E+02 0.  0.
         23    2    1    2    0    0 -0.19113033866E+02 -0.46207017493E+02  0.16122702761E+01  0.10805264161E+03  0.95772529536E+02 0.  0.
        -11    1    4    4    0    0  0.19555766594E+01  0.22767437573E+02  0.23406048250E+02  0.32711215025E+02  0.00000000000E+00 0.  1.
         11    1    4    4    0    0 -0.21068610525E+02 -0.68974455066E+02 -0.21793777974E+02  0.75341426582E+02  0.00000000000E+00 0. -1.
        -11    1    3    3    0    0 -0.27376303659E+02 -0.28186015087E+01 -0.63514492188E+02  0.69220641679E+02  0.00000000000E+00 0.  1.
         11    1    3    3    0    0  0.72042229565E+02  0.20400365786E+02 -0.12536779395E+03  0.14602514004E+03  0.00000000000E+00 0. -1.
         21    1    1    2  503  502 -0.19249838438E+01  0.27530446198E+02 -0.17400758942E+02  0.32625410992E+02  0.00000000000E+00 0. -1.
          1    1    1    2  501    0 -0.23627908196E+02  0.10948070171E+01  0.60086398562E+02  0.64574390746E+02  0.00000000000E+00 0. -1.
<scales pt_clust_5="13000.00000" pt_clust_6="13000.00000" pt_clust_7="13000.00000" pt_clust_8="13000.00000" pt_clust_9="27.97362" pt_clust_10="23.65326"></scales>
<clustering>
<clus scale="   23.653">  1 10  2 -1</clus>
<clus scale="   27.974">  1  9  2 -1</clus>
<clus scale="   91.379">  7  8 -1 -1</clus>
<clus scale="   95.773">  5  6 -1 -1</clus>
<clus scale="  102.285">  2  7  1 -1</clus>
<clus scale="   23.653">  1  5  2 -1</clus>
</clustering>
</event>
<event>
10    2  0.3984345E-006  0.1287234E+03  0.7546771E-02  0.1229934E+00
          2   -1    0    0  503    0 -0.00000000000E+00  0.00000000000E+00  0.41103140442E+03  0.41103140442E+03  0.00000000000E+00 0. -1.
         21   -1    0    0  501  502  0.00000000000E+00 -0.00000000000E+00 -0.67141403889E+02  0.67141403889E+02  0.00000000000E+00 0.  1.
         23    2    1    2    0    0  0.44690851432E+02  0.59308213850E+02  0.15602600518E+03  0.19547637465E+03  0.91390165350E+02 0.  0.
         23    2    1    2    0    0 -0.10241908977E+03 -0.49155939543E+02  0.12003709078E+03  0.18782962543E+03  0.89247345520E+02 0.  0.
        -11    1    4    4    0    0 -0.55164010293E+02 -0.17962495435E+01  0.58708643101E+01  0.55504608744E+02  0.00000000000E+00 0.  1.
         11    1    4    4    0    0 -0.47255079480E+02 -0.47359690000E+02  0.11416622647E+03  0.13232501668E+03  0.00000000000E+00 0. -1.
        -11    1    3    3    0    0  0.13004672158E+02  0.75184246380E+02  0.13262376964E+03  0.15300606744E+03  0.00000000000E+00 0. -1.
         11    1    3    3    0    0  0.31686179274E+02 -0.15876032530E+02  0.23402235538E+02  0.42470307205E+02  0.00000000000E+00 0.  1.
         21    1    1    2  503  502  0.29857917543E+02 -0.41483192290E+01  0.56791207044E+02  0.64295761834E+02  0.00000000000E+00 0.  1.
          2    1    1    2  501    0  0.27870320798E+02 -0.60039550779E+01  0.11035697532E+02  0.30571046400E+02  0.00000000000E+00 0. -1.
<scales pt_clust_5="13000.00000" pt_clust_6="13000.00000" pt_clust_7="13000.00000" pt_clust_8="13000.00000" pt_clust_9="32.00444" pt_clust_10="28.50969"></scales>
<clustering>
<clus scale="   28.510">  2 10  1 -1</clus>
<clus scale="   32.004">  1  9  2 -1</clus>
<clus scale="   89.247">  5  6 -1 -1</clus>
<clus scale="   91.390">  7  8 -1 -1</clus>
<clus scale="  127.211">  2  5  1 -1</clus>
<clus scale="   28.510">  2  5  1 -1</clus>
</clustering>
</event>
<event>
10    2  0.3984345E-006  0.1415938E+03  0.7546771E-02  0.1234187E+00
          2   -1    0    0  502    0 -0.00000000000E+00  0.00000000000E+00  0.93119573795E+03  0.93119573795E+03  0.00000000000E+00 0. -1.
         21   -1    0    0  503  502  0.00000000000E+00 -0.00000000000E+00 -0.42989736425E+02  0.42989736425E+02  0.00000000000E+00 0.  1.
         23    2    1    2    0    0 -0.10403099956E+02 -0.41994061352E+02  0.42492178214E+03  0.43385152052E+03  0.76137344619E+02 0.  0.
         23    2    1    2    0    0 -0.10228212056E+03  0.53026496128E+02  0.17637861412E+03  0.22757637738E+03  0.86070613729E+02 0.  0.
        -11    1    4    4    0    0 -0.93943901221E+02  0.99087401351E+01  0.14701143490E+03  0.17474553413E+03  0.00000000000E+00 0.  1.
         11    1    4    4    0    0 -0.83382193385E+01  0.43117755993E+02  0.29367179219E+02  0.52830843254E+02  0.00000000000E+00 0. -1.
        -13    1    3    3    0    0 -0.93080007869E+01 -0.64166236624E+02  0.29439348033E+03  0.30144894437E+03  0.00000000000E+00 0.  1.
         13    1    3    3    0    0 -0.10950991695E+01  0.22172175273E+02  0.13052830180E+03  0.13240257615E+03  0.00000000000E+00 0. -1.
         21    1    1    2  503  501  0.52020441753E+02 -0.29039173934E+02  0.16461477756E+03  0.17506405963E+03  0.00000000000E+00 0.  1.
          2    1    1    2  501    0  0.60664778763E+02  0.18006739157E+02  0.12229082770E+03  0.13769351683E+03  0.00000000000E+00 0. -1.
<scales pt_clust_5="13000.00000" pt_clust_6="13000.00000" pt_clust_7="13000.00000" pt_clust_8="13000.00000" pt_clust_9="50.25706" pt_clust_10="123.78804"></scales>
<clustering>
<clus scale="   50.257">  9 10 -1 -1</clus>
<clus scale="   76.137">  7  8 -1 -1</clus>
<clus scale="   86.071">  5  6 -1 -1</clus>
<clus scale="   87.571">  1  7  2 -1</clus>
<clus scale="  123.788">  2  9  1 -1</clus>
<clus scale="  123.788">  2  5  1 -1</clus>
</clustering>
</event>
<event>
10    2  0.3984345E-006  0.1274742E+03  0.7546771E-02  0.1231930E+00
         -2   -1    0    0    0  501 -0.00000000000E+00  0.00000000000E+00  0.27322022246E+03  0.27322022246E+03  0.00000000000E+00 0.  1.
         21   -1    0    0  503  502  0.00000000000E+00 -0.00000000000E+00 -0.14298447622E+03  0.14298447622E+03  0.00000000000E+00 0.  1.
         23    2    1    2    0    0  0.73605670808E+02  0.28355889856E+01  0.11285647944E+03  0.16141964570E+03  0.88847519522E+02 0.  0.
         23    2    1    2    0    0 -0.91864726893E+02 -0.36137790318E+02  0.44684935750E+02  0.14171452727E+03  0.91330147384E+02 0.  0.
        -13    1    4    4    0    0 -0.43441587137E+02  0.16275976593E+02 -0.14926995422E+02  0.48732885195E+02  0.00000000000E+00 0. -1.
         13    1    4    4    0    0 -0.48423139756E+02 -0.52413766911E+02  0.59611931172E+02  0.92981642079E+02  0.00000000000E+00 0.  1.
        -13    1    3    3    0    0  0.42500097918E+02  0.45384790488E+02  0.68715582016E+02  0.92670754515E+02  0.00000000000E+00 0.  1.
         13    1    3    3    0    0  0.31105572890E+02 -0.42549201502E+02  0.44140897427E+02  0.68748891184E+02  0.00000000000E+00 0. -1.
         21    1    1    2  503  501  0.35524705905E+02  0.47212137725E+01  0.30006487395E+02  0.46740601996E+02  0.00000000000E+00 0.  1.
         -2    1    1    2    0  502 -0.17265649820E+02  0.28580987559E+02 -0.57312156346E+02  0.66329923705E+02  0.00000000000E+00 0.  1.
<scales pt_clust_5="13000.00000" pt_clust_6="13000.00000" pt_clust_7="13000.00000" pt_clust_8="13000.00000" pt_clust_9="34.60497" pt_clust_10="33.39125"></scales>
<clustering>
<clus scale="   33.391">  2 10  1 -1</clus>
<clus scale="   34.605">  1  9  2 -1</clus>
<clus scale="   88.848">  7  8 -1 -1</clus>
<clus scale="   91.330">  5  6 -1 -1</clus>
<clus scale="  125.707">  1  7  2 -1</clus>
<clus scale="   33.391">  2  5  1 -1</clus>
</clustering>
</event>
<event>
10    2  0.3984345E-006  0.1353477E+03  0.7546771E-02  0.1220900E+00
         -1   -1    0    0    0  501 -0.00000000000E+00  0.00000000000E+00  0.45221638500E+03  0.45221638500E+03  0.00000000000E+00 0.  1.
         21   -1    0    0  503  502  0.00000000000E+00 -0.00000000000E+00 -0.14186725092E+03  0.14186725092E+03  0.00000000000E+00 0.  1.
         23    2    1    2    0    0  0.67545549047E+02 -0.34414474268E+02  0.19265482227E+03  0.22606952080E+03  0.90800828497E+02 0.  0.
         23    2    1    2    0    0 -0.53296615935E+02  0.24311070559E+02 -0.76482806593E+02  0.13566088321E+03  0.95512816450E+02 0.  0.
        -11    1    3    3    0    0  0.82144230266E+02 -0.11470710368E+02  0.17496289466E+03  0.19362661560E+03  0.00000000000E+00 0.  1.
         11    1    3    3    0    0 -0.14598681218E+02 -0.22943763900E+02  0.17691927617E+02  0.32442905203E+02  0.00000000000E+00 0. -1.
        -11    1    4    4    0    0 -0.34281853920E+01  0.41473636917E+02 -0.71445479356E+02  0.82681748498E+02  0.00000000000E+00 0. -1.
         11    1    4    4    0    0 -0.49868430543E+02 -0.17162566359E+02 -0.50373272376E+01  0.52979134709E+02  0.00000000000E+00 0.  1.
         21    1    1    2  503  501  0.40939013382E+02 -0.36611386729E+02  0.92770809348E+02  0.10780918107E+03  0.00000000000E+00 0. -1.
         -1    1    1    2    0  502 -0.55187946495E+02  0.46714790438E+02  0.10140630906E+03  0.12454405084E+03  0.00000000000E+00 0.  1.
<scales pt_clust_5="13000.00000" pt_clust_6="13000.00000" pt_clust_7="13000.00000" pt_clust_8="13000.00000" pt_clust_9="54.92173" pt_clust_10="54.68250"></scales>
<clustering>
<clus scale="   54.922">  1  9  2 -1</clus>
<clus scale="   54.683">  2 10  1 -1</clus>
<clus scale="   90.801">  5  6 -1 -1</clus>
<clus scale="   95.513">  7  8 -1 -1</clus>
<clus scale="  132.065">  1  5  2 -1</clus>
<clus scale="   54.683">  2  5  1 -1</clus>
</clustering>
</event>
<event>
10    2  0.3984345E-006  0.1671013E+03  0.7546771E-02  0.1181375E+00
         21   -1    0    0  501  502  0.00000000000E+00  0.00000000000E+00  0.43984765257E+03  0.43984765257E+03  0.00000000000E+00 0. -1.
          2   -1    0    0  503    0 -0.00000000000E+00 -0.00000000000E+00 -0.14379886175E+03  0.14379886175E+03  0.00000000000E+00 0. -1.
         23    2    1    2    0    0  0.46274850137E+02 -0.11448549190E+03 -0.23922588130E+02  0.15473551491E+03  0.90124911874E+02 0.  0.
         23    2    1    2    0    0 -0.12015721703E+03  0.83908450318E+02  0.21997207061E+03  0.28030653496E+03  0.93304109507E+02 0.  0.
        -11    1    4    4    0    0 -0.98417434228E+02  0.10421809256E+03  0.19073549923E+03  0.23859470414E+03  0.00000000000E+00 0.  1.
         11    1    4    4    0    0 -0.21739782805E+02 -0.20309642237E+02  0.29236571381E+02  0.41711830820E+02  0.00000000000E+00 0. -1.
        -11    1    3    3    0    0  0.12314588738E+02 -0.21406961541E+02  0.32420600719E+02  0.40755397792E+02  0.00000000000E+00 0.  1.
         11    1    3    3    0    0  0.33960261400E+02 -0.93078530363E+02 -0.56343188849E+02  0.11398011712E+03  0.00000000000E+00 0. -1.
         21    1    1    2  503  502  0.63296543000E+02  0.12474452863E+02  0.22511008331E+02  0.68328689626E+02  0.00000000000E+00 0.  1.
          2    1    1    2  501    0  0.10585823896E+02  0.18102588722E+02  0.77488300010E+02  0.80275774830E+02  0.00000000000E+00 0. -1.
<scales pt_clust_5="13000.00000" pt_clust_6="13000.00000" pt_clust_7="13000.00000" pt_clust_8="13000.00000" pt_clust_9="66.29086" pt_clust_10="20.97054"></scales>
<clustering>
<clus scale="   20.971">  1 10  2 -1</clus>
<clus scale="   66.291">  2  9  1 -1</clus>
<clus scale="   90.125">  7  8 -1 -1</clus>
<clus scale="   93.304">  5  6 -1 -1</clus>
<clus scale="  165.347">  2  7  1 -1</clus>
<clus scale="   20.971">  1  5  2 -1</clus>
</clustering>
</event>
<event>
10    2  0.3984345E-006  0.2431599E+03  0.7546771E-02  0.1118787E+00
         21   -1    0    0  501  502  0.00000000000E+00  0.00000000000E+00  0.67345689261E+03  0.67345689261E+03  0.00000000000E+00 0. -1.
          2   -1    0    0  503    0 -0.00000000000E+00 -0.00000000000E+00 -0.18293331959E+03  0.18293331959E+03  0.00000000000E+00 0.  1.
         23    2    1    2    0    0  0.10933702460E+03  0.18614712037E+03  0.32940946850E+02  0.23809797752E+03  0.94869413143E+02 0.  0.
         23    2    1    2    0    0 -0.12348599316E+03 -0.20642352645E+03  0.45664586504E+03  0.52773960319E+03  0.11010985396E+03 0.  0.
        -11    1    4    4    0    0 -0.27237117551E+02  0.73670927212E+01  0.71197731935E+02  0.76584931026E+02  0.00000000000E+00 0.  1.
         11    1    4    4    0    0 -0.96248875605E+02 -0.21379061917E+03  0.38544813310E+03  0.45115467216E+03  0.00000000000E+00 0. -1.
        -13    1    3    3    0    0  0.82260921851E+02  0.52528565280E+02 -0.98186810837E+00  0.97606728760E+02  0.00000000000E+00 0. -1.
         13    1    3    3    0    0  0.27076102750E+02  0.13361855509E+03  0.33922814958E+02  0.14049124876E+03  0.00000000000E+00 0.  1.
         21    1    1    2  503  502 -0.21712658564E+02  0.24010834712E+01 -0.31957582573E+02  0.38710358144E+02  0.00000000000E+00 0. -1.
          2    1    1    2  501    0  0.35861627119E+02  0.17875322611E+02  0.32894343708E+02  0.51842273349E+02  0.00000000000E+00 0.  1.
<scales pt_clust_5="13000.00000" pt_clust_6="13000.00000" pt_clust_7="13000.00000" pt_clust_8="13000.00000" pt_clust_9="21.84502" pt_clust_10="38.89861"></scales>
<clustering>
<clus scale="   21.845">  2  9  1 -1</clus>
<clus scale="   38.899">  1 10  2 -1</clus>
<clus scale="   94.869">  7  8 -1 -1</clus>
<clus scale="  110.110">  5  6 -1 -1</clus>
<clus scale="  236.649">  2  7  1 -1</clus>
<clus scale="   38.899">  1  5  2 -1</clus>
</clustering>
</event>
<event>
10    2  0.3984345E-006  0.2543052E+03  0.7546771E-02  0.1110634E+00
         21   -1    0    0  501  502  0.00000000000E+00  0.00000000000E+00  0.31641081919E+03  0.31641081919E+03  0.00000000000E+00 0. -1.
          1   -1    0    0  503    0 -0.00000000000E+00 -0.00000000000E+00 -0.62200503759E+03  0.62200503759E+03  0.00000000000E+00 0. -1.
         23    2    1    2    0    0  0.13971307638E+03 -0.81889692879E+02 -0.75025702568E+02  0.20025061224E+03  0.90806311157E+02 0.  0.
         23    2    1    2    0    0 -0.32395000330E+03  0.16670631143E+03 -0.10275909538E+03  0.38919528240E+03  0.90437477037E+02 0.  0.
        -13    1    4    4    0    0 -0.28384156731E+03  0.17522052934E+03 -0.83315041861E+02  0.34381632514E+03  0.00000000000E+00 0. -1.
         13    1    4    4    0    0 -0.40108435988E+02 -0.85142179174E+01 -0.19444053523E+02  0.45378957255E+02  0.00000000000E+00 0.  1.
        -13    1    3    3    0    0  0.99131225674E+02 -0.77044359309E+02 -0.13343814571E+02  0.12625723976E+03  0.00000000000E+00 0. -1.
         13    1    3    3    0    0  0.40581850705E+02 -0.48453335705E+01 -0.61681887997E+02  0.73993372479E+02  0.00000000000E+00 0.  1.
         21    1    1    2  503  502 -0.12089702860E+02 -0.10911822668E+03 -0.10129242257E+03  0.14937571148E+03  0.00000000000E+00 0.  1.
          1    1    1    2  501    0  0.19632662978E+03  0.24301608135E+02 -0.26516997870E+02  0.19959425065E+03  0.00000000000E+00 0. -1.
<scales pt_clust_5="13000.00000" pt_clust_6="13000.00000" pt_clust_7="13000.00000" pt_clust_8="13000.00000" pt_clust_9="109.78592" pt_clust_10="193.57543"></scales>
<clustering>
<clus scale="   90.437">  5  6 -1 -1</clus>
<clus scale="   90.806">  7  8 -1 -1</clus>
<clus scale="  109.786">  2  9  1 -1</clus>
<clus scale="  193.575">  1 10  2 -1</clus>
<clus scale="  254.174">  1  5  2 -1</clus>
<clus scale="  193.575">  1  5  2 -1</clus>
</clustering>
</event>
<event>
10    2  0.3984345E-006  0.1344752E+03  0.7546771E-02  0.1222491E+00
         21   -1    0    0  503  502  0.00000000000E+00  0.00000000000E+00  0.36297363175E+03  0.36297363175E+03  0.00000000000E+00 0.  1.
         -3   -1    0    0    0  501 -0.00000000000E+00 -0.00000000000E+00 -0.38079613758E+03  0.38079613758E+03  0.00000000000E+00 0.  1.
         23    2    1    2    0    0 -0.11245911387E+03  0.52760833816E+02 -0.14003411306E+03  0.20496105734E+03  0.83478885520E+02 0.  0.
         23    2    1    2    0    0  0.87923603781E+02  0.89972696831E+02 -0.11290463401E+03  0.19147626444E+03  0.89944745183E+02 0.  0.
        -11    1    3    3    0    0 -0.52780370648E+02  0.30414491040E+01 -0.10466932339E+02  0.53894105531E+02  0.00000000000E+00 0. -1.
         11    1    3    3    0    0 -0.59678743227E+02  0.49719384712E+02 -0.12956718072E+03  0.15106695181E+03  0.00000000000E+00 0.  1.
        -13    1    4    4    0    0  0.36199526373E+02  0.74942269638E+02 -0.10945362461E+03  0.13750216518E+03  0.00000000000E+00 0.  1.
         13    1    4    4    0    0  0.51724077408E+02  0.15030427193E+02 -0.34510093997E+01  0.53974099263E+02  0.00000000000E+00 0. -1.
         21    1    1    2  503  501  0.31494575681E+02 -0.53994236224E+02 -0.28789684728E+02  0.68819559643E+02  0.00000000000E+00 0. -1.
         -3    1    1    2    0  502 -0.69590655868E+01 -0.88739294423E+02  0.26390592597E+03  0.27851288791E+03  0.00000000000E+00 0.  1.
<scales pt_clust_5="13000.00000" pt_clust_6="13000.00000" pt_clust_7="13000.00000" pt_clust_8="13000.00000" pt_clust_9="62.50829" pt_clust_10="90.14517"></scales>
<clustering>
<clus scale="   62.508">  2  9  1 -1</clus>
<clus scale="   83.479">  5  6 -1 -1</clus>
<clus scale="   89.945">  7  8 -1 -1</clus>
<clus scale="   90.145">  1 10  2 -1</clus>
<clus scale="  130.239">  2  5  1 -1</clus>
<clus scale="   90.145">  1  5  2 -1</clus>
</clustering>
</event>
<event>
10    2  0.3984345E-006  0.9836135E+02  0.7546771E-02  0.1283864E+00
         21   -1    0    0  501  502  0.00000000000E+00  0.00000000000E+00  0.15272768097E+03  0.15272768097E+03  0.00000000000E+00 0.  1.
          3   -1    0    0  503    0 -0.00000000000E+00 -0.00000000000E+00 -0.26589354473E+03  0.26589354473E+03  0.00000000000E+00 0. -1.
         23    2    1    2    0    0  0.13210218670E+02  0.13497612912E+02 -0.47345999592E+02  0.10400537403E+03  0.90657480212E+02 0.  0.
         23    2    1    2    0    0  0.19849601455E+02  0.70315286872E+02  0.49451071152E+02  0.12637955478E+03  0.90488326220E+02 0.  0.
        -11    1    4    4    0    0 -0.31470339798E+02  0.52166453682E+02  0.18069363336E+02  0.63547014628E+02  0.00000000000E+00 0.  1.
         11    1    4    4    0    0  0.51319941253E+02  0.18148833190E+02  0.31381707815E+02  0.62832540150E+02  0.00000000000E+00 0. -1.
        -13    1    3    3    0    0  0.44057380827E+02  0.32328688297E+02 -0.18266784378E+02  0.57618333053E+02  0.00000000000E+00 0.  1.
         13    1    3    3    0    0 -0.30847162157E+02 -0.18831075385E+02 -0.29079215214E+02  0.46387040978E+02  0.00000000000E+00 0. -1.
         21    1    1    2  503  502 -0.81918306583E+01 -0.74377529647E+02 -0.13552140895E+03  0.15480689678E+03  0.00000000000E+00 0. -1.
          3    1    1    2  501    0 -0.24867989467E+02 -0.94353701369E+01  0.20250473627E+02  0.33429400112E+02  0.00000000000E+00 0. -1.
<scales pt_clust_5="13000.00000" pt_clust_6="13000.00000" pt_clust_7="13000.00000" pt_clust_8="13000.00000" pt_clust_9="75.77593" pt_clust_10="26.59780"></scales>
<clustering>
<clus scale="   26.598">  1 10  2 -1</clus>
<clus scale="   75.776">  2  9  1 -1</clus>
<clus scale="   90.488">  5  6 -1 -1</clus>
<clus scale="   90.657">  7  8 -1 -1</clus>
<clus scale="   98.205">  1  5  2 -1</clus>
<clus scale="   26.598">  1  5  2 -1</clus>
</clustering>
</event>
<event>
10    2  0.3984345E-006  0.1670019E+03  0.7546771E-02  0.1181139E+00
          2   -1    0    0  503    0 -0.00000000000E+00  0.00000000000E+00  0.10461789701E+04  0.10461789701E+04  0.00000000000E+00 0. -1.
         21   -1    0    0  501  502  0.00000000000E+00 -0.00000000000E+00 -0.71287131107E+02  0.71287131107E+02  0.00000000000E+00 0.  1.
         23    2    1    2    0    0 -0.12988348282E+03  0.12785979703E+02  0.53693160667E+03  0.56020926627E+03  0.92226196836E+02 0.  0.
         23    2    1    2    0    0  0.10782720054E+03 -0.85313323657E+02  0.24178804048E+03  0.29276670208E+03  0.91355442956E+02 0.  0.
        -11    1    3    3    0    0 -0.17304131467E+02  0.26647092482E+02  0.43261179805E+02  0.53675228753E+02  0.00000000000E+00 0.  1.
         11    1    3    3    0    0 -0.11257935135E+03 -0.13861112779E+02  0.49367042687E+03  0.50653403751E+03  0.00000000000E+00 0. -1.
        -13    1    4    4    0    0  0.25575736472E+02 -0.33046093380E+02  0.16053360474E+03  0.16588309388E+03  0.00000000000E+00 0. -1.
         13    1    4    4    0    0  0.82251464070E+02 -0.52267230277E+02  0.81254435733E+02  0.12688360820E+03  0.00000000000E+00 0.  1.
         21    1    1    2  503  502 -0.28577074649E+02  0.61425011922E+02  0.20130619024E+03  0.21240024368E+03  0.00000000000E+00 0. -1.
          2    1    1    2  501    0  0.50633356927E+02  0.11102332032E+02 -0.51339984428E+01  0.52089889137E+02  0.00000000000E+00 0. -1.
<scales pt_clust_5="13000.00000" pt_clust_6="13000.00000" pt_clust_7="13000.00000" pt_clust_8="13000.00000" pt_clust_9="66.60487" pt_clust_10="51.83627"></scales>
<clustering>
<clus scale="   51.836">  2 10  1 -1</clus>
<clus scale="   66.605">  1  9  2 -1</clus>
<clus scale="   91.355">  7  8 -1 -1</clus>
<clus scale="   92.226">  5  6 -1 -1</clus>
<clus scale="  166.523">  2  7  1 -1</clus>
<clus scale="   51.836">  2  5  1 -1</clus>
</clustering>
</event>
<event>
10    2  0.3984345E-006  0.1289969E+03  0.7546771E-02  0.1229020E+00
         21   -1    0    0  501  502  0.00000000000E+00  0.00000000000E+00  0.24904349003E+03  0.24904349003E+03  0.00000000000E+00 0. -1.
          2   -1    0    0  503    0 -0.00000000000E+00 -0.00000000000E+00 -0.23902440765E+03  0.23902440765E+03  0.00000000000E+00 0. -1.
         23    2    1    2    0    0 -0.95466851656E+02  0.47585820817E+02 -0.10521444024E+03  0.17488859886E+03  0.90208721685E+02 0.  0.
         23    2    1    2    0    0  0.57450637936E+02 -0.51007675097E+02  0.11183484009E+02  0.11921447091E+03  0.90469116503E+02 0.  0.
        -11    1    4    4    0    0  0.27248881909E+02  0.18602632318E+02 -0.18393500078E+02  0.37774069672E+02  0.00000000000E+00 0. -1.
         11    1    4    4    0    0  0.30201756027E+02 -0.69610307415E+02  0.29576984087E+02  0.81440401234E+02  0.00000000000E+00 0.  1.
        -13    1    3    3    0    0 -0.28000084343E+02 -0.51732064683E+01  0.10999449273E+02  0.30524656798E+02  0.00000000000E+00 0.  1.
         13    1    3    3    0    0 -0.67466767313E+02  0.52759027285E+02 -0.11621388951E+03  0.14436394206E+03  0.00000000000E+00 0. -1.
         21    1    1    2  503  502  0.18509252750E+02  0.91709980805E+01 -0.41841484870E+02  0.46662720659E+02  0.00000000000E+00 0. -1.
          2    1    1    2  501    0  0.19506960970E+02 -0.57491438009E+01  0.14589152348E+03  0.14730210726E+03  0.00000000000E+00 0. -1.
<scales pt_clust_5="13000.00000" pt_clust_6="13000.00000" pt_clust_7="13000.00000" pt_clust_8="13000.00000" pt_clust_9="21.01045" pt_clust_10="20.33652"></scales>
<clustering>
<clus scale="   20.337">  1 10  2 -1</clus>
<clus scale="   21.010">  2  9  1 -1</clus>
<clus scale="   90.209">  7  8 -1 -1</clus>
<clus scale="   90.469">  5  6 -1 -1</clus>
<clus scale="  128.814">  2  7  1 -1</clus>
<clus scale="   20.337">  1  5  2 -1</clus>
</clustering>
</event>
<event>
10    2  0.3984345E-006  0.1014413E+03  0.7546771E-02  0.1282535E+00
          3   -1    0    0  503    0 -0.00000000000E+00  0.00000000000E+00  0.66444354380E+02  0.66444354380E+02  0.00000000000E+00 0. -1.
         21   -1    0    0  501  502  0.00000000000E+00 -0.00000000000E+00 -0.78990181064E+03  0.78990181064E+03  0.00000000000E+00 0.  1.
         23    2    1    2    0    0 -0.23385531660E+02 -0.26103964183E+02 -0.76223630222E+02  0.13132586985E+03  0.10103535149E+03 0.  0.
         23    2    1    2    0    0 -0.59319434931E+02 -0.55547601756E+01 -0.34630393918E+03  0.36307453852E+03  0.91362199572E+02 0.  0.
        -11    1    3    3    0    0  0.16828649429E+02  0.28347238989E+02 -0.47438707608E+02  0.57768506813E+02  0.00000000000E+00 0. -1.
         11    1    3    3    0    0 -0.40214181090E+02 -0.54451203172E+02 -0.28784922614E+02  0.73557363041E+02  0.00000000000E+00 0.  1.
        -11    1    4    4    0    0 -0.11447678270E+02  0.36385380661E+02 -0.19878934187E+03  0.20241577929E+03  0.00000000000E+00 0. -1.
         11    1    4    4    0    0 -0.47871756661E+02 -0.41940140837E+02 -0.14751459731E+03  0.16065875923E+03  0.00000000000E+00 0.  1.
         21    1    1    2  503  502  0.19630210047E+02  0.49931449620E+02  0.28845241992E+00  0.53652381238E+02  0.00000000000E+00 0. -1.
          3    1    1    2  501    0  0.63074756544E+02 -0.18272725261E+02 -0.30121833928E+03  0.30829337540E+03  0.00000000000E+00 0. -1.
<scales pt_clust_5="13000.00000" pt_clust_6="13000.00000" pt_clust_7="13000.00000" pt_clust_8="13000.00000" pt_clust_9="53.65161" pt_clust_10="66.28595"></scales>
<clustering>
<clus scale="   53.652">  1  9  2 -1</clus>
<clus scale="   66.286">  2 10  1 -1</clus>
<clus scale="   91.362">  7  8 -1 -1</clus>
<clus scale="   91.811">  2  7  1 -1</clus>
<clus scale="  101.035">  5  6 -1 -1</clus>
<clus scale="   66.286">  2  5  1 -1</clus>
</clustering>
</event>
<event>
10    2  0.3984345E-006  0.9307390E+02  0.7546771E-02  0.1295922E+00
          1   -1    0    0  503    0 -0.00000000000E+00  0.00000000000E+00  0.13225405689E+03  0.13225405689E+03  0.00000000000E+00 0. -1.
         21   -1    0    0  501  502  0.00000000000E+00 -0.00000000000E+00 -0.15764392599E+03  0.15764392599E+03  0.00000000000E+00 0.  1.
         23    2    1    2    0    0 -0.12741004114E+02 -0.11627663519E+02  0.46134673466E+02  0.10372050523E+03  0.91279786172E+02 0.  0.
         23    2    1    2    0    0  0.35272440915E+01  0.34513587021E+00 -0.34526105942E+02  0.98223891652E+02  0.91887541756E+02 0.  0.
        -11    1    4    4    0    0  0.47777665307E+01  0.34175548440E+02  0.15492322519E+02  0.37826012494E+02  0.00000000000E+00 0. -1.
         11    1    4    4    0    0 -0.12505224392E+01 -0.33830412570E+02 -0.50018428461E+02  0.60397879157E+02  0.00000000000E+00 0.  1.
        -11    1    3    3    0    0 -0.36443804163E+02  0.28472593824E+02  0.24939234217E+02  0.52543361752E+02  0.00000000000E+00 0. -1.
         11    1    3    3    0    0  0.23702800049E+02 -0.40100257343E+02  0.21195439249E+02  0.51177143473E+02  0.00000000000E+00 0.  1.
         21    1    1    2  503  502  0.14885729348E+02 -0.17660315962E+02  0.15445326196E+02  0.27785424226E+02  0.00000000000E+00 0. -1.
          1    1    1    2  501    0 -0.56719693258E+01  0.28942843611E+02 -0.52443762819E+02  0.60168161772E+02  0.00000000000E+00 0. -1.
<scales pt_clust_5="13000.00000" pt_clust_6="13000.00000" pt_clust_7="13000.00000" pt_clust_8="13000.00000" pt_clust_9="23.09701" pt_clust_10="28.79112"></scales>
<clustering>
<clus scale="   23.097">  1  9  2 -1</clus>
<clus scale="   28.791">  2 10  1 -1</clus>
<clus scale="   91.280">  7  8 -1 -1</clus>
<clus scale="   91.888">  5  6 -1 -1</clus>
<clus scale="   92.474">  1  7  2 -1</clus>
<clus scale="   28.791">  2  5  1 -1</clus>
</clustering>
</event>
<event>
10    2  0.3984345E-006  0.1601634E+03  0.7546771E-02  0.1188819E+00
         -1   -1    0    0    0  501 -0.00000000000E+00  0.00000000000E+00  0.12978035590E+03  0.12978035590E+03  0.00000000000E+00 0.  1.
         21   -1    0    0  503  502  0.00000000000E+00 -0.00000000000E+00 -0.36771862440E+03  0.36771862440E+03  0.00000000000E+00 0. -1.
         23    2    1    2    0    0 -0.10156749344E+03 -0.20745802662E+02  0.10478760468E+02  0.13872744116E+03  0.91592327507E+02 0.  0.
         23    2    1    2    0    0  0.15570978550E+03  0.37530813353E+02 -0.14970237271E+03  0.23687108472E+03  0.89682836306E+02 0.  0.
        -11    1    3    3    0    0 -0.46583125840E+02  0.33523467150E+02  0.20243163076E+02  0.60857178000E+02  0.00000000000E+00 0.  1.
         11    1    3    3    0    0 -0.54984367604E+02 -0.54269269812E+02 -0.97644026079E+01  0.77870263163E+02  0.00000000000E+00 0. -1.
        -13    1    4    4    0    0  0.12677660467E+03  0.36670142490E+02 -0.15884486276E+03  0.20651561023E+03  0.00000000000E+00 0. -1.
         13    1    4    4    0    0  0.28933180832E+02  0.86067086283E+00  0.91424900468E+01  0.30355474493E+02  0.00000000000E+00 0.  1.
         21    1    1    2  503  501 -0.28262467503E+02 -0.90664048345E+01 -0.13683056996E+02  0.32683219161E+02  0.00000000000E+00 0.  1.
         -1    1    1    2    0  502 -0.25879824554E+02 -0.77186058563E+01 -0.85031599258E+02  0.89217235261E+02  0.00000000000E+00 0.  1.
<scales pt_clust_5="13000.00000" pt_clust_6="13000.00000" pt_clust_7="13000.00000" pt_clust_8="13000.00000" pt_clust_9="31.91195" pt_clust_10="27.00634"></scales>
<clustering>
<clus scale="   27.006">  2 10  1 -1</clus>
<clus scale="   31.912">  1  9  2 -1</clus>
<clus scale="   89.683">  7  8 -1 -1</clus>
<clus scale="   91.592">  5  6 -1 -1</clus>
<clus scale="  159.079">  2  7  1 -1</clus>
<clus scale="   27.006">  2  5  1 -1</clus>
</clustering>
</event>
<event>
10    2  0.3984345E-006  0.9685009E+02  0.7546771E-02  0.1287623E+00
         21   -1    0    0  503  502  0.00000000000E+00  0.00000000000E+00  0.23116518338E+03  0.23116518338E+03  0.00000000000E+00 0.  1.
         -1   -1    0    0    0  501 -0.00000000000E+00 -0.00000000000E+00 -0.13019436202E+03  0.13019436202E+03  0.00000000000E+00 0.  1.
         23    2    1    2    0    0 -0.24938717299E+02 -0.30498464502E+01  0.20882438827E+02  0.97529289356E+02  0.91894748746E+02 0.  0.
         23    2    1    2    0    0 -0.31204033866E+02 -0.71884472114E+02  0.26695909985E+02  0.12289321649E+03  0.90824016584E+02 0.  0.
        -11    1    4    4    0    0  0.24555318225E+02 -0.56463317092E+02  0.79691067575E+01  0.62085235706E+02  0.00000000000E+00 0.  1.
         11    1    4    4    0    0 -0.55759352090E+02 -0.15421155021E+02  0.18726803227E+02  0.60807980782E+02  0.00000000000E+00 0. -1.
        -11    1    3    3    0    0 -0.10529541683E+02 -0.36552441627E+02  0.40959431112E+02  0.55898365217E+02  0.00000000000E+00 0. -1.
         11    1    3    3    0    0 -0.14409175616E+02  0.33502595176E+02 -0.20076992285E+02  0.41630924139E+02  0.00000000000E+00 0.  1.
         21    1    1    2  503  501  0.25339801951E+02  0.23382069074E+01 -0.20644372661E+02  0.32768321548E+02  0.00000000000E+00 0.  1.
         -1    1    1    2    0  502  0.30802949213E+02  0.72596111656E+02  0.74036845211E+02  0.10816871801E+03  0.00000000000E+00 0.  1.
<scales pt_clust_5="13000.00000" pt_clust_6="13000.00000" pt_clust_7="13000.00000" pt_clust_8="13000.00000" pt_clust_9="25.44745" pt_clust_10="80.93235"></scales>
<clustering>
<clus scale="   25.447">  2  9  1 -1</clus>
<clus scale="   80.932">  1 10  2 -1</clus>
<clus scale="   90.824">  5  6 -1 -1</clus>
<clus scale="   91.895">  7  8 -1 -1</clus>
<clus scale="   95.835">  1  5  2 -1</clus>
<clus scale="   80.932">  1  5  2 -1</clus>
</clustering>
</event>
<event>
10    2  0.3984345E-006  0.9259607E+02  0.7546771E-02  0.1297952E+00
         -1   -1    0    0    0  501 -0.00000000000E+00  0.00000000000E+00  0.71490307535E+03  0.71490307535E+03  0.00000000000E+00 0.  1.
         21   -1    0    0  503  502  0.00000000000E+00 -0.00000000000E+00 -0.43020438815E+02  0.43020438815E+02  0.00000000000E+00 0. -1.
         23    2    1    2    0    0 -0.10618320195E+02  0.29083771055E+01  0.33869261056E+03  0.35117209995E+03  0.92130081689E+02 0.  0.
         23    2    1    2    0    0 -0.36714386469E+02  0.57809378989E+01  0.13881811502E+03  0.16954842373E+03  0.89971292728E+02 0.  0.
        -13    1    3    3    0    0 -0.47746345214E+02  0.14274322114E+02  0.23993104449E+03  0.24505178201E+03  0.00000000000E+00 0. -1.
         13    1    3    3    0    0  0.37128025019E+02 -0.11365945009E+02  0.98761566069E+02  0.10612031794E+03  0.00000000000E+00 0.  1.
        -13    1    4    4    0    0 -0.16530515732E+02 -0.36849590873E+02  0.28097651413E+02  0.49199881228E+02  0.00000000000E+00 0.  1.
         13    1    4    4    0    0 -0.20183870737E+02  0.42630528772E+02  0.11072046360E+03  0.12034854250E+03  0.00000000000E+00 0. -1.
         21    1    1    2  503  501 -0.17761702650E+02  0.29081354472E+02  0.14069584257E+03  0.14476368113E+03  0.00000000000E+00 0. -1.
         -1    1    1    2    0  502  0.65094409315E+02 -0.37770669477E+02  0.53676068391E+02  0.92439309358E+02  0.00000000000E+00 0.  1.
<scales pt_clust_5="13000.00000" pt_clust_6="13000.00000" pt_clust_7="13000.00000" pt_clust_8="13000.00000" pt_clust_9="34.07643" pt_clust_10="71.46383"></scales>
<clustering>
<clus scale="   34.076">  1  9  2 -1</clus>
<clus scale="   71.464">  2 10  1 -1</clus>
<clus scale="   89.971">  7  8 -1 -1</clus>
<clus scale="   90.448">  2  7  1 -1</clus>
<clus scale="   92.130">  5  6 -1 -1</clus>
<clus scale="   71.464">  2  5  1 -1</clus>
</clustering>
</event>
<event>
10    2  0.3984345E-006  0.9197119E+02  0.7546771E-02  0.1298682E+00
          3   -1    0    0  503    0 -0.00000000000E+00  0.00000000000E+00  0.24749496427E+03  0.24749496427E+03  0.00000000000E+00 0. -1.
         21   -1    0    0  501  502  0.00000000000E+00 -0.00000000000E+00 -0.16981857816E+03  0.16981857816E+03  0.00000000000E+00 0. -1.
         23    2    1    2    0    0  0.47003880420E+02 -0.30910454226E+02  0.10545179934E+03  0.14903654362E+03  0.89033636319E+02 0.  0.
         23    2    1    2    0    0 -0.95495930279E+00 -0.21284173846E+02 -0.10291398779E+02  0.91221002218E+02  0.88098980432E+02 0.  0.
        -11    1    4    4    0    0  0.63164616867E+00 -0.48309656911E+02  0.18468929313E+02  0.51723527313E+02  0.00000000000E+00 0. -1.
         11    1    4    4    0    0 -0.15866054715E+01  0.27025483065E+02 -0.28760328093E+02  0.39497474905E+02  0.00000000000E+00 0.  1.
        -11    1    3    3    0    0  0.71425968807E+02 -0.12760768387E+02  0.87645562035E+02  0.11378159242E+03  0.00000000000E+00 0.  1.
         11    1    3    3    0    0 -0.24422088386E+02 -0.18149685839E+02  0.17806237302E+02  0.35254951199E+02  0.00000000000E+00 0. -1.
         21    1    1    2  503  502 -0.23895909413E+02  0.23597426455E+02  0.72594005444E+02  0.79985890308E+02  0.00000000000E+00 0.  1.
          3    1    1    2  501    0 -0.22153011705E+02  0.28597201616E+02 -0.90078019883E+02  0.97070106284E+02  0.00000000000E+00 0. -1.
<scales pt_clust_5="13000.00000" pt_clust_6="13000.00000" pt_clust_7="13000.00000" pt_clust_8="13000.00000" pt_clust_9="33.58352" pt_clust_10="36.85384"></scales>
<clustering>
<clus scale="   33.584">  1  9  2 -1</clus>
<clus scale="   36.854">  2 10  1 -1</clus>
<clus scale="   88.099">  5  6 -1 -1</clus>
<clus scale="   89.034">  7  8 -1 -1</clus>
<clus scale="   91.067">  2  5  1 -1</clus>
<clus scale="   36.854">  2  5  1 -1</clus>
</clustering>
</event>
<event>
10    2  0.3984345E-006  0.2145855E+03  0.7546771E-02  0.1173542E+00
         21   -1    0    0  503  502  0.00000000000E+00  0.00000000000E+00  0.17111259115E+03  0.17111259115E+03  0.00000000000E+00 0. -1.
         -2   -1    0    0    0  501 -0.00000000000E+00 -0.00000000000E+00 -0.49155166526E+03  0.49155166526E+03  0.00000000000E+00 0.  1.
         23    2    1    2    0    0 -0.14921207429E+03 -0.87822024217E+02 -0.62387017219E+02  0.20521482027E+03  0.90796649103E+02 0.  0.
         23    2    1    2    0    0 -0.43299216632E+01 -0.13708911689E+02 -0.40989361960E+02  0.10106580226E+03  0.91255060741E+02 0.  0.
        -13    1    3    3    0    0 -0.12557711127E+03 -0.47808829622E+02 -0.93451608544E+01  0.13469456966E+03  0.00000000000E+00 0.  1.
         13    1    3    3    0    0 -0.23634963016E+02 -0.40013194595E+02 -0.53041856365E+02  0.70520250603E+02  0.00000000000E+00 0. -1.
        -13    1    4    4    0    0 -0.30203107507E+02  0.17076524566E+02 -0.49021184081E+02  0.60057571405E+02  0.00000000000E+00 0.  1.
         13    1    4    4    0    0  0.25873185843E+02 -0.30785436255E+02  0.80318221213E+01  0.41008230853E+02  0.00000000000E+00 0. -1.
         21    1    1    2  503  501  0.16857576140E+03  0.11802203039E+03 -0.24543350744E+03  0.32028829757E+03  0.00000000000E+00 0. -1.
         -2    1    1    2    0  502 -0.15033765449E+02 -0.16491094483E+02  0.28370812513E+02  0.36095336312E+02  0.00000000000E+00 0.  1.
<scales pt_clust_5="13000.00000" pt_clust_6="13000.00000" pt_clust_7="13000.00000" pt_clust_8="13000.00000" pt_clust_9="194.42971" pt_clust_10="22.31525"></scales>
<clustering>
<clus scale="   22.315">  1 10  2 -1</clus>
<clus scale="   90.797">  5  6 -1 -1</clus>
<clus scale="   91.255">  7  8 -1 -1</clus>
<clus scale="   93.185">  1  7  2 -1</clus>
<clus scale="  194.430">  2  9  1 -1</clus>
<clus scale="   22.315">  1  5  2 -1</clus>
</clustering>
</event>
<event>
10    2  0.3984345E-006  0.1117275E+03  0.7546771E-02  0.1257452E+00
          1   -1    0    0  503    0 -0.00000000000E+00  0.00000000000E+00  0.74368022670E+02  0.74368022670E+02  0.00000000000E+00 0. -1.
         21   -1    0    0  501  502  0.00000000000E+00 -0.00000000000E+00 -0.55749674522E+03  0.55749674522E+03  0.00000000000E+00 0.  1.
         23    2    1    2    0    0 -0.10910198856E+03  0.31036871415E+02 -0.24947109386E+03  0.28929862398E+03  0.92689459317E+02 0.  0.
         23    2    1    2    0    0  0.23022335512E+02 -0.12198717073E+02 -0.18509609711E+03  0.20858383917E+03  0.92562498708E+02 0.  0.
        -13    1    3    3    0    0 -0.44210791059E+02 -0.33098242807E+02 -0.96422366096E+02  0.11111867713E+03  0.00000000000E+00 0. -1.
         13    1    3    3    0    0 -0.64891197497E+02  0.64135114222E+02 -0.15304872777E+03  0.17817994685E+03  0.00000000000E+00 0.  1.
        -13    1    4    4    0    0 -0.18690104279E+01  0.33540595526E+02 -0.12319304500E+03  0.12769099845E+03  0.00000000000E+00 0.  1.
         13    1    4    4    0    0  0.24891345940E+02 -0.45739312599E+02 -0.61903052114E+02  0.80892840726E+02  0.00000000000E+00 0. -1.
         21    1    1    2  503  502  0.64349417987E+02 -0.26357022260E+02  0.10754962575E+02  0.70364830972E+02  0.00000000000E+00 0. -1.
          1    1    1    2  501    0  0.21730235057E+02  0.75188679183E+01 -0.59316494143E+02  0.63617473761E+02  0.00000000000E+00 0. -1.
<scales pt_clust_5="13000.00000" pt_clust_6="13000.00000" pt_clust_7="13000.00000" pt_clust_8="13000.00000" pt_clust_9="70.58099" pt_clust_10="22.99427"></scales>
<clustering>
<clus scale="   22.994">  2 10  1 -1</clus>
<clus scale="   70.581">  1  9  2 -1</clus>
<clus scale="   92.562">  7  8 -1 -1</clus>
<clus scale="   92.689">  5  6 -1 -1</clus>
<clus scale="  111.622">  2  7  1 -1</clus>
<clus scale="   22.994">  2  5  1 -1</clus>
</clustering>
</event>
<event>
10    2  0.3984345E-006  0.1392481E+03  0.7546771E-02  0.1218939E+00
         -1   -1    0    0    0  501 -0.00000000000E+00  0.00000000000E+00  0.32230282814E+03  0.32230282814E+03  0.00000000000E+00 0.  1.
         21   -1    0    0  503  502  0.00000000000E+00 -0.00000000000E+00 -0.28284737599E+03  0.28284737599E+03  0.00000000000E+00 0.  1.
         23    2    1    2    0    0  0.54351837120E+02  0.77476621812E+02  0.17404222977E+03  0.22209846273E+03  0.10040059900E+03 0.  0.
         23    2    1    2    0    0 -0.73441667830E+02 -0.70789330972E+02  0.22233553247E+02  0.13251259835E+03  0.81611579317E+02 0.  0.
        -11    1    4    4    0    0 -0.67739846545E+02 -0.42411690882E+02  0.48449711643E+02  0.93460220905E+02  0.00000000000E+00 0.  1.
         11    1    4    4    0    0 -0.57018212852E+01 -0.28377640090E+02 -0.26216158397E+02  0.39052377445E+02  0.00000000000E+00 0. -1.
        -13    1    3    3    0    0  0.58177406926E+01 -0.24178142877E+02  0.38833550558E+02  0.46113700227E+02  0.00000000000E+00 0. -1.
         13    1    3    3    0    0  0.48534096428E+02  0.10165476469E+03  0.13520867921E+03  0.17598476251E+03  0.00000000000E+00 0.  1.
         21    1    1    2  503  501  0.93283850450E+01 -0.44361352297E+02  0.33445215515E+02  0.56334099673E+02  0.00000000000E+00 0. -1.
         -1    1    1    2    0  502  0.97614456644E+01  0.37674061456E+02 -0.19026554639E+03  0.19420504337E+03  0.00000000000E+00 0.  1.
<scales pt_clust_5="13000.00000" pt_clust_6="13000.00000" pt_clust_7="13000.00000" pt_clust_8="13000.00000" pt_clust_9="40.98711" pt_clust_10="38.91813"></scales>
<clustering>
<clus scale="   38.918">  2 10  1 -1</clus>
<clus scale="   40.987">  2  9  1 -1</clus>
<clus scale="   81.612">  5  6 -1 -1</clus>
<clus scale="  100.401">  7  8 -1 -1</clus>
<clus scale="  126.373">  2  5  1 -1</clus>
<clus scale="   38.918">  2  5  1 -1</clus>
</clustering>
</event>
<event>
10    2  0.3984345E-006  0.1129187E+03  0.7546771E-02  0.1257960E+00
         21   -1    0    0  501  502  0.00000000000E+00  0.00000000000E+00  0.32067919079E+03  0.32067919079E+03  0.00000000000E+00 0. -1.
          1   -1    0    0  503    0 -0.00000000000E+00 -0.00000000000E+00 -0.13713959822E+03  0.13713959822E+03  0.00000000000E+00 0. -1.
         23    2    1    2    0    0  0.38504046726E+02  0.15646791411E+02  0.29837263533E+02  0.10440207384E+03  0.91006302156E+02 0.  0.
         23    2    1    2    0    0 -0.67503870688E+02 -0.26767489981E+02  0.22376121601E+02  0.12388520318E+03  0.97844681369E+02 0.  0.
        -11    1    3    3    0    0  0.65964748458E+02 -0.25549824785E+01  0.12549727947E+02  0.67196515134E+02  0.00000000000E+00 0.  1.
         11    1    3    3    0    0 -0.27460701732E+02  0.18201773890E+02  0.17287535586E+02  0.37205558711E+02  0.00000000000E+00 0. -1.
        -11    1    4    4    0    0 -0.23044461569E+02 -0.10802051433E+02  0.58906383004E+02  0.64169256524E+02  0.00000000000E+00 0.  1.
         11    1    4    4    0    0 -0.44459409119E+02 -0.15965438548E+02 -0.36530261403E+02  0.59715946660E+02  0.00000000000E+00 0. -1.
         21    1    1    2  503  502 -0.14573064399E+02  0.25431018708E+02 -0.41453160377E+02  0.50768843041E+02  0.00000000000E+00 0. -1.
          1    1    1    2  501    0  0.43572888361E+02 -0.14310320138E+02  0.17277936782E+03  0.17876266894E+03  0.00000000000E+00 0. -1.
<scales pt_clust_5="13000.00000" pt_clust_6="13000.00000" pt_clust_7="13000.00000" pt_clust_8="13000.00000" pt_clust_9="29.31059" pt_clust_10="45.15142"></scales>
<clustering>
<clus scale="   29.311">  2  9  1 -1</clus>
<clus scale="   45.151">  1 10  2 -1</clus>
<clus scale="   91.006">  5  6 -1 -1</clus>
<clus scale="   97.845">  7  8 -1 -1</clus>
<clus scale="  107.048">  2  5  1 -1</clus>
<clus scale="   45.151">  1  5  2 -1</clus>
</clustering>
</event>
<event>
10    2  0.3984345E-006  0.9590101E+02  0.7546771E-02  0.1290319E+00
         21   -1    0    0  501  502  0.00000000000E+00  0.00000000000E+00  0.29926519810E+03  0.29926519810E+03  0.00000000000E+00 0.  1.
          4   -1    0    0  503    0 -0.00000000000E+00 -0.00000000000E+00 -0.15389350381E+03  0.15389350381E+03  0.00000000000E+00 0.  1.
         23    2    1    2    0    0 -0.13529652405E+02  0.36891506481E+02 -0.72931663436E+02  0.12450234930E+03  0.92939618602E+02 0.  0.
         23    2    1    2    0    0 -0.18045267425E+02 -0.56774284260E+02  0.11546957589E+03  0.15852115953E+03  0.90811805571E+02 0.  0.
        -11    1    3    3    0    0 -0.46214487511E+02  0.47499091591E+02 -0.52285004976E+02  0.84413649982E+02  0.00000000000E+00 0.  1.
         11    1    3    3    0    0  0.32684835106E+02 -0.10607585110E+02 -0.20646658460E+02  0.40088699322E+02  0.00000000000E+00 0. -1.
        -13    1    4    4    0    0 -0.26475917778E+01 -0.74968406537E+02  0.53536290885E+02  0.92159677532E+02  0.00000000000E+00 0.  1.
         13    1    4    4    0    0 -0.15397675647E+02  0.18194122277E+02  0.61933285008E+02  0.66361481995E+02  0.00000000000E+00 0. -1.
         21    1    1    2  503  502  0.81255383735E+01 -0.27016218720E+02 -0.21320900942E+02  0.35362144516E+02  0.00000000000E+00 0. -1.
          4    1    1    2  501    0  0.23449381457E+02  0.46898996499E+02  0.12415468277E+03  0.13477304856E+03  0.00000000000E+00 0.  1.
<scales pt_clust_5="13000.00000" pt_clust_6="13000.00000" pt_clust_7="13000.00000" pt_clust_8="13000.00000" pt_clust_9="28.21171" pt_clust_10="51.57295"></scales>
<clustering>
<clus scale="   28.212">  2  9  1 -1</clus>
<clus scale="   51.573">  1 10  2 -1</clus>
<clus scale="   90.812">  7  8 -1 -1</clus>
<clus scale="   92.940">  5  6 -1 -1</clus>
<clus scale="   93.840">  1  7  2 -1</clus>
<clus scale="   51.573">  1  5  2 -1</clus>
</clustering>
</event>
<event>
10    2  0.3984345E-006  0.2077149E+03  0.7546771E-02  0.1143583E+00
         21   -1    0    0  503  502  0.00000000000E+00  0.00000000000E+00  0.28318787616E+03  0.28318787616E+03  0.00000000000E+00 0.  1.
         -3   -1    0    0    0  501 -0.00000000000E+00 -0.00000000000E+00 -0.26605637057E+03  0.26605637057E+03  0.00000000000E+00 0.  1.
         23    2    1    2    0    0  0.21578168117E+03 -0.27587174908E+01 -0.48697127772E+02  0.23911708154E+03  0.90753644436E+02 0.  0.
         23    2    1    2    0    0 -0.15082256970E+03  0.39748922678E+02  0.23561262517E+02  0.18308430237E+03  0.92937098613E+02 0.  0.
        -11    1    4    4    0    0 -0.79031572438E+02  0.40934006913E+02  0.55082301598E+02  0.10466920423E+03  0.00000000000E+00 0. -1.
         11    1    4    4    0    0 -0.71790997259E+02 -0.11850842352E+01 -0.31521039081E+02  0.78415098143E+02  0.00000000000E+00 0.  1.
        -13    1    3    3    0    0  0.83640295088E+02 -0.99599874281E+01  0.24713588698E+02  0.87781898922E+02  0.00000000000E+00 0.  1.
         13    1    3    3    0    0  0.13214138608E+03  0.72012699373E+01 -0.73410716470E+02  0.15133518262E+03  0.00000000000E+00 0. -1.
         21    1    1    2  503  501  0.13367010420E+01 -0.50058698955E+02  0.29974867179E+02  0.58362254695E+02  0.00000000000E+00 0.  1.
         -3    1    1    2    0  502 -0.66295812517E+02  0.13068493768E+02  0.12292503662E+02  0.68680608128E+02  0.00000000000E+00 0.  1.
<scales pt_clust_5="13000.00000" pt_clust_6="13000.00000" pt_clust_7="13000.00000" pt_clust_8="13000.00000" pt_clust_9="50.07654" pt_clust_10="66.22859"></scales>
<clustering>
<clus scale="   50.077">  1  9  2 -1</clus>
<clus scale="   66.229">  1 10  2 -1</clus>
<clus scale="   90.754">  7  8 -1 -1</clus>
<clus scale="   92.937">  5  6 -1 -1</clus>
<clus scale="  206.747">  2  7  1 -1</clus>
<clus scale="   50.077">  1  5  2 -1</clus>
</clustering>
</event>
<event>
10    2  0.3984345E-006  0.9374793E+02  0.7546771E-02  0.1295906E+00
         21   -1    0    0  501  502  0.00000000000E+00  0.00000000000E+00  0.30613770218E+02  0.30613770218E+02  0.00000000000E+00 0. -1.
          1   -1    0    0  503    0 -0.00000000000E+00 -0.00000000000E+00 -0.69754926029E+03  0.69754926029E+03  0.00000000000E+00 0. -1.
         23    2    1    2    0    0  0.10177832969E+02  0.14528233845E+01 -0.36409747856E+03  0.37568399763E+03  0.92009745119E+02 0.  0.
         23    2    1    2    0    0 -0.10683169332E+02  0.10181701612E+02 -0.14591374163E+03  0.17140586892E+03  0.88720655708E+02 0.  0.
        -11    1    3    3    0    0 -0.32528160991E+02  0.20391169529E+02 -0.93358186511E+02  0.10094370729E+03  0.00000000000E+00 0.  1.
         11    1    3    3    0    0  0.42705993961E+02 -0.18938346145E+02 -0.27073929205E+03  0.27474029034E+03  0.00000000000E+00 0. -1.
        -13    1    4    4    0    0  0.25579965106E+02 -0.27557639727E+02 -0.61517883610E+02  0.72098600028E+02  0.00000000000E+00 0. -1.
         13    1    4    4    0    0 -0.36263134437E+02  0.37739341339E+02 -0.84395858024E+02  0.99307268896E+02  0.00000000000E+00 0.  1.
         21    1    1    2  503  502  0.35293864350E+01 -0.33850035195E+02 -0.15486257100E+03  0.15855818285E+03  0.00000000000E+00 0. -1.
          1    1    1    2  501    0 -0.30240500726E+01  0.22215510199E+02 -0.20616988775E+01  0.22514981112E+02  0.00000000000E+00 0. -1.
<scales pt_clust_5="13000.00000" pt_clust_6="13000.00000" pt_clust_7="13000.00000" pt_clust_8="13000.00000" pt_clust_9="32.00251" pt_clust_10="22.42039"></scales>
<clustering>
<clus scale="   22.420">  1 10  2 -1</clus>
<clus scale="   32.003">  2  9  1 -1</clus>
<clus scale="   88.721">  7  8 -1 -1</clus>
<clus scale="   90.522">  1  7  2 -1</clus>
<clus scale="   92.010">  5  6 -1 -1</clus>
<clus scale="   22.420">  1  5  2 -1</clus>
</clustering>
</event>
<event>
10    2  0.3984345E-006  0.1193959E+03  0.7546771E-02  0.1245033E+00
         21   -1    0    0  501  502  0.00000000000E+00  0.00000000000E+00  0.20621683818E+03  0.20621683818E+03  0.00000000000E+00 0. -1.
          2   -1    0    0  503    0 -0.00000000000E+00 -0.00000000000E+00 -0.24718632295E+03  0.24718632295E+03  0.00000000000E+00 0. -1.
         23    2    1    2    0    0  0.88556004435E+01 -0.67129172300E+02 -0.74527682034E+02  0.13667644963E+03  0.92419311084E+02 0.  0.
         23    2    1    2    0    0  0.34104162404E+02  0.79210552710E+02 -0.55347134049E+02  0.13989184327E+03  0.95231386702E+02 0.  0.
        -13    1    3    3    0    0  0.45147872537E+02 -0.44056017219E+02 -0.17904511670E+02  0.65573123961E+02  0.00000000000E+00 0. -1.
         13    1    3    3    0    0 -0.36292272094E+02 -0.23073155081E+02 -0.56623170364E+02  0.71103325669E+02  0.00000000000E+00 0.  1.
        -13    1    4    4    0    0 -0.13313663944E+02 -0.16260909289E+02 -0.33273791588E+01  0.21277741200E+02  0.00000000000E+00 0.  1.
         13    1    4    4    0    0  0.47417826348E+02  0.95471461999E+02 -0.52019754890E+02  0.11861410207E+03  0.00000000000E+00 0. -1.
         21    1    1    2  503  502  0.42490233757E+02  0.69527700292E+01 -0.10559280767E+02  0.44331246160E+02  0.00000000000E+00 0. -1.
          2    1    1    2  501    0 -0.85449996605E+02 -0.19034150439E+02  0.99464612084E+02  0.13250362206E+03  0.00000000000E+00 0. -1.
<scales pt_clust_5="13000.00000" pt_clust_6="13000.00000" pt_clust_7="13000.00000" pt_clust_8="13000.00000" pt_clust_9="43.05532" pt_clust_10="84.31296"></scales>
<clustering>
<clus scale="   43.055">  2  9  1 -1</clus>
<clus scale="   84.313">  1 10  2 -1</clus>
<clus scale="   92.419">  5  6 -1 -1</clus>
<clus scale="   95.231">  7  8 -1 -1</clus>
<clus scale="  117.165">  2  5  1 -1</clus>
<clus scale="   84.313">  1  5  2 -1</clus>
</clustering>
</event>
<event>
10    2  0.3984345E-006  0.1073355E+03  0.7546771E-02  0.1266237E+00
         21   -1    0    0  501  502  0.00000000000E+00  0.00000000000E+00  0.55626965718E+02  0.55626965718E+02  0.00000000000E+00 0.  1.
          1   -1    0    0  503    0 -0.00000000000E+00 -0.00000000000E+00 -0.38520878085E+03  0.38520878085E+03  0.00000000000E+00 0. -1.
         23    2    1    2    0    0  0.27571902707E+02  0.51600097683E+02 -0.18209583332E+03  0.21209084382E+03  0.91656170656E+02 0.  0.
         23    2    1    2    0    0 -0.21151516975E+02 -0.41724530276E+02 -0.10263698197E+03  0.14434221336E+03  0.90066649722E+02 0.  0.
        -13    1    3    3    0    0 -0.10101957643E+02  0.66782159026E+02 -0.12404046667E+03  0.14123718945E+03  0.00000000000E+00 0. -1.
         13    1    3    3    0    0  0.37673860350E+02 -0.15182061343E+02 -0.58055366650E+02  0.70853654367E+02  0.00000000000E+00 0.  1.
        -13    1    4    4    0    0 -0.14054459081E+01 -0.68138817435E+02 -0.74723382143E+02  0.10113583716E+03  0.00000000000E+00 0.  1.
         13    1    4    4    0    0 -0.19746071067E+02  0.26414287159E+02 -0.27913599831E+02  0.43206376199E+02  0.00000000000E+00 0. -1.
         21    1    1    2  503  502  0.16167556979E+02  0.15493186027E+02 -0.45189717794E+02  0.50433513721E+02  0.00000000000E+00 0.  1.
          1    1    1    2  501    0 -0.22587942711E+02 -0.25368753435E+02  0.34071795736E+00  0.33969175667E+02  0.00000000000E+00 0. -1.
<scales pt_clust_5="13000.00000" pt_clust_6="13000.00000" pt_clust_7="13000.00000" pt_clust_8="13000.00000" pt_clust_9="22.39260" pt_clust_10="32.85515"></scales>
<clustering>
<clus scale="   22.393">  2  9  1 -1</clus>
<clus scale="   32.855">  1 10  2 -1</clus>
<clus scale="   90.067">  7  8 -1 -1</clus>
<clus scale="   91.656">  5  6 -1 -1</clus>
<clus scale="  105.981">  1  7  2 -1</clus>
<clus scale="   32.855">  1  5  2 -1</clus>
</clustering>
</event>
<event>
10    2  0.3984345E-006  0.1817300E+03  0.7546771E-02  0.1187052E+00
          1   -1    0    0  503    0 -0.00000000000E+00  0.00000000000E+00  0.12695108282E+04  0.12695108282E+04  0.00000000000E+00 0. -1.
         21   -1    0    0  501  502  0.00000000000E+00 -0.00000000000E+00 -0.83522786775E+02  0.83522786775E+02  0.00000000000E+00 0. -1.
         23    2    1    2    0    0  0.57646589925E+02  0.32141917436E+02  0.33531583743E+03  0.35392462814E+03  0.92030969703E+02 0.  0.
         23    2    1    2    0    0 -0.94043753888E+02  0.55866759725E+02  0.74923262495E+02  0.16024168427E+03  0.89992108695E+02 0.  0.
        -11    1    4    4    0    0 -0.14176522747E+01  0.47526127717E+02  0.34967999288E+02  0.59021212525E+02  0.00000000000E+00 0.  1.
         11    1    4    4    0    0 -0.92626101613E+02  0.83406320080E+01  0.39955263207E+02  0.10122047174E+03  0.00000000000E+00 0. -1.
        -13    1    3    3    0    0  0.45569018773E+02 -0.22339565123E+02  0.22051091096E+03  0.22627561400E+03  0.00000000000E+00 0.  1.
         13    1    3    3    0    0  0.12077571152E+02  0.54481482559E+02  0.11480492647E+03  0.12764901413E+03  0.00000000000E+00 0. -1.
         21    1    1    2  503  502  0.16341365219E+03 -0.96658863670E+01  0.48795484994E+03  0.51468183051E+03  0.00000000000E+00 0.  1.
          1    1    1    2  501    0 -0.12701648823E+03 -0.78342790794E+02  0.28779409156E+03  0.32418547205E+03  0.00000000000E+00 0. -1.
<scales pt_clust_5="13000.00000" pt_clust_6="13000.00000" pt_clust_7="13000.00000" pt_clust_8="13000.00000" pt_clust_9="157.88352" pt_clust_10="127.42289"></scales>
<clustering>
<clus scale="   89.992">  5  6 -1 -1</clus>
<clus scale="   92.031">  7  8 -1 -1</clus>
<clus scale="  113.252">  1  7  2 -1</clus>
<clus scale="  127.423">  2 10  1 -1</clus>
<clus scale="  157.884">  1  9  2 -1</clus>
<clus scale="  127.423">  2  5  1 -1</clus>
</clustering>
</event>
<event>
10    2  0.3984345E-006  0.9758116E+02  0.7546771E-02  0.1293943E+00
         21   -1    0    0  501  502  0.00000000000E+00  0.00000000000E+00  0.10906626732E+03  0.10906626732E+03  0.00000000000E+00 0. -1.
          3   -1    0    0  503    0 -0.00000000000E+00 -0.00000000000E+00 -0.40612541117E+03  0.40612541117E+03  0.00000000000E+00 0. -1.
         23    2    1    2    0    0 -0.15518362839E+02  0.19566958939E+02 -0.11110693819E+03  0.14537767632E+03  0.90367204175E+02 0.  0.
         23    2    1    2    0    0 -0.23580228803E+01 -0.54249945086E+02 -0.10253281339E+03  0.13797165039E+03  0.74663121265E+02 0.  0.
        -11    1    3    3    0    0  0.23256407297E+02  0.16737083321E+00  0.28693454536E+01  0.23433344548E+02  0.00000000000E+00 0.  1.
         11    1    3    3    0    0 -0.38774770136E+02  0.19399588105E+02 -0.11397628364E+03  0.12194433177E+03  0.00000000000E+00 0. -1.
        -13    1    4    4    0    0  0.22929786573E+02  0.48322655323E+01 -0.49056531890E+02  0.54366066839E+02  0.00000000000E+00 0.  1.
         13    1    4    4    0    0 -0.25287809453E+02 -0.59082210618E+02 -0.53476281499E+02  0.83605583554E+02  0.00000000000E+00 0. -1.
         21    1    1    2  503  502 -0.33482594510E+02 -0.14733956920E+02 -0.13755832276E+03  0.14233926297E+03  0.00000000000E+00 0.  1.
          3    1    1    2  501    0  0.51358980229E+02  0.49416943067E+02  0.54138930489E+02  0.89503088811E+02  0.00000000000E+00 0. -1.
<scales pt_clust_5="13000.00000" pt_clust_6="13000.00000" pt_clust_7="13000.00000" pt_clust_8="13000.00000" pt_clust_9="36.58106" pt_clust_10="68.99622"></scales>
<clustering>
<clus scale="   36.581">  2  9  1 -1</clus>
<clus scale="   68.996">  1 10  2 -1</clus>
<clus scale="   74.663">  7  8 -1 -1</clus>
<clus scale="   83.249">  1  7  2 -1</clus>
<clus scale="   90.367">  5  6 -1 -1</clus>
<clus scale="   68.996">  1  5  2 -1</clus>
</clustering>
</event>
<event>
10    2  0.3984345E-006  0.2631802E+03  0.7546771E-02  0.1105775E+00
         21   -1    0    0  501  502  0.00000000000E+00  0.00000000000E+00  0.38936838812E+03  0.38936838812E+03  0.00000000000E+00 0.  1.
          3   -1    0    0  503    0 -0.00000000000E+00 -0.00000000000E+00 -0.34754128622E+03  0.34754128622E+03  0.00000000000E+00 0. -1.
         23    2    1    2    0    0  0.16304493443E+03 -0.13010187716E+03 -0.49949113202E+02  0.22768522836E+03  0.76390445867E+02 0.  0.
         23    2    1    2    0    0 -0.28215655018E+03  0.13341223771E+03  0.33345045490E+02  0.32590069255E+03  0.87682525982E+02 0.  0.
        -11    1    4    4    0    0 -0.24033934612E+03  0.12212096918E+03 -0.26237185840E+01  0.26959862074E+03  0.00000000000E+00 0.  1.
         11    1    4    4    0    0 -0.41817204059E+02  0.11291268533E+02  0.35968764074E+02  0.56302071804E+02  0.00000000000E+00 0. -1.
        -11    1    3    3    0    0  0.50744238070E+02 -0.45700360627E+02 -0.54130721344E+02  0.87141469186E+02  0.00000000000E+00 0.  1.
         11    1    3    3    0    0  0.11230069636E+03 -0.84401516529E+02  0.41816081422E+01  0.14054375917E+03  0.00000000000E+00 0. -1.
         21    1    1    2  503  502  0.14052735712E+02 -0.24313372662E+02 -0.32391579892E+02  0.42869965233E+02  0.00000000000E+00 0.  1.
          3    1    1    2  501    0  0.10505888004E+03  0.21003012107E+02  0.90822749500E+02  0.14045378820E+03  0.00000000000E+00 0. -1.
<scales pt_clust_5="13000.00000" pt_clust_6="13000.00000" pt_clust_7="13000.00000" pt_clust_8="13000.00000" pt_clust_9="28.08237" pt_clust_10="107.88052"></scales>
<clustering>
<clus scale="   28.082">  2  9  1 -1</clus>
<clus scale="   76.390">  7  8 -1 -1</clus>
<clus scale="   87.683">  5  6 -1 -1</clus>
<clus scale="  107.881">  1 10  2 -1</clus>
<clus scale="  259.636">  2  7  1 -1</clus>
<clus scale="  107.881">  1  5  2 -1</clus>
</clustering>
</event>
<event>
10    2  0.3984345E-006  0.1303458E+03  0.7546771E-02  0.1227544E+00
         21   -1    0    0  501  502  0.00000000000E+00  0.00000000000E+00  0.10903717760E+03  0.10903717760E+03  0.00000000000E+00 0.  1.
          2   -1    0    0  503    0 -0.00000000000E+00 -0.00000000000E+00 -0.56835412653E+03  0.56835412653E+03  0.00000000000E+00 0. -1.
         23    2    1    2    0    0 -0.28509958172E+02  0.98143690736E+02 -0.46259794637E+03  0.48260820214E+03  0.92026164973E+02 0.  0.
         23    2    1    2    0    0  0.32102009596E+02 -0.35368151708E+02 -0.25581034887E+01  0.10167799735E+03  0.89724166620E+02 0.  0.
        -11    1    4    4    0    0  0.41105037406E+02 -0.55844439813E+02 -0.21253902379E+02  0.72525539809E+02  0.00000000000E+00 0.  1.
         11    1    4    4    0    0 -0.90030278102E+01  0.20476288105E+02  0.18695798891E+02  0.29152457538E+02  0.00000000000E+00 0. -1.
        -13    1    3    3    0    0  0.52217757681E+01  0.79800169865E+02 -0.40858833262E+03  0.41634091753E+03  0.00000000000E+00 0. -1.
         13    1    3    3    0    0 -0.33731733940E+02  0.18343520871E+02 -0.54009613745E+02  0.66267284609E+02  0.00000000000E+00 0.  1.
         21    1    1    2  503  502 -0.21973211819E+02 -0.30319536607E+02 -0.24734527427E+02  0.44876421256E+02  0.00000000000E+00 0.  1.
          2    1    1    2  501    0  0.18381160394E+02 -0.32456002421E+02  0.30573628353E+02  0.48228683387E+02  0.00000000000E+00 0. -1.
<scales pt_clust_5="13000.00000" pt_clust_6="13000.00000" pt_clust_7="13000.00000" pt_clust_8="13000.00000" pt_clust_9="39.98754" pt_clust_10="37.29959"></scales>
<clustering>
<clus scale="   37.300">  1 10  2 -1</clus>
<clus scale="   39.988">  1  9  2 -1</clus>
<clus scale="   89.724">  5  6 -1 -1</clus>
<clus scale="   92.026">  7  8 -1 -1</clus>
<clus scale="  128.731">  1  5  2 -1</clus>
<clus scale="   37.300">  1  5  2 -1</clus>
</clustering>
</event>
<event>
10    2  0.3984345E-006  0.1460783E+03  0.7546771E-02  0.1223904E+00
          2   -1    0    0  503    0 -0.00000000000E+00  0.00000000000E+00  0.95129224514E+03  0.95129224514E+03  0.00000000000E+00 0. -1.
         21   -1    0    0  501  502  0.00000000000E+00 -0.00000000000E+00 -0.50359257537E+02  0.50359257537E+02  0.00000000000E+00 0. -1.
         23    2    1    2    0    0  0.27060038717E+02  0.27954150133E+02  0.35842969384E+03  0.37224029631E+03  0.92613781735E+02 0.  0.
         23    2    1    2    0    0 -0.10796714784E+03 -0.33848368046E+02  0.17663570331E+03  0.22998150453E+03  0.94279922090E+02 0.  0.
        -13    1    3    3    0    0  0.12880189300E+02  0.62130819711E+02  0.22580791737E+03  0.23455351965E+03  0.00000000000E+00 0. -1.
         13    1    3    3    0    0  0.14179849417E+02 -0.34176669578E+02  0.13262177647E+03  0.13768677666E+03  0.00000000000E+00 0.  1.
        -13    1    4    4    0    0 -0.86289426861E+02 -0.73927450575E+00  0.55632610021E+02  0.10267131543E+03  0.00000000000E+00 0. -1.
         13    1    4    4    0    0 -0.21677720976E+02 -0.33109093540E+02  0.12100309329E+03  0.12731018910E+03  0.00000000000E+00 0.  1.
         21    1    1    2  503  502 -0.32035166798E+02  0.81516121311E+01  0.17117915240E+03  0.17434162701E+03  0.00000000000E+00 0. -1.
          2    1    1    2  501    0  0.11294227592E+03 -0.22573942184E+01  0.19468843806E+03  0.22508807483E+03  0.00000000000E+00 0. -1.
<scales pt_clust_5="13000.00000" pt_clust_6="13000.00000" pt_clust_7="13000.00000" pt_clust_8="13000.00000" pt_clust_9="33.05602" pt_clust_10="111.58032"></scales>
<clustering>
<clus scale="   33.056">  1  9  2 -1</clus>
<clus scale="   92.614">  5  6 -1 -1</clus>
<clus scale="   94.280">  7  8 -1 -1</clus>
<clus scale="   98.650">  1  5  2 -1</clus>
<clus scale="  111.580">  2 10  1 -1</clus>
<clus scale="  111.580">  2  5  1 -1</clus>
</clustering>
</event>
<event>
10    2  0.3984345E-006  0.9677270E+02  0.7546771E-02  0.1287991E+00
         21   -1    0    0  503  502  0.00000000000E+00  0.00000000000E+00  0.19016464033E+03  0.19016464033E+03  0.00000000000E+00 0. -1.
         -1   -1    0    0    0  501 -0.00000000000E+00 -0.00000000000E+00 -0.31809717374E+03  0.31809717374E+03  0.00000000000E+00 0.  1.
         23    2    1    2    0    0 -0.14405566153E+02  0.24499580487E+02 -0.22758284003E+03  0.24690824960E+03  0.91443889140E+02 0.  0.
         23    2    1    2    0    0  0.95692663476E+01 -0.20140212598E+02 -0.19089610232E+02  0.97401314957E+02  0.92873052683E+02 0.  0.
        -11    1    3    3    0    0  0.23555375488E+02  0.45284589440E+02 -0.10165615683E+03  0.11375202845E+03  0.00000000000E+00 0.  1.
         11    1    3    3    0    0 -0.37960941641E+02 -0.20785008953E+02 -0.12592668320E+03  0.13315622114E+03  0.00000000000E+00 0. -1.
        -13    1    4    4    0    0 -0.21354003496E+02  0.26243854755E+02 -0.23934948075E+02  0.41444120416E+02  0.00000000000E+00 0.  1.
         13    1    4    4    0    0  0.30923269844E+02 -0.46384067353E+02  0.48453378431E+01  0.55957194541E+02  0.00000000000E+00 0. -1.
         21    1    1    2  503  501  0.16746451078E+02 -0.21582009157E+02 -0.13215348409E+02  0.30345875775E+02  0.00000000000E+00 0. -1.
         -1    1    1    2    0  502 -0.11910151273E+02  0.17222641268E+02  0.13195526526E+03  0.13360637375E+03  0.00000000000E+00 0.  1.
<scales pt_clust_5="13000.00000" pt_clust_6="13000.00000" pt_clust_7="13000.00000" pt_clust_8="13000.00000" pt_clust_9="24.19695" pt_clust_10="20.93970"></scales>
<clustering>
<clus scale="   20.940">  1 10  2 -1</clus>
<clus scale="   24.197">  1  9  2 -1</clus>
<clus scale="   91.444">  5  6 -1 -1</clus>
<clus scale="   92.873">  7  8 -1 -1</clus>
<clus scale="   95.402">  2  5  1 -1</clus>
<clus scale="   20.940">  1  5  2 -1</clus>
</clustering>
</event>
<event>
10    2  0.3984345E-006  0.1020894E+03  0.7546771E-02  0.1276937E+00
         -3   -1    0    0    0  501 -0.00000000000E+00  0.00000000000E+00  0.69297109410E+03  0.69297109410E+03  0.00000000000E+00 0.  1.
         21   -1    0    0  503  502  0.00000000000E+00 -0.00000000000E+00 -0.47544524008E+02  0.47544524008E+02  0.00000000000E+00 0.  1.
         23    2    1    2    0    0 -0.33577796026E+02  0.27455015554E+02  0.41550835828E+03  0.42734613040E+03  0.89979292631E+02 0.  0.
         23    2    1    2    0    0  0.29933897390E+02 -0.34846885460E+02  0.22096140201E+03  0.24374625200E+03  0.92075786956E+02 0.  0.
        -11    1    4    4    0    0  0.39692599293E+02 -0.10269366961E+02  0.21184340775E+03  0.21577440011E+03  0.00000000000E+00 0.  1.
         11    1    4    4    0    0 -0.97587019038E+01 -0.24577518499E+02  0.91179942609E+01  0.27971851883E+02  0.00000000000E+00 0. -1.
        -11    1    3    3    0    0 -0.42435100874E+02  0.55684748246E+02  0.30646521395E+03  0.31436039244E+03  0.00000000000E+00 0. -1.
         11    1    3    3    0    0  0.88573048485E+01 -0.28229732693E+02  0.10904314433E+03  0.11298573796E+03  0.00000000000E+00 0.  1.
         21    1    1    2  503  501  0.25086008366E+02 -0.39437594053E+01  0.28574991144E+02  0.38228146344E+02  0.00000000000E+00 0.  1.
         -3    1    1    2    0  502 -0.21442109730E+02  0.11335629312E+02 -0.19618181344E+02  0.31195089370E+02  0.00000000000E+00 0.  1.
<scales pt_clust_5="13000.00000" pt_clust_6="13000.00000" pt_clust_7="13000.00000" pt_clust_8="13000.00000" pt_clust_9="20.46416" pt_clust_10="24.25408"></scales>
<clustering>
<clus scale="   24.254">  2 10  1 -1</clus>
<clus scale="   20.464">  2  9  1 -1</clus>
<clus scale="   89.979">  7  8 -1 -1</clus>
<clus scale="   92.076">  5  6 -1 -1</clus>
<clus scale="  100.203">  1  7  2 -1</clus>
<clus scale="   24.254">  2  5  1 -1</clus>
</clustering>
</event>
<event>
10    2  0.3984345E-006  0.1422550E+03  0.7546771E-02  0.1231049E+00
         -2   -1    0    0    0  501 -0.00000000000E+00  0.00000000000E+00  0.76180114100E+03  0.76180114100E+03  0.00000000000E+00 0.  1.
         21   -1    0    0  503  502  0.00000000000E+00 -0.00000000000E+00 -0.40387184759E+03  0.40387184759E+03  0.00000000000E+00 0.  1.
         23    2    1    2    0    0  0.84735774178E+02  0.18527526484E+02  0.11678304143E+02  0.12754936603E+03  0.92784898147E+02 0.  0.
         23    2    1    2    0    0 -0.31486417912E+02 -0.78557525219E+01  0.86874202212E+02  0.12923817211E+03  0.90012614453E+02 0.  0.
        -11    1    4    4    0    0 -0.26444474581E+02 -0.38171883914E+02  0.11500675907E+02  0.47840030348E+02  0.00000000000E+00 0.  1.
         11    1    4    4    0    0 -0.50419433311E+01  0.30316131392E+02  0.75373526305E+02  0.81398141765E+02  0.00000000000E+00 0. -1.
        -13    1    3    3    0    0  0.60612931979E+02 -0.28360031302E+02 -0.14813471741E+02  0.68539461944E+02  0.00000000000E+00 0. -1.
         13    1    3    3    0    0  0.24122842199E+02  0.46887557786E+02  0.26491775885E+02  0.59009904088E+02  0.00000000000E+00 0.  1.
         21    1    1    2  503  501 -0.10965828385E+03 -0.58257488917E+01  0.57644021493E+03  0.58680678247E+03  0.00000000000E+00 0.  1.
         -2    1    1    2    0  502  0.56408927588E+02 -0.48460250706E+01 -0.31706342788E+03  0.32207866798E+03  0.00000000000E+00 0.  1.
<scales pt_clust_5="13000.00000" pt_clust_6="13000.00000" pt_clust_7="13000.00000" pt_clust_8="13000.00000" pt_clust_9="107.83065" pt_clust_10="56.61670"></scales>
<clustering>
<clus scale="   56.617">  2 10  1 -1</clus>
<clus scale="   90.013">  5  6 -1 -1</clus>
<clus scale="   92.110">  2  5  1 -1</clus>
<clus scale="   92.785">  7  8 -1 -1</clus>
<clus scale="  107.831">  1  9  2 -1</clus>
<clus scale="   56.617">  2  5  1 -1</clus>
</clustering>
</event>
<event>
10    2  0.3984345E-006  0.1575605E+03  0.7546771E-02  0.1215157E+00
         21   -1    0    0  503  502  0.00000000000E+00  0.00000000000E+00  0.17168695951E+03  0.17168695951E+03  0.00000000000E+00 0.  1.
         -2   -1    0    0    0  501 -0.00000000000E+00 -0.00000000000E+00 -0.72895152583E+03  0.72895152583E+03  0.00000000000E+00 0.  1.
         23    2    1    2    0    0 -0.15872692115E+02  0.28552423274E-01 -0.28416997199E+03  0.29946974684E+03  0.93153706957E+02 0.  0.
         23    2    1    2    0    0  0.11779733463E+03 -0.16782242407E+02  0.77771672339E+02  0.16751321637E+03  0.88624990460E+02 0.  0.
        -13    1    3    3    0    0  0.14418838695E+02  0.40987729675E+02 -0.12386335603E+03  0.13126320070E+03  0.00000000000E+00 0.  1.
         13    1    3    3    0    0 -0.30291530810E+02 -0.40959177252E+02 -0.16030661596E+03  0.16820654613E+03  0.00000000000E+00 0. -1.
        -13    1    4    4    0    0 -0.92309969605E+00  0.23083821756E+02  0.10946029183E+02  0.25564242504E+02  0.00000000000E+00 0. -1.
         13    1    4    4    0    0  0.11872043432E+03 -0.39866064163E+02  0.66825643156E+02  0.14194897386E+03  0.00000000000E+00 0.  1.
         21    1    1    2  503  501 -0.11174016814E+03 -0.50544457131E+02 -0.34410921131E+03  0.36531049346E+03  0.00000000000E+00 0.  1.
         -2    1    1    2    0  502  0.98155256318E+01  0.67298147114E+02 -0.67570553609E+01  0.68345028682E+02  0.00000000000E+00 0.  1.
<scales pt_clust_5="13000.00000" pt_clust_6="13000.00000" pt_clust_7="13000.00000" pt_clust_8="13000.00000" pt_clust_9="130.27252" pt_clust_10="68.01018"></scales>
<clustering>
<clus scale="   68.010">  1 10  2 -1</clus>
<clus scale="   88.625">  7  8 -1 -1</clus>
<clus scale="   93.154">  5  6 -1 -1</clus>
<clus scale="   94.480">  2  5  1 -1</clus>
<clus scale="  130.273">  2  9  1 -1</clus>
<clus scale="   68.010">  1  5  2 -1</clus>
</clustering>
</event>
<event>
10    2  0.3984345E-006  0.1274326E+03  0.7546771E-02  0.1247778E+00
          1   -1    0    0  503    0 -0.00000000000E+00  0.00000000000E+00  0.23613721459E+03  0.23613721459E+03  0.00000000000E+00 0. -1.
         21   -1    0    0  501  502  0.00000000000E+00 -0.00000000000E+00 -0.33786922191E+03  0.33786922191E+03  0.00000000000E+00 0.  1.
         23    2    1    2    0    0  0.18499207652E+02  0.53796857544E+00  0.15022483026E+03  0.17574021864E+03  0.89300698364E+02 0.  0.
         23    2    1    2    0    0  0.82036789544E+02 -0.27359814340E+02 -0.24547132714E+03  0.27648638483E+03  0.93327135764E+02 0.  0.
        -13    1    4    4    0    0  0.76266506395E+02 -0.52346236270E+02 -0.22627717970E+03  0.24445463894E+03  0.00000000000E+00 0.  1.
         13    1    4    4    0    0  0.57702831495E+01  0.24986421929E+02 -0.19194147436E+02  0.32031745882E+02  0.00000000000E+00 0. -1.
        -13    1    3    3    0    0  0.22053958599E+02 -0.35088297046E+02  0.32428225185E+02  0.52622765683E+02  0.00000000000E+00 0.  1.
         13    1    3    3    0    0 -0.35547509471E+01  0.35626265621E+02  0.11779660507E+03  0.12311745296E+03  0.00000000000E+00 0. -1.
         21    1    1    2  503  502 -0.11593565226E+02  0.19880624013E+02  0.18057287653E+02  0.29252617031E+02  0.00000000000E+00 0. -1.
          1    1    1    2  501    0 -0.88942431970E+02  0.69412217518E+01 -0.24542798090E+02  0.92527216008E+02  0.00000000000E+00 0. -1.
<scales pt_clust_5="13000.00000" pt_clust_6="13000.00000" pt_clust_7="13000.00000" pt_clust_8="13000.00000" pt_clust_9="23.01413" pt_clust_10="86.77057"></scales>
<clustering>
<clus scale="   23.014">  1  9  2 -1</clus>
<clus scale="   89.301">  7  8 -1 -1</clus>
<clus scale="   91.193">  1  7  2 -1</clus>
<clus scale="   86.771">  2 10  1 -1</clus>
<clus scale="   93.327">  5  6 -1 -1</clus>
<clus scale="   86.771">  2  5  1 -1</clus>
</clustering>
</event>
<event>
10    2  0.3984345E-006  0.1023097E+03  0.7546771E-02  0.1277641E+00
         21   -1    0    0  503  502  0.00000000000E+00  0.00000000000E+00  0.13829077660E+03  0.13829077660E+03  0.00000000000E+00 0. -1.
         -1   -1    0    0    0  501 -0.00000000000E+00 -0.00000000000E+00 -0.35869499431E+03  0.35869499431E+03  0.00000000000E+00 0.  1.
         23    2    1    2    0    0  0.72047619698E+01 -0.45626993342E+02 -0.98354481598E+02  0.14214942861E+03  0.91646739645E+02 0.  0.
         23    2    1    2    0    0 -0.31374994465E+02  0.98117055737E+01 -0.37999986110E+02  0.10836323493E+03  0.96010061429E+02 0.  0.
        -11    1    3    3    0    0  0.37811768297E+02 -0.13607637255E+02 -0.72318792714E+01  0.40831332225E+02  0.00000000000E+00 0.  1.
         11    1    3    3    0    0 -0.30607006328E+02 -0.32019356087E+02 -0.91122602327E+02  0.10131809639E+03  0.00000000000E+00 0. -1.
        -13    1    4    4    0    0 -0.12832104587E+02  0.45033644821E+02 -0.48274100745E+02  0.67253853992E+02  0.00000000000E+00 0.  1.
         13    1    4    4    0    0 -0.18542889878E+02 -0.35221939248E+02  0.10274114635E+02  0.41109380936E+02  0.00000000000E+00 0. -1.
         21    1    1    2  503  501 -0.22644415066E+02 -0.72138018277E+01 -0.15174695926E+03  0.15359670607E+03  0.00000000000E+00 0. -1.
         -1    1    1    2    0  502  0.46814647561E+02  0.43029089596E+02  0.67697209259E+02  0.92876401304E+02  0.00000000000E+00 0.  1.
<scales pt_clust_5="13000.00000" pt_clust_6="13000.00000" pt_clust_7="13000.00000" pt_clust_8="13000.00000" pt_clust_9="23.76570" pt_clust_10="62.27140"></scales>
<clustering>
<clus scale="   23.766">  2  9  1 -1</clus>
<clus scale="   62.271">  1 10  2 -1</clus>
<clus scale="   91.647">  5  6 -1 -1</clus>
<clus scale="   96.010">  7  8 -1 -1</clus>
<clus scale="   98.227">  2  5  1 -1</clus>
<clus scale="   62.271">  1  5  2 -1</clus>
</clustering>
</event>
<event>
10    2  0.3984345E-006  0.1748961E+03  0.7546771E-02  0.1172922E+00
         21   -1    0    0  501  502  0.00000000000E+00  0.00000000000E+00  0.94385768589E+02  0.94385768589E+02  0.00000000000E+00 0.  1.
          1   -1    0    0  503    0 -0.00000000000E+00 -0.00000000000E+00 -0.10588862514E+04  0.10588862514E+04  0.00000000000E+00 0. -1.
         23    2    1    2    0    0  0.72356248936E+02 -0.12476733629E+03 -0.55755962285E+03  0.58321425449E+03  0.91999014375E+02 0.  0.
         23    2    1    2    0    0 -0.22226679866E+02  0.14058566050E+03 -0.27253596248E+03  0.32111833702E+03  0.92643306758E+02 0.  0.
        -11    1    4    4    0    0 -0.54830030577E+02  0.93955746458E+02 -0.14331445037E+03  0.17992511284E+03  0.00000000000E+00 0. -1.
         11    1    4    4    0    0  0.32603350711E+02  0.46629914043E+02 -0.12922151212E+03  0.14119322418E+03  0.00000000000E+00 0.  1.
        -13    1    3    3    0    0 -0.14956508426E+02 -0.14973384164E+02 -0.26361302922E+02  0.33805586363E+02  0.00000000000E+00 0.  1.
         13    1    3    3    0    0  0.87312757362E+02 -0.10979395213E+03 -0.53119831993E+03  0.54940866813E+03  0.00000000000E+00 0. -1.
         21    1    1    2  503  502  0.43829358075E+01 -0.32075459556E+02 -0.17569249817E+03  0.17865021451E+03  0.00000000000E+00 0. -1.
          1    1    1    2  501    0 -0.54512504878E+02  0.16257135346E+02  0.41287600653E+02  0.70289214004E+02  0.00000000000E+00 0. -1.
<scales pt_clust_5="13000.00000" pt_clust_6="13000.00000" pt_clust_7="13000.00000" pt_clust_8="13000.00000" pt_clust_9="32.37353" pt_clust_10="56.66728"></scales>
<clustering>
<clus scale="   32.374">  2  9  1 -1</clus>
<clus scale="   56.667">  1 10  2 -1</clus>
<clus scale="   91.999">  7  8 -1 -1</clus>
<clus scale="   92.643">  5  6 -1 -1</clus>
<clus scale="  174.556">  2  7  1 -1</clus>
<clus scale="   56.667">  1  5  2 -1</clus>
</clustering>
</event>
<event>
10    2  0.3984345E-006  0.1001792E+03  0.7546771E-02  0.1279942E+00
         21   -1    0    0  501  502  0.00000000000E+00  0.00000000000E+00  0.11194259457E+03  0.11194259457E+03  0.00000000000E+00 0. -1.
          1   -1    0    0  503    0 -0.00000000000E+00 -0.00000000000E+00 -0.35744504869E+03  0.35744504869E+03  0.00000000000E+00 0. -1.
         23    2    1    2    0    0  0.30849665733E+02  0.11322740775E+02  0.80085367547E+01  0.97257446031E+02  0.91186445336E+02 0.  0.
         23    2    1    2    0    0 -0.47965698844E+02 -0.90509239649E+01 -0.88331435176E+01  0.10384634701E+03  0.91232734650E+02 0.  0.
        -11    1    4    4    0    0 -0.58211146733E+02  0.14269088065E+02  0.22007368907E+02  0.63847229888E+02  0.00000000000E+00 0. -1.
         11    1    4    4    0    0  0.10245447890E+02 -0.23320012030E+02 -0.30840512424E+02  0.39999117117E+02  0.00000000000E+00 0.  1.
        -11    1    3    3    0    0 -0.15740940112E+02 -0.19325499764E+02 -0.22597355969E+02  0.33643612076E+02  0.00000000000E+00 0. -1.
         11    1    3    3    0    0  0.46590605845E+02  0.30648240539E+02  0.30605892723E+02  0.63613833955E+02  0.00000000000E+00 0.  1.
         21    1    1    2  503  502 -0.21906990744E+02 -0.17735032423E+02 -0.21508955148E+03  0.21692847387E+03  0.00000000000E+00 0. -1.
          1    1    1    2  501    0  0.39023023855E+02  0.15463215613E+02 -0.29588295876E+02  0.51355376356E+02  0.00000000000E+00 0. -1.
<scales pt_clust_5="13000.00000" pt_clust_6="13000.00000" pt_clust_7="13000.00000" pt_clust_8="13000.00000" pt_clust_9="28.18595" pt_clust_10="34.36228"></scales>
<clustering>
<clus scale="   28.186">  2  9  1 -1</clus>
<clus scale="   34.362">  1 10  2 -1</clus>
<clus scale="   91.186">  7  8 -1 -1</clus>
<clus scale="   91.233">  5  6 -1 -1</clus>
<clus scale="  100.137">  2  7  1 -1</clus>
<clus scale="   34.362">  1  5  2 -1</clus>
</clustering>
</event>
<event>
10    2  0.3984345E-006  0.9991383E+02  0.7546771E-02  0.1281503E+00
         21   -1    0    0  501  502  0.00000000000E+00  0.00000000000E+00  0.29342519951E+03  0.29342519951E+03  0.00000000000E+00 0.  1.
          3   -1    0    0  503    0 -0.00000000000E+00 -0.00000000000E+00 -0.17579722947E+03  0.17579722947E+03  0.00000000000E+00 0. -1.
         23    2    1    2    0    0 -0.34936007322E+02  0.76236795744E+01 -0.12173766211E+03  0.15723667641E+03  0.92869095687E+02 0.  0.
         23    2    1    2    0    0  0.95092253497E+01  0.25552021324E+02  0.14900134118E+03  0.17660064832E+03  0.90791288975E+02 0.  0.
        -11    1    3    3    0    0 -0.31897323378E+02  0.28113219716E+02 -0.12857578146E+03  0.13542349847E+03  0.00000000000E+00 0. -1.
         11    1    3    3    0    0 -0.30386839440E+01 -0.20489540141E+02  0.68381193480E+01  0.21813177933E+02  0.00000000000E+00 0.  1.
        -13    1    4    4    0    0  0.28289365393E+02 -0.22472412982E+02  0.30192048628E+02  0.47083514524E+02  0.00000000000E+00 0.  1.
         13    1    4    4    0    0 -0.18780140043E+02  0.48024434307E+02  0.11880929255E+03  0.12951713380E+03  0.00000000000E+00 0. -1.
         21    1    1    2  503  502  0.32711758317E+01 -0.34991522882E+02 -0.67264322082E+01  0.35782008820E+02  0.00000000000E+00 0. -1.
          3    1    1    2  501    0  0.22155606140E+02  0.18158219837E+01  0.97090723179E+02  0.99603095435E+02  0.00000000000E+00 0. -1.
<scales pt_clust_5="13000.00000" pt_clust_6="13000.00000" pt_clust_7="13000.00000" pt_clust_8="13000.00000" pt_clust_9="35.20197" pt_clust_10="22.22989"></scales>
<clustering>
<clus scale="   22.230">  1 10  2 -1</clus>
<clus scale="   35.202">  2  9  1 -1</clus>
<clus scale="   90.791">  7  8 -1 -1</clus>
<clus scale="   92.869">  5  6 -1 -1</clus>
<clus scale="   97.986">  1  7  2 -1</clus>
<clus scale="   22.230">  1  5  2 -1</clus>
</clustering>
</event>
<event>
10    2  0.3984345E-006  0.1507733E+03  0.7546771E-02  0.1199589E+00
         21   -1    0    0  501  502  0.00000000000E+00  0.00000000000E+00  0.13638903681E+04  0.13638903681E+04  0.00000000000E+00 0.  1.
          4   -1    0    0  503    0 -0.00000000000E+00 -0.00000000000E+00 -0.80427031710E+02  0.80427031710E+02  0.00000000000E+00 0. -1.
         23    2    1    2    0    0 -0.23844561164E+02  0.89382809598E+02  0.22161301858E+03  0.25597759293E+03  0.88624761371E+02 0.  0.
         23    2    1    2    0    0  0.57284862274E+02 -0.17510104518E+03  0.45436189590E+03  0.49830000238E+03  0.88973189523E+02 0.  0.
        -11    1    3    3    0    0 -0.26352309653E+02 -0.81368300123E+01  0.28709336472E+02  0.39810529102E+02  0.00000000000E+00 0. -1.
         11    1    3    3    0    0  0.25077484893E+01  0.97519639610E+02  0.19290368211E+03  0.21616706382E+03  0.00000000000E+00 0.  1.
        -13    1    4    4    0    0  0.39267570110E+02 -0.15001855564E+03  0.43508542422E+03  0.46189483161E+03  0.00000000000E+00 0.  1.
         13    1    4    4    0    0  0.18017292165E+02 -0.25082489535E+02  0.19276471686E+02  0.36405170771E+02  0.00000000000E+00 0. -1.
         21    1    1    2  503  502 -0.17692287719E+02 -0.11149378189E+02 -0.34635729315E+02  0.40459355209E+02  0.00000000000E+00 0. -1.
          4    1    1    2  501    0 -0.15748013391E+02  0.96867613766E+02  0.64212415119E+03  0.64958044926E+03  0.00000000000E+00 0. -1.
<scales pt_clust_5="13000.00000" pt_clust_6="13000.00000" pt_clust_7="13000.00000" pt_clust_8="13000.00000" pt_clust_9="20.91233" pt_clust_10="97.44376"></scales>
<clustering>
<clus scale="   20.912">  2  9  1 -1</clus>
<clus scale="   88.625">  5  6 -1 -1</clus>
<clus scale="   88.973">  7  8 -1 -1</clus>
<clus scale="   97.444">  1 10  2 -1</clus>
<clus scale="  150.568">  2  5  1 -1</clus>
<clus scale="   97.444">  1  5  2 -1</clus>
</clustering>
</event>
<event>
10    2  0.3984345E-006  0.1319989E+03  0.7546771E-02  0.1236267E+00
          1   -1    0    0  503    0 -0.00000000000E+00  0.00000000000E+00  0.89715921933E+03  0.89715921933E+03  0.00000000000E+00 0. -1.
         21   -1    0    0  501  502  0.00000000000E+00 -0.00000000000E+00 -0.10145516954E+03  0.10145516954E+03  0.00000000000E+00 0. -1.
         23    2    1    2    0    0 -0.32768466788E+02  0.28696881309E+02  0.28301624423E+03  0.30013016521E+03  0.89903493578E+02 0.  0.
         23    2    1    2    0    0 -0.53653787045E+02 -0.41168443379E+02  0.37420438738E+03  0.39108641905E+03  0.91356959423E+02 0.  0.
        -13    1    3    3    0    0 -0.16554844894E+01  0.57425902828E+02  0.15619097594E+03  0.16642144066E+03  0.00000000000E+00 0. -1.
         13    1    3    3    0    0 -0.31112982298E+02 -0.28729021519E+02  0.12682526829E+03  0.13370872456E+03  0.00000000000E+00 0.  1.
        -13    1    4    4    0    0 -0.76809558162E+02 -0.14474157053E+02  0.24772682557E+03  0.25976487360E+03  0.00000000000E+00 0. -1.
         13    1    4    4    0    0  0.23155771117E+02 -0.26694286326E+02  0.12647756181E+03  0.13132154545E+03  0.00000000000E+00 0.  1.
         21    1    1    2  503  502 -0.87228771458E+02  0.14191406153E+02  0.92116991034E+02  0.12765498273E+03  0.00000000000E+00 0.  1.
          1    1    1    2  501    0  0.17365102529E+03 -0.17198440827E+01  0.46366427135E+02  0.17974282187E+03  0.00000000000E+00 0. -1.
<scales pt_clust_5="13000.00000" pt_clust_6="13000.00000" pt_clust_7="13000.00000" pt_clust_8="13000.00000" pt_clust_9="88.37564" pt_clust_10="95.27652"></scales>
<clustering>
<clus scale="   88.376">  2  9  1 -1</clus>
<clus scale="   89.903">  5  6 -1 -1</clus>
<clus scale="   91.357">  7  8 -1 -1</clus>
<clus scale="  103.583">  1  5  2 -1</clus>
<clus scale="   95.277">  2 10  1 -1</clus>
<clus scale="   88.376">  2  5  1 -1</clus>
</clustering>
</event>
<event>
10    2  0.3984345E-006  0.1308284E+03  0.7546771E-02  0.1226304E+00
          3   -1    0    0  503    0 -0.00000000000E+00  0.00000000000E+00  0.36304962407E+03  0.36304962407E+03  0.00000000000E+00 0. -1.
         21   -1    0    0  501  502  0.00000000000E+00 -0.00000000000E+00 -0.17900382348E+03  0.17900382348E+03  0.00000000000E+00 0.  1.
         23    2    1    2    0    0  0.80006058958E+02 -0.47436785973E+02  0.71931102589E+02  0.14880357979E+03  0.91198704513E+02 0.  0.
         23    2    1    2    0    0 -0.53392537990E+02  0.12365340885E+03 -0.14699099192E+02  0.16347885021E+03  0.91478644033E+02 0.  0.
        -11    1    4    4    0    0 -0.54749284526E+01  0.65195754422E+02 -0.47734626409E+02  0.80987997843E+02  0.00000000000E+00 0.  1.
         11    1    4    4    0    0 -0.47917609538E+02  0.58457654430E+02  0.33035527217E+02  0.82490852364E+02  0.00000000000E+00 0. -1.
        -13    1    3    3    0    0  0.38724772685E+02  0.13380346177E+02 -0.63064721113E+01  0.41453748610E+02  0.00000000000E+00 0.  1.
         13    1    3    3    0    0  0.41281286272E+02 -0.60817132149E+02  0.78237574700E+02  0.10734983118E+03  0.00000000000E+00 0. -1.
         21    1    1    2  503  502  0.30303014987E+01  0.53796191022E+02  0.59922243252E+02  0.80584664373E+02  0.00000000000E+00 0.  1.
          3    1    1    2  501    0 -0.29643822466E+02 -0.13001281390E+03  0.66891553942E+02  0.14918635319E+03  0.00000000000E+00 0. -1.
<scales pt_clust_5="13000.00000" pt_clust_6="13000.00000" pt_clust_7="13000.00000" pt_clust_8="13000.00000" pt_clust_9="53.88147" pt_clust_10="113.79592"></scales>
<clustering>
<clus scale="   53.881">  1  9  2 -1</clus>
<clus scale="   91.199">  7  8 -1 -1</clus>
<clus scale="   91.479">  5  6 -1 -1</clus>
<clus scale="  113.796">  2 10  1 -1</clus>
<clus scale="  130.633">  1  7  2 -1</clus>
<clus scale="  113.796">  2  5  1 -1</clus>
</clustering>
</event>
<event>
10    2  0.3984345E-006  0.1929689E+03  0.7546771E-02  0.1155960E+00
         -3   -1    0    0    0  501 -0.00000000000E+00  0.00000000000E+00  0.30330459192E+03  0.30330459192E+03  0.00000000000E+00 0.  1.
         21   -1    0    0  503  502  0.00000000000E+00 -0.00000000000E+00 -0.33574655069E+03  0.33574655069E+03  0.00000000000E+00 0. -1.
         23    2    1    2    0    0 -0.13412333254E+03  0.37817209804E+02  0.87408071501E+02  0.18729722583E+03  0.89559310798E+02 0.  0.
         23    2    1    2    0    0  0.15052291444E+03 -0.70019046373E+02 -0.13732090102E+03  0.23387460995E+03  0.90997190598E+02 0.  0.
        -11    1    4    4    0    0  0.13736975651E+03 -0.89840904305E+02 -0.12867107898E+03  0.20856194441E+03  0.00000000000E+00 0. -1.
         11    1    4    4    0    0  0.13153157928E+02  0.19821857933E+02 -0.86498220330E+01  0.25312665537E+02  0.00000000000E+00 0.  1.
        -13    1    3    3    0    0 -0.27833946809E+02  0.24377533556E+02  0.69416177736E+02  0.78661289518E+02  0.00000000000E+00 0. -1.
         13    1    3    3    0    0 -0.10628938573E+03  0.13439676248E+02  0.17991893765E+02  0.10863593631E+03  0.00000000000E+00 0.  1.
         21    1    1    2  503  501 -0.56379089651E+02  0.91206861322E+01  0.10465677689E+03  0.11922596032E+03  0.00000000000E+00 0. -1.
         -3    1    1    2    0  502  0.39979507747E+02  0.23081150437E+02 -0.87185906154E+02  0.98653346507E+02  0.00000000000E+00 0.  1.
<scales pt_clust_5="13000.00000" pt_clust_6="13000.00000" pt_clust_7="13000.00000" pt_clust_8="13000.00000" pt_clust_9="56.04552" pt_clust_10="46.16384"></scales>
<clustering>
<clus scale="   46.164">  2 10  1 -1</clus>
<clus scale="   56.046">  1  9  2 -1</clus>
<clus scale="   89.559">  7  8 -1 -1</clus>
<clus scale="   90.997">  5  6 -1 -1</clus>
<clus scale="  192.295">  1  7  2 -1</clus>
<clus scale="   46.164">  2  5  1 -1</clus>
</clustering>
</event>
<event>
10    2  0.3984345E-006  0.9285882E+02  0.7546771E-02  0.1296731E+00
          1   -1    0    0  503    0 -0.00000000000E+00  0.00000000000E+00  0.37681128265E+03  0.37681128265E+03  0.00000000000E+00 0. -1.
         21   -1    0    0  501  502  0.00000000000E+00 -0.00000000000E+00 -0.86784458606E+02  0.86784458606E+02  0.00000000000E+00 0.  1.
         23    2    1    2    0    0  0.66525722396E+00  0.29534929504E+02  0.21429877072E+03  0.23398412041E+03  0.89173150907E+02 0.  0.
         23    2    1    2    0    0 -0.23462350613E+02 -0.30394108544E+02  0.70977274755E+02  0.12112696553E+03  0.90330972074E+02 0.  0.
        -13    1    3    3    0    0  0.43273398943E+02  0.13574273973E+02  0.13673482566E+03  0.14405991989E+03  0.00000000000E+00 0. -1.
         13    1    3    3    0    0 -0.42608141719E+02  0.15960655531E+02  0.77563945057E+02  0.89924200516E+02  0.00000000000E+00 0.  1.
        -13    1    4    4    0    0  0.22625911091E+02 -0.23793551815E+02 -0.37863115747E+01  0.33051491887E+02  0.00000000000E+00 0.  1.
         13    1    4    4    0    0 -0.46088261704E+02 -0.66005567287E+01  0.74763586330E+02  0.88075473640E+02  0.00000000000E+00 0. -1.
         21    1    1    2  503  502 -0.34079680132E+01 -0.22826471636E+02  0.47631603962E+02  0.52928553252E+02  0.00000000000E+00 0.  1.
          1    1    1    2  501    0  0.26205061402E+02  0.23685650676E+02 -0.42880825391E+02  0.55556102070E+02  0.00000000000E+00 0. -1.
<scales pt_clust_5="13000.00000" pt_clust_6="13000.00000" pt_clust_7="13000.00000" pt_clust_8="13000.00000" pt_clust_9="23.07947" pt_clust_10="34.97802"></scales>
<clustering>
<clus scale="   23.079">  1  9  2 -1</clus>
<clus scale="   34.978">  2 10  1 -1</clus>
<clus scale="   89.173">  5  6 -1 -1</clus>
<clus scale="   90.331">  7  8 -1 -1</clus>
<clus scale="   91.733">  1  5  2 -1</clus>
<clus scale="   34.978">  2  5  1 -1</clus>
</clustering>
</event>
<event>
10    2  0.3984345E-006  0.3800343E+03  0.7546771E-02  0.1051055E+00
         21   -1    0    0  503  502  0.00000000000E+00  0.00000000000E+00  0.11078036134E+04  0.11078036134E+04  0.00000000000E+00 0. -1.
         -1   -1    0    0    0  501 -0.00000000000E+00 -0.00000000000E+00 -0.26786330131E+03  0.26786330131E+03  0.00000000000E+00 0.  1.
         23    2    1    2    0    0 -0.34205624190E+03  0.19666649880E+03  0.17264006392E+03  0.44047569733E+03  0.92379997272E+02 0.  0.
         23    2    1    2    0    0  0.29401493649E+03 -0.17164997818E+03  0.56950521652E+03  0.67072985528E+03  0.98152173824E+02 0.  0.
        -11    1    3    3    0    0 -0.27808299495E+02 -0.95072736896E+01  0.12454857635E+02  0.31918854186E+02  0.00000000000E+00 0.  1.
         11    1    3    3    0    0 -0.31424794240E+03  0.20617377249E+03  0.16018520629E+03  0.40855684315E+03  0.00000000000E+00 0. -1.
        -13    1    4    4    0    0  0.11369000606E+03 -0.76852604576E+02  0.14370535255E+03  0.19870321754E+03  0.00000000000E+00 0. -1.
         13    1    4    4    0    0  0.18032493042E+03 -0.94797373603E+02  0.42579986397E+03  0.47202663774E+03  0.00000000000E+00 0.  1.
         21    1    1    2  503  501  0.21603438786E+02 -0.14971747528E+02 -0.80115469299E+02  0.84316962780E+02  0.00000000000E+00 0.  1.
         -1    1    1    2    0  502  0.26437866628E+02 -0.10044773094E+02  0.17791050093E+03  0.18014439930E+03  0.00000000000E+00 0.  1.
<scales pt_clust_5="13000.00000" pt_clust_6="13000.00000" pt_clust_7="13000.00000" pt_clust_8="13000.00000" pt_clust_9="26.28425" pt_clust_10="28.43529"></scales>
<clustering>
<clus scale="   26.284">  2  9  1 -1</clus>
<clus scale="   28.435">  1 10  2 -1</clus>
<clus scale="   92.380">  5  6 -1 -1</clus>
<clus scale="   98.152">  7  8 -1 -1</clus>
<clus scale="  378.585">  2  5  1 -1</clus>
<clus scale="   28.435">  1  5  2 -1</clus>
</clustering>
</event>
<event>
10    2  0.3984345E-006  0.2941403E+03  0.7546771E-02  0.1088280E+00
         21   -1    0    0  501  502  0.00000000000E+00  0.00000000000E+00  0.18701760682E+03  0.18701760682E+03  0.00000000000E+00 0. -1.
          2   -1    0    0  503    0 -0.00000000000E+00 -0.00000000000E+00 -0.12004306846E+04  0.12004306846E+04  0.00000000000E+00 0. -1.
         23    2    1    2    0    0  0.21747521984E+03  0.20248206147E+02 -0.40173153937E+03  0.46664599934E+03  0.93084896059E+02 0.  0.
         23    2    1    2    0    0 -0.28666997286E+03  0.11966784166E+03 -0.80203826896E+02  0.33355888316E+03  0.91262308871E+02 0.  0.
        -11    1    4    4    0    0 -0.26338501078E+02  0.44178963756E+02 -0.23906636839E+02  0.56718821943E+02  0.00000000000E+00 0.  1.
         11    1    4    4    0    0 -0.26033147178E+03  0.75488877900E+02 -0.56297190057E+02  0.27684006122E+03  0.00000000000E+00 0. -1.
        -13    1    3    3    0    0  0.30665293358E+02 -0.98287600662E+01 -0.13811072272E+02  0.35038699440E+02  0.00000000000E+00 0.  1.
         13    1    3    3    0    0  0.18680992648E+03  0.30076966213E+02 -0.38792046710E+03  0.43160729990E+03  0.00000000000E+00 0. -1.
         21    1    1    2  503  502  0.10491049547E+03 -0.91900695572E+02 -0.50107082779E+03  0.52011914440E+03  0.00000000000E+00 0. -1.
          2    1    1    2  501    0 -0.35715742451E+02 -0.48015352230E+02 -0.30406883709E+02  0.67124264506E+02  0.00000000000E+00 0. -1.
<scales pt_clust_5="13000.00000" pt_clust_6="13000.00000" pt_clust_7="13000.00000" pt_clust_8="13000.00000" pt_clust_9="139.78037" pt_clust_10="59.84220"></scales>
<clustering>
<clus scale="   59.842">  1 10  2 -1</clus>
<clus scale="   91.262">  5  6 -1 -1</clus>
<clus scale="   93.085">  7  8 -1 -1</clus>
<clus scale="  139.780">  2  9  1 -1</clus>
<clus scale="  293.569">  1  5  2 -1</clus>
<clus scale="   59.842">  1  5  2 -1</clus>
</clustering>
</event>
<event>
10    2  0.3984345E-006  0.1266866E+03  0.7546771E-02  0.1233548E+00
         21   -1    0    0  501  502  0.00000000000E+00  0.00000000000E+00  0.29203799251E+03  0.29203799251E+03  0.00000000000E+00 0. -1.
         -1   -1    0    0    0  501 -0.00000000000E+00 -0.00000000000E+00 -0.11137799041E+03  0.11137799041E+03  0.00000000000E+00 0.  1.
         23    2    1    2    0    0 -0.57316706136E+02 -0.83450547610E+02  0.14215050626E+02  0.13183777982E+03  0.83246224093E+02 0.  0.
         23    2    1    2    0    0  0.54581478402E+02  0.54336481357E+02  0.91922791183E+02  0.14837428292E+03  0.87370116755E+02 0.  0.
        -11    1    4    4    0    0  0.35193041429E+02  0.72825596674E+02  0.90741632744E+02  0.12155723594E+03  0.00000000000E+00 0.  1.
         11    1    4    4    0    0  0.19388436973E+02 -0.18489115316E+02  0.11811584385E+01  0.26817046979E+02  0.00000000000E+00 0. -1.
        -11    1    3    3    0    0 -0.56768094969E+02 -0.36262450888E+02  0.39715047734E+02  0.78197614845E+02  0.00000000000E+00 0. -1.
         11    1    3    3    0    0 -0.54861116641E+00 -0.47188096722E+02 -0.25499997108E+02  0.53640164978E+02  0.00000000000E+00 0.  1.
         21    1    1    2  503  502 -0.36563208692E+02 -0.13836951614E+02  0.37758391013E+02  0.54350948029E+02  0.00000000000E+00 0. -1.
         -1    1    1    2    0  503  0.39298436426E+02  0.42951017867E+02  0.36763769277E+02  0.68852972142E+02  0.00000000000E+00 0.  1.
<scales pt_clust_5="13000.00000" pt_clust_6="13000.00000" pt_clust_7="13000.00000" pt_clust_8="13000.00000" pt_clust_9="39.09385" pt_clust_10="50.86722"></scales>
<clustering>
<clus scale="   39.094">  1  9  2 -1</clus>
<clus scale="   50.867">  1 10  2 -1</clus>
<clus scale="   83.246">  7  8 -1 -1</clus>
<clus scale="   87.370">  5  6 -1 -1</clus>
<clus scale="  123.878">  2  7  1 -1</clus>
<clus scale="   39.094">  1  5  2 -1</clus>
</clustering>
</event>
<event>
10    2  0.3984345E-006  0.9427898E+02  0.7546771E-02  0.1294238E+00
          1   -1    0    0  502    0 -0.00000000000E+00  0.00000000000E+00  0.10594529212E+03  0.10594529212E+03  0.00000000000E+00 0. -1.
         21   -1    0    0  503  502  0.00000000000E+00 -0.00000000000E+00 -0.78588313692E+03  0.78588313692E+03  0.00000000000E+00 0. -1.
         23    2    1    2    0    0  0.99559817670E+00 -0.10854512789E+02  0.15343316275E+02  0.92790270571E+02  0.90861462098E+02 0.  0.
         23    2    1    2    0    0  0.54681686556E+02  0.48036964321E+02 -0.64939670842E+03  0.66009891389E+03  0.93364096015E+02 0.  0.
        -11    1    4    4    0    0  0.80501098589E+02  0.45199028778E+02 -0.49614003234E+03  0.50465662660E+03  0.00000000000E+00 0. -1.
         11    1    4    4    0    0 -0.25819412033E+02  0.28379355434E+01 -0.15325667608E+03  0.15544228729E+03  0.00000000000E+00 0.  1.
        -11    1    3    3    0    0 -0.24495015334E+02  0.20916448464E+02 -0.20792845927E+02  0.38338571104E+02  0.00000000000E+00 0.  1.
         11    1    3    3    0    0  0.25490613510E+02 -0.31770961253E+02  0.36136162202E+02  0.54451699467E+02  0.00000000000E+00 0. -1.
         21    1    1    2  503  501 -0.31488859857E+02  0.14381959835E+02 -0.69215711922E+02  0.77389946638E+02  0.00000000000E+00 0.  1.
          1    1    1    2  501    0 -0.24188424876E+02 -0.51564411367E+02  0.23331259268E+02  0.61549297937E+02  0.00000000000E+00 0. -1.
<scales pt_clust_5="13000.00000" pt_clust_6="13000.00000" pt_clust_7="13000.00000" pt_clust_8="13000.00000" pt_clust_9="34.61776" pt_clust_10="56.97289"></scales>
<clustering>
<clus scale="   34.618">  2  9  1 -1</clus>
<clus scale="   56.973">  2 10  1 -1</clus>
<clus scale="   90.861">  7  8 -1 -1</clus>
<clus scale="   91.801">  1  7  2 -1</clus>
<clus scale="   93.364">  5  6 -1 -1</clus>
<clus scale="   34.618">  2  5  1 -1</clus>
</clustering>
</event>
<event>
10    2  0.3984345E-006  0.9690267E+02  0.7546771E-02  0.1287286E+00
         21   -1    0    0  501  502  0.00000000000E+00  0.00000000000E+00  0.21088073441E+03  0.21088073441E+03  0.00000000000E+00 0. -1.
          1   -1    0    0  503    0 -0.00000000000E+00 -0.00000000000E+00 -0.47593095543E+03  0.47593095543E+03  0.00000000000E+00 0. -1.
         23    2    1    2    0    0  0.53540079832E+02  0.93808121329E+01 -0.31825734416E+03  0.33532300960E+03  0.90549676250E+02 0.  0.
         23    2    1    2    0    0  0.12173379153E+02 -0.46935816797E+01 -0.43171012393E+02  0.10174505789E+03  0.91203616293E+02 0.  0.
        -11    1    3    3    0    0  0.12212855848E+02 -0.26258378863E+02 -0.29075595245E+02  0.41037136198E+02  0.00000000000E+00 0.  1.
         11    1    3    3    0    0  0.41327223984E+02  0.35639190996E+02 -0.28918174891E+03  0.29428587340E+03  0.00000000000E+00 0. -1.
        -13    1    4    4    0    0 -0.16908063270E+01  0.33447655224E+02 -0.50410760920E+02  0.60521477861E+02  0.00000000000E+00 0.  1.
         13    1    4    4    0    0  0.13864185480E+02 -0.38141236904E+02  0.72397485273E+01  0.41223580028E+02  0.00000000000E+00 0. -1.
         21    1    1    2  503  502 -0.21410904500E+02  0.27349249258E+02 -0.68084153178E+02  0.76432062516E+02  0.00000000000E+00 0. -1.
          1    1    1    2  501    0 -0.44302554485E+02 -0.32036479711E+02  0.16446228871E+03  0.17331155984E+03  0.00000000000E+00 0. -1.
<scales pt_clust_5="13000.00000" pt_clust_6="13000.00000" pt_clust_7="13000.00000" pt_clust_8="13000.00000" pt_clust_9="34.73339" pt_clust_10="54.68806"></scales>
<clustering>
<clus scale="   34.733">  2  9  1 -1</clus>
<clus scale="   54.688">  1 10  2 -1</clus>
<clus scale="   90.550">  5  6 -1 -1</clus>
<clus scale="   91.204">  7  8 -1 -1</clus>
<clus scale="   96.287">  2  5  1 -1</clus>
<clus scale="   54.688">  1  5  2 -1</clus>
</clustering>
</event>
<event>
10    2  0.3984345E-006  0.1201219E+03  0.7546771E-02  0.1244754E+00
         21   -1    0    0  503  502  0.00000000000E+00  0.00000000000E+00  0.49394677318E+02  0.49394677318E+02  0.00000000000E+00 0.  1.
          1   -1    0    0  502    0 -0.00000000000E+00 -0.00000000000E+00 -0.84889398915E+03  0.84889398915E+03  0.00000000000E+00 0. -1.
         23    2    1    2    0    0  0.54182282357E+02 -0.20231190022E+02 -0.36634879624E+03  0.38180637787E+03  0.90662279395E+02 0.  0.
         23    2    1    2    0    0 -0.11954266924E+03  0.67170264857E+02 -0.16345309232E+03  0.23405387310E+03  0.96239326024E+02 0.  0.
        -11    1    3    3    0    0  0.37725872534E+02  0.28828458042E+02 -0.10292790030E+03  0.11335110988E+03  0.00000000000E+00 0.  1.
         11    1    3    3    0    0  0.16456409823E+02 -0.49059648064E+02 -0.26342089594E+03  0.26845526799E+03  0.00000000000E+00 0. -1.
        -13    1    4    4    0    0 -0.15446044044E+02  0.60993618801E+02 -0.68651823913E+02  0.93122901252E+02  0.00000000000E+00 0.  1.
         13    1    4    4    0    0 -0.10409662520E+03  0.61766460559E+01 -0.94801268408E+02  0.14093097185E+03  0.00000000000E+00 0. -1.
         21    1    1    2  503  501  0.23921770715E+02 -0.31195593561E+02 -0.11708034223E+03  0.12350393803E+03  0.00000000000E+00 0.  1.
          1    1    1    2  501    0  0.41438616173E+02 -0.15743481274E+02 -0.15261708103E+03  0.15892447746E+03  0.00000000000E+00 0. -1.
<scales pt_clust_5="13000.00000" pt_clust_6="13000.00000" pt_clust_7="13000.00000" pt_clust_8="13000.00000" pt_clust_9="22.16241" pt_clust_10="83.83983"></scales>
<clustering>
<clus scale="   22.162">  9 10 -1 -1</clus>
<clus scale="   83.840">  1  9  2 -1</clus>
<clus scale="   90.662">  5  6 -1 -1</clus>
<clus scale="   96.239">  7  8 -1 -1</clus>
<clus scale="  115.702">  2  5  1 -1</clus>
<clus scale="   83.840">  1  5  2 -1</clus>
</clustering>
</event>
<event>
10    2  0.3984345E-006  0.9330815E+02  0.7546771E-02  0.1295823E+00
          2   -1    0    0  503    0 -0.00000000000E+00  0.00000000000E+00  0.94276833887E+03  0.94276833887E+03  0.00000000000E+00 0. -1.
         21   -1    0    0  501  502  0.00000000000E+00 -0.00000000000E+00 -0.32043026416E+02  0.32043026416E+02  0.00000000000E+00 0. -1.
         23    2    1    2    0    0  0.19114619571E+02 -0.84404053390E+00  0.35789130583E+03  0.36983856524E+03  0.91259500689E+02 0.  0.
         23    2    1    2    0    0  0.51479433482E+01 -0.57963831832E+02  0.18432242144E+03  0.21433878828E+03  0.92628580883E+02 0.  0.
        -11    1    4    4    0    0  0.30664131443E+02 -0.67330452563E+02  0.91776616651E+02  0.11788395210E+03  0.00000000000E+00 0. -1.
         11    1    4    4    0    0 -0.25516188094E+02  0.93666207311E+01  0.92545804789E+02  0.96454836182E+02  0.00000000000E+00 0.  1.
        -13    1    3    3    0    0 -0.26917206561E+02  0.21076014340E+02  0.75468285667E+02  0.82850446776E+02  0.00000000000E+00 0.  1.
         13    1    3    3    0    0  0.46031826132E+02 -0.21920054874E+02  0.28242302016E+03  0.28698811847E+03  0.00000000000E+00 0. -1.
         21    1    1    2  503  502 -0.22865211762E+02 -0.28416266379E+02  0.16889262227E+03  0.17278605256E+03  0.00000000000E+00 0. -1.
          2    1    1    2  501    0 -0.13973511578E+01  0.87224138745E+02  0.19961896292E+03  0.21784795920E+03  0.00000000000E+00 0. -1.
<scales pt_clust_5="13000.00000" pt_clust_6="13000.00000" pt_clust_7="13000.00000" pt_clust_8="13000.00000" pt_clust_9="36.47331" pt_clust_10="79.90066"></scales>
<clustering>
<clus scale="   36.473">  1  9  2 -1</clus>
<clus scale="   79.901">  2 10  1 -1</clus>
<clus scale="   91.260">  7  8 -1 -1</clus>
<clus scale="   91.949">  1  7  2 -1</clus>
<clus scale="   92.629">  5  6 -1 -1</clus>
<clus scale="   79.901">  2  5  1 -1</clus>
</clustering>
</event>
<event>
10    2  0.3984345E-006  0.1720065E+03  0.7546771E-02  0.1175875E+00
         21   -1    0    0  503  502  0.00000000000E+00  0.00000000000E+00  0.48817057806E+03  0.48817057806E+03  0.00000000000E+00 0.  1.
         -2   -1    0    0    0  501 -0.00000000000E+00 -0.00000000000E+00 -0.11212684526E+03  0.11212684526E+03  0.00000000000E+00 0.  1.
         23    2    1    2    0    0 -0.93947272629E+02 -0.76026351727E+02  0.41212471039E+02  0.15658839112E+03  0.90638624615E+02 0.  0.
         23    2    1    2    0    0  0.13201619191E+03  0.10920058738E+03  0.25252829357E+03  0.31855589142E+03  0.91401716022E+02 0.  0.
        -13    1    4    4    0    0  0.21907233044E+02  0.44468530935E+01  0.10283259315E+03  0.10523423196E+03  0.00000000000E+00 0.  1.
         13    1    4    4    0    0  0.11010895887E+03  0.10475373428E+03  0.14969570043E+03  0.21332165946E+03  0.00000000000E+00 0. -1.
        -13    1    3    3    0    0 -0.92219914884E+02 -0.45313515315E+02 -0.29203466610E+01  0.10279278086E+03  0.00000000000E+00 0.  1.
         13    1    3    3    0    0 -0.17273577443E+01 -0.30712836412E+02  0.44132817700E+02  0.53795610261E+02  0.00000000000E+00 0. -1.
         21    1    1    2  503  501 -0.24082210427E+02 -0.14319263536E+02 -0.10124403349E+02  0.29790899792E+02  0.00000000000E+00 0.  1.
         -2    1    1    2    0  502 -0.13986708858E+02 -0.18854972113E+02  0.92427371532E+02  0.95362240988E+02  0.00000000000E+00 0.  1.
<scales pt_clust_5="13000.00000" pt_clust_6="13000.00000" pt_clust_7="13000.00000" pt_clust_8="13000.00000" pt_clust_9="28.55880" pt_clust_10="23.47633"></scales>
<clustering>
<clus scale="   23.476">  1 10  2 -1</clus>
<clus scale="   28.559">  2  9  1 -1</clus>
<clus scale="   90.639">  7  8 -1 -1</clus>
<clus scale="   91.402">  5  6 -1 -1</clus>
<clus scale="  171.602">  2  7  1 -1</clus>
<clus scale="   23.476">  1  5  2 -1</clus>
</clustering>
</event>
<event>
10    2  0.3984345E-006  0.9652127E+02  0.7546771E-02  0.1287943E+00
         21   -1    0    0  503  502  0.00000000000E+00  0.00000000000E+00  0.18818641863E+03  0.18818641863E+03  0.00000000000E+00 0. -1.
         -1   -1    0    0    0  501 -0.00000000000E+00 -0.00000000000E+00 -0.15351310743E+03  0.15351310743E+03  0.00000000000E+00 0.  1.
         23    2    1    2    0    0  0.15209341363E+02  0.43044251613E+02 -0.82405373329E+02  0.13306333015E+03  0.93973786853E+02 0.  0.
         23    2    1    2    0    0 -0.29445900748E+02  0.19452234324E+01  0.94494821846E+02  0.13629467913E+03  0.93680965185E+02 0.  0.
        -11    1    4    4    0    0  0.29507331231E+02  0.38936847452E+01  0.62419427883E+02  0.69152211494E+02  0.00000000000E+00 0.  1.
         11    1    4    4    0    0 -0.58953231979E+02 -0.19484613128E+01  0.32075393963E+02  0.67142467635E+02  0.00000000000E+00 0. -1.
        -11    1    3    3    0    0 -0.33389500578E+02 -0.35667704889E+01 -0.12050507469E+02  0.35676257242E+02  0.00000000000E+00 0. -1.
         11    1    3    3    0    0  0.48598841941E+02  0.46611022102E+02 -0.70354865860E+02  0.97387072908E+02  0.00000000000E+00 0.  1.
         21    1    1    2  503  501 -0.24494790286E+01 -0.31461558307E+02 -0.10184890828E+02  0.33159638113E+02  0.00000000000E+00 0.  1.
         -1    1    1    2    0  502  0.16686038413E+02 -0.13527916738E+02  0.32768753512E+02  0.39181878667E+02  0.00000000000E+00 0.  1.
<scales pt_clust_5="13000.00000" pt_clust_6="13000.00000" pt_clust_7="13000.00000" pt_clust_8="13000.00000" pt_clust_9="32.50431" pt_clust_10="21.48088"></scales>
<clustering>
<clus scale="   21.481">  1 10  2 -1</clus>
<clus scale="   32.504">  2  9  1 -1</clus>
<clus scale="   93.681">  5  6 -1 -1</clus>
<clus scale="   93.974">  7  8 -1 -1</clus>
<clus scale="   96.236">  1  5  2 -1</clus>
<clus scale="   21.481">  1  5  2 -1</clus>
</clustering>
</event>
<event>
10    2  0.3984345E-006  0.1224949E+03  0.7546771E-02  0.1249399E+00
         21   -1    0    0  503  502  0.00000000000E+00  0.00000000000E+00  0.15598790147E+03  0.15598790147E+03  0.00000000000E+00 0. -1.
         -3   -1    0    0    0  501 -0.00000000000E+00 -0.00000000000E+00 -0.24801549012E+03  0.24801549012E+03  0.00000000000E+00 0.  1.
         23    2    1    2    0    0  0.18815846891E+02 -0.31809217208E+02 -0.90740324555E+02  0.13286525676E+03  0.89741336963E+02 0.  0.
         23    2    1    2    0    0 -0.69345298509E+02  0.52869849013E+01 -0.68471500006E+02  0.15068012583E+03  0.11480170457E+03 0.  0.
        -11    1    4    4    0    0 -0.16682670610E+01 -0.21324563202E+02  0.24579540648E+02  0.32583338215E+02  0.00000000000E+00 0.  1.
         11    1    4    4    0    0 -0.67677031448E+02  0.26611548104E+02 -0.93051040654E+02  0.11809678761E+03  0.00000000000E+00 0. -1.
        -13    1    3    3    0    0 -0.28753519664E+02 -0.38562124639E+02 -0.36344159003E+02  0.60288475212E+02  0.00000000000E+00 0. -1.
         13    1    3    3    0    0  0.47569366554E+02  0.67529074311E+01 -0.54396165551E+02  0.72576781548E+02  0.00000000000E+00 0.  1.
         21    1    1    2  503  501  0.86914321940E+01  0.19338860558E+02 -0.16338191572E+02  0.26766939032E+02  0.00000000000E+00 0.  1.
         -3    1    1    2    0  502  0.41838019424E+02  0.71833717484E+01  0.83522427487E+02  0.93691069971E+02  0.00000000000E+00 0.  1.
<scales pt_clust_5="13000.00000" pt_clust_6="13000.00000" pt_clust_7="13000.00000" pt_clust_8="13000.00000" pt_clust_9="21.20218" pt_clust_10="42.71783"></scales>
<clustering>
<clus scale="   21.202">  2  9  1 -1</clus>
<clus scale="   42.718">  1 10  2 -1</clus>
<clus scale="   89.741">  7  8 -1 -1</clus>
<clus scale="   99.394">  2  7  1 -1</clus>
<clus scale="  114.802">  5  6 -1 -1</clus>
<clus scale="   42.718">  1  5  2 -1</clus>
</clustering>
</event>
<event>
10    2  0.3984345E-006  0.1205971E+03  0.7546771E-02  0.1243799E+00
         21   -1    0    0  501  502  0.00000000000E+00  0.00000000000E+00  0.14202488308E+03  0.14202488308E+03  0.00000000000E+00 0. -1.
          3   -1    0    0  503    0 -0.00000000000E+00 -0.00000000000E+00 -0.34537779713E+03  0.34537779713E+03  0.00000000000E+00 0. -1.
         23    2    1    2    0    0  0.73647346256E+02 -0.27133168602E+00 -0.15362346587E+03  0.19469519967E+03  0.94244608750E+02 0.  0.
         23    2    1    2    0    0 -0.92495630281E+02  0.10895616648E+02  0.64410554592E+02  0.14404094195E+03  0.89022004768E+02 0.  0.
        -11    1    4    4    0    0 -0.17240168445E+02  0.38892650473E+02  0.43977532898E+02  0.61187294993E+02  0.00000000000E+00 0.  1.
         11    1    4    4    0    0 -0.75255461836E+02 -0.27997033825E+02  0.20433021694E+02  0.82853646961E+02  0.00000000000E+00 0. -1.
        -11    1    3    3    0    0  0.67192705326E+02 -0.33038923163E+02 -0.62128004647E+02  0.97295010428E+02  0.00000000000E+00 0. -1.
         11    1    3    3    0    0  0.64546409302E+01  0.32767591477E+02 -0.91495461219E+02  0.97400189242E+02  0.00000000000E+00 0.  1.
         21    1    1    2  503  502 -0.71443373526E+01 -0.29036747368E+02 -0.11289586314E+03  0.11678891287E+03  0.00000000000E+00 0. -1.
          3    1    1    2  501    0  0.25992621378E+02  0.18412462406E+02 -0.12441396401E+01  0.31877625717E+02  0.00000000000E+00 0. -1.
<scales pt_clust_5="13000.00000" pt_clust_6="13000.00000" pt_clust_7="13000.00000" pt_clust_8="13000.00000" pt_clust_9="29.90275" pt_clust_10="30.26146"></scales>
<clustering>
<clus scale="   29.903">  2  9  1 -1</clus>
<clus scale="   30.261">  1 10  2 -1</clus>
<clus scale="   89.022">  5  6 -1 -1</clus>
<clus scale="   94.245">  7  8 -1 -1</clus>
<clus scale="  116.561">  1  5  2 -1</clus>
<clus scale="   30.261">  1  5  2 -1</clus>
</clustering>
</event>
<event>
10    2  0.3984345E-006  0.1069737E+03  0.7546771E-02  0.1267300E+00
         -1   -1    0    0    0  501 -0.00000000000E+00  0.00000000000E+00  0.14127420879E+03  0.14127420879E+03  0.00000000000E+00 0.  1.
         21   -1    0    0  503  502  0.00000000000E+00 -0.00000000000E+00 -0.30088904247E+03  0.30088904247E+03  0.00000000000E+00 0.  1.
         23    2    1    2    0    0  0.88314643452E+02 -0.70176611368E+02 -0.56635897365E+02  0.15663152352E+03  0.92744683177E+02 0.  0.
         23    2    1    2    0    0 -0.62912330598E+01  0.46532800713E+01 -0.75498253557E+02  0.11797270584E+03  0.90312459844E+02 0.  0.
        -11    1    3    3    0    0  0.70581635093E+02 -0.14317630826E+01 -0.90734464204E+01  0.71176854299E+02  0.00000000000E+00 0.  1.
         11    1    3    3    0    0  0.17733008359E+02 -0.68744848285E+02 -0.47562450945E+02  0.85454669218E+02  0.00000000000E+00 0. -1.
        -13    1    4    4    0    0  0.20396586442E+02  0.25746216858E+02  0.24373787047E+01  0.32936745983E+02  0.00000000000E+00 0.  1.
         13    1    4    4    0    0 -0.26687819501E+02 -0.21092936787E+02 -0.77935632262E+02  0.85035959853E+02  0.00000000000E+00 0. -1.
         21    1    1    2  503  501 -0.14248486688E+02  0.90564212791E+02 -0.46948833675E+01  0.91798354785E+02  0.00000000000E+00 0.  1.
         -1    1    1    2    0  502 -0.67774923704E+02 -0.25040881494E+02 -0.22785799387E+02  0.75760667122E+02  0.00000000000E+00 0.  1.
<scales pt_clust_5="13000.00000" pt_clust_6="13000.00000" pt_clust_7="13000.00000" pt_clust_8="13000.00000" pt_clust_9="89.98601" pt_clust_10="72.25297"></scales>
<clustering>
<clus scale="   72.253">  2 10  1 -1</clus>
<clus scale="   89.986">  1  9  2 -1</clus>
<clus scale="   90.312">  7  8 -1 -1</clus>
<clus scale="   92.745">  5  6 -1 -1</clus>
<clus scale="  104.872">  2  7  1 -1</clus>
<clus scale="   72.253">  2  5  1 -1</clus>
</clustering>
</event>
<event>
10    2  0.3984345E-006  0.1136192E+03  0.7546771E-02  0.1257250E+00
         21   -1    0    0  501  502  0.00000000000E+00  0.00000000000E+00  0.30407305811E+03  0.30407305811E+03  0.00000000000E+00 0. -1.
          2   -1    0    0  503    0 -0.00000000000E+00 -0.00000000000E+00 -0.27413108438E+03  0.27413108438E+03  0.00000000000E+00 0. -1.
         23    2    1    2    0    0 -0.44837373450E+01  0.54708783478E+02 -0.19199408643E+03  0.21974946202E+03  0.91732992665E+02 0.  0.
         23    2    1    2    0    0  0.45712022642E+02 -0.22824804356E+02  0.10377971810E+03  0.15280516826E+03  0.99843021033E+02 0.  0.
        -13    1    3    3    0    0 -0.36774539464E+02  0.14067008466E+02 -0.14317839152E+03  0.14849343177E+03  0.00000000000E+00 0. -1.
         13    1    3    3    0    0  0.32290802119E+02  0.40641775012E+02 -0.48815694911E+02  0.71256030252E+02  0.00000000000E+00 0.  1.
        -13    1    4    4    0    0  0.73030207365E+02 -0.19138736322E+02  0.99514620076E+02  0.12491141671E+03  0.00000000000E+00 0. -1.
         13    1    4    4    0    0 -0.27318184723E+02 -0.36860680340E+01  0.42650980231E+01  0.27893751545E+02  0.00000000000E+00 0.  1.
         21    1    1    2  503  502 -0.22200312809E+02 -0.46454460117E+01 -0.38947550041E+02  0.45070452756E+02  0.00000000000E+00 0. -1.
          2    1    1    2  501    0 -0.19027972488E+02 -0.27238533110E+02  0.15710389210E+03  0.16057905946E+03  0.00000000000E+00 0. -1.
<scales pt_clust_5="13000.00000" pt_clust_6="13000.00000" pt_clust_7="13000.00000" pt_clust_8="13000.00000" pt_clust_9="22.68114" pt_clust_10="33.35040"></scales>
<clustering>
<clus scale="   22.681">  2  9  1 -1</clus>
<clus scale="   33.350">  1 10  2 -1</clus>
<clus scale="   91.733">  5  6 -1 -1</clus>
<clus scale="   99.843">  7  8 -1 -1</clus>
<clus scale="  106.563">  2  5  1 -1</clus>
<clus scale="   33.350">  1  5  2 -1</clus>
</clustering>
</event>
<event>
10    2  0.3984345E-006  0.1955980E+03  0.7546771E-02  0.1177385E+00
         21   -1    0    0  501  502  0.00000000000E+00  0.00000000000E+00  0.75975935345E+03  0.75975935345E+03  0.00000000000E+00 0. -1.
          1   -1    0    0  503    0 -0.00000000000E+00 -0.00000000000E+00 -0.48166534437E+03  0.48166534437E+03  0.00000000000E+00 0. -1.
         23    2    1    2    0    0  0.43000568010E+02  0.50971635086E+02  0.61457273811E+03  0.62480967724E+03  0.90776240874E+02 0.  0.
         23    2    1    2    0    0  0.24663342917E+02  0.11279149095E+03 -0.26894765337E+03  0.30640502262E+03  0.90669712243E+02 0.  0.
        -11    1    3    3    0    0 -0.23633603868E+02 -0.61869809928E+01  0.11284557003E+03  0.11545972736E+03  0.00000000000E+00 0.  1.
         11    1    3    3    0    0  0.66634171878E+02  0.57158616079E+02  0.50172716808E+03  0.50934994988E+03  0.00000000000E+00 0. -1.
        -11    1    4    4    0    0 -0.25582741528E+02  0.83962330950E+02 -0.14327121954E+03  0.16802021316E+03  0.00000000000E+00 0.  1.
         11    1    4    4    0    0  0.50246084445E+02  0.28829160005E+02 -0.12567643383E+03  0.13838480946E+03  0.00000000000E+00 0. -1.
         21    1    1    2  503  502  0.24587890752E+02  0.17220265052E+01 -0.11276168462E+03  0.11542411908E+03  0.00000000000E+00 0.  1.
          1    1    1    2  501    0 -0.92251801679E+02 -0.16548515255E+03  0.45230608949E+02  0.19478587888E+03  0.00000000000E+00 0. -1.
<scales pt_clust_5="13000.00000" pt_clust_6="13000.00000" pt_clust_7="13000.00000" pt_clust_8="13000.00000" pt_clust_9="24.64812" pt_clust_10="173.31350"></scales>
<clustering>
<clus scale="   24.648">  2  9  1 -1</clus>
<clus scale="   90.670">  7  8 -1 -1</clus>
<clus scale="   90.776">  5  6 -1 -1</clus>
<clus scale="  112.781">  2  5  1 -1</clus>
<clus scale="  173.313">  1 10  2 -1</clus>
<clus scale="  173.313">  1  5  2 -1</clus>
</clustering>
</event>
<event>
10    2  0.3984345E-006  0.9356787E+02  0.7546771E-02  0.1294585E+00
         -1   -1    0    0    0  501 -0.00000000000E+00  0.00000000000E+00  0.18058944615E+03  0.18058944615E+03  0.00000000000E+00 0.  1.
         21   -1    0    0  503  502  0.00000000000E+00 -0.00000000000E+00 -0.25216995152E+03  0.25216995152E+03  0.00000000000E+00 0.  1.
         23    2    1    2    0    0  0.14736024727E+02 -0.68173129040E+01  0.49317483886E+02  0.10479524620E+03  0.91028584682E+02 0.  0.
         23    2    1    2    0    0 -0.24013956709E+01  0.43499346134E+02 -0.47133394811E+02  0.11116206440E+03  0.90760607316E+02 0.  0.
        -11    1    3    3    0    0 -0.17263210733E+02  0.32628580696E+02  0.47437787112E+01  0.37217551766E+02  0.00000000000E+00 0. -1.
         11    1    3    3    0    0  0.31999235459E+02 -0.39445893600E+02  0.44573705175E+02  0.67577694433E+02  0.00000000000E+00 0.  1.
        -13    1    4    4    0    0 -0.21634441894E+02 -0.11449181494E+02  0.12788268938E+02  0.27616528662E+02  0.00000000000E+00 0.  1.
         13    1    4    4    0    0  0.19233046223E+02  0.54948527628E+02 -0.59921663749E+02  0.83545535739E+02  0.00000000000E+00 0. -1.
         21    1    1    2  503  501 -0.24040152531E+02 -0.10827912584E+02  0.67629769364E+02  0.72587590736E+02  0.00000000000E+00 0.  1.
         -1    1    1    2    0  502  0.11705523475E+02 -0.25854120646E+02 -0.14139436381E+03  0.14421449633E+03  0.00000000000E+00 0.  1.
<scales pt_clust_5="13000.00000" pt_clust_6="13000.00000" pt_clust_7="13000.00000" pt_clust_8="13000.00000" pt_clust_9="26.36613" pt_clust_10="28.38188"></scales>
<clustering>
<clus scale="   26.366">  1  9  2 -1</clus>
<clus scale="   28.382">  2 10  1 -1</clus>
<clus scale="   90.761">  7  8 -1 -1</clus>
<clus scale="   91.029">  5  6 -1 -1</clus>
<clus scale="   93.307">  2  7  1 -1</clus>
<clus scale="   28.382">  2  5  1 -1</clus>
</clustering>
</event>
<event>
10    2  0.3984345E-006  0.1264175E+03  0.7546771E-02  0.1234772E+00
         21   -1    0    0  503  502  0.00000000000E+00  0.00000000000E+00  0.86733133511E+02  0.86733133511E+02  0.00000000000E+00 0. -1.
         -1   -1    0    0    0  501 -0.00000000000E+00 -0.00000000000E+00 -0.33898165750E+03  0.33898165750E+03  0.00000000000E+00 0.  1.
         23    2    1    2    0    0 -0.89810313340E+02 -0.75255320013E+02 -0.12035744151E+03  0.19404545024E+03  0.97151775383E+02 0.  0.
         23    2    1    2    0    0  0.31815508102E+02  0.41378509859E+02 -0.79406339619E+02  0.13140966430E+03  0.90767425136E+02 0.  0.
        -11    1    4    4    0    0 -0.19694424690E+02 -0.12241011151E+02 -0.78983432283E+00  0.23202080858E+02  0.00000000000E+00 0. -1.
         11    1    4    4    0    0  0.51509932792E+02  0.53619521009E+02 -0.78616505296E+02  0.10820758344E+03  0.00000000000E+00 0.  1.
        -11    1    3    3    0    0 -0.62892587854E+02 -0.57579382974E+02 -0.13419624644E+03  0.15899526882E+03  0.00000000000E+00 0.  1.
         11    1    3    3    0    0 -0.26917725486E+02 -0.17675937038E+02  0.13838804927E+02  0.35050181417E+02  0.00000000000E+00 0. -1.
         21    1    1    2  503  501  0.11263103967E+02  0.33385074352E+02 -0.36839427652E+02  0.50976113330E+02  0.00000000000E+00 0.  1.
         -1    1    1    2    0  502  0.46731701271E+02  0.49173580183E+00 -0.15645315207E+02  0.49283563139E+02  0.00000000000E+00 0.  1.
<scales pt_clust_5="13000.00000" pt_clust_6="13000.00000" pt_clust_7="13000.00000" pt_clust_8="13000.00000" pt_clust_9="35.23380" pt_clust_10="48.15134"></scales>
<clustering>
<clus scale="   35.234">  2  9  1 -1</clus>
<clus scale="   48.151">  1 10  2 -1</clus>
<clus scale="   90.767">  5  6 -1 -1</clus>
<clus scale="   97.152">  7  8 -1 -1</clus>
<clus scale="  121.580">  1  5  2 -1</clus>
<clus scale="   48.151">  1  5  2 -1</clus>
</clustering>
</event>
<event>
10    2  0.3984345E-006  0.1054944E+03  0.7546771E-02  0.1270230E+00
          1   -1    0    0  503    0 -0.00000000000E+00  0.00000000000E+00  0.13356180984E+03  0.13356180984E+03  0.00000000000E+00 0. -1.
         21   -1    0    0  501  502  0.00000000000E+00 -0.00000000000E+00 -0.21080321235E+03  0.21080321235E+03  0.00000000000E+00 0. -1.
         23    2    1    2    0    0 -0.17336559034E+02 -0.22557948844E+02  0.12398203329E+02  0.95449135566E+02  0.90262975241E+02 0.  0.
         23    2    1    2    0    0  0.45817253183E+02  0.59664991347E+02  0.12774235584E+01  0.11943334198E+03  0.92755374423E+02 0.  0.
        -11    1    3    3    0    0 -0.52268488358E+02 -0.32298778451E+01  0.17470762834E+02  0.55205566206E+02  0.00000000000E+00 0.  1.
         11    1    3    3    0    0  0.34931929324E+02 -0.19328070999E+02 -0.50725595044E+01  0.40243569360E+02  0.00000000000E+00 0. -1.
        -13    1    4    4    0    0  0.76022899163E+01  0.26165711181E+02 -0.43746494960E+02  0.51538287465E+02  0.00000000000E+00 0.  1.
         13    1    4    4    0    0  0.38214963267E+02  0.33499280166E+02  0.45023918518E+02  0.67895054517E+02  0.00000000000E+00 0. -1.
         21    1    1    2  503  502 -0.13393632528E+02 -0.15770674909E+02  0.11577308109E+02  0.23709442052E+02  0.00000000000E+00 0.  1.
          1    1    1    2  501    0 -0.15087061621E+02 -0.21336367594E+02 -0.10249433751E+03  0.10577310259E+03  0.00000000000E+00 0. -1.
<scales pt_clust_5="13000.00000" pt_clust_6="13000.00000" pt_clust_7="13000.00000" pt_clust_8="13000.00000" pt_clust_9="20.69066" pt_clust_10="26.42307"></scales>
<clustering>
<clus scale="   20.691">  1  9  2 -1</clus>
<clus scale="   26.423">  2 10  1 -1</clus>
<clus scale="   90.263">  5  6 -1 -1</clus>
<clus scale="   92.755">  7  8 -1 -1</clus>
<clus scale="  103.310">  1  5  2 -1</clus>
<clus scale="   26.423">  2  5  1 -1</clus>
</clustering>
</event>
<event>
10    2  0.3984345E-006  0.1418347E+03  0.7546771E-02  0.1211869E+00
         21   -1    0    0  503  502  0.00000000000E+00  0.00000000000E+00  0.55604675765E+03  0.55604675765E+03  0.00000000000E+00 0.  1.
         -1   -1    0    0    0  501 -0.00000000000E+00 -0.00000000000E+00 -0.71236135541E+02  0.71236135541E+02  0.00000000000E+00 0.  1.
         23    2    1    2    0    0 -0.11237051833E+03 -0.42976945775E+02  0.62534304450E+02  0.16684209788E+03  0.97219314627E+02 0.  0.
         23    2    1    2    0    0  0.56050616323E+02  0.26626561495E+02  0.26738056627E+03  0.28976791578E+03  0.92857053732E+02 0.  0.
        -11    1    4    4    0    0  0.39570577655E+02  0.55601179095E+02  0.22890368330E+03  0.23886024777E+03  0.00000000000E+00 0. -1.
         11    1    4    4    0    0  0.16480038668E+02 -0.28974617600E+02  0.38476882967E+02  0.50907668012E+02  0.00000000000E+00 0.  1.
        -13    1    3    3    0    0 -0.36921511480E+02 -0.65739834546E+02  0.37097719916E+02  0.84030736514E+02  0.00000000000E+00 0. -1.
         13    1    3    3    0    0 -0.75449006846E+02  0.22762888771E+02  0.25436584534E+02  0.82811361370E+02  0.00000000000E+00 0.  1.
         21    1    1    2  503  501  0.36153502504E+02  0.65223309890E+01  0.43026731211E+02  0.56576639557E+02  0.00000000000E+00 0. -1.
         -1    1    1    2    0  502  0.20166399499E+02  0.98280532915E+01  0.11186902018E+03  0.11409623997E+03  0.00000000000E+00 0.  1.
<scales pt_clust_5="13000.00000" pt_clust_6="13000.00000" pt_clust_7="13000.00000" pt_clust_8="13000.00000" pt_clust_9="39.16999" pt_clust_10="22.43378"></scales>
<clustering>
<clus scale="   22.434">  1 10  2 -1</clus>
<clus scale="   39.170">  1  9  2 -1</clus>
<clus scale="   92.857">  5  6 -1 -1</clus>
<clus scale="   97.219">  7  8 -1 -1</clus>
<clus scale="  138.881">  1  5  2 -1</clus>
<clus scale="   22.434">  1  5  2 -1</clus>
</clustering>
</event>
<event>
10    2  0.3984345E-006  0.1346080E+03  0.7546771E-02  0.1238694E+00
         21   -1    0    0  501  502  0.00000000000E+00  0.00000000000E+00  0.66563470834E+02  0.66563470834E+02  0.00000000000E+00 0. -1.
          1   -1    0    0  503    0 -0.00000000000E+00 -0.00000000000E+00 -0.85691273983E+03  0.85691273983E+03  0.00000000000E+00 0. -1.
         23    2    1    2    0    0 -0.27355618354E+02  0.11141468226E+03 -0.20989732616E+03  0.25666426823E+03  0.93048899932E+02 0.  0.
         23    2    1    2    0    0 -0.18546173419E+02  0.17037864608E+02 -0.12520001070E+03  0.15736905488E+03  0.91955029100E+02 0.  0.
        -11    1    4    4    0    0 -0.25800383502E+02  0.50939787490E+02 -0.56042358975E+02  0.80007922969E+02  0.00000000000E+00 0. -1.
         11    1    4    4    0    0  0.72542100826E+01 -0.33901922882E+02 -0.69157651723E+02  0.77361131913E+02  0.00000000000E+00 0.  1.
        -13    1    3    3    0    0 -0.50591510865E+02  0.25575329562E+02 -0.61337526033E+02  0.83521796878E+02  0.00000000000E+00 0.  1.
         13    1    3    3    0    0  0.23235892511E+02  0.85839352696E+02 -0.14855980012E+03  0.17314247135E+03  0.00000000000E+00 0. -1.
         21    1    1    2  503  502  0.31780933466E+02 -0.88269609888E+02 -0.45727819642E+03  0.46680284991E+03  0.00000000000E+00 0. -1.
          1    1    1    2  501    0  0.14120858308E+02 -0.40182936979E+02  0.20262642789E+01  0.42640037647E+02  0.00000000000E+00 0. -1.
<scales pt_clust_5="13000.00000" pt_clust_6="13000.00000" pt_clust_7="13000.00000" pt_clust_8="13000.00000" pt_clust_9="97.26879" pt_clust_10="42.59187"></scales>
<clustering>
<clus scale="   42.592">  1 10  2 -1</clus>
<clus scale="   91.955">  5  6 -1 -1</clus>
<clus scale="   92.959">  1  5  2 -1</clus>
<clus scale="   93.049">  7  8 -1 -1</clus>
<clus scale="   97.269">  2  9  1 -1</clus>
<clus scale="   42.592">  1  5  2 -1</clus>
</clustering>
</event>
<event>
10    2  0.3984345E-006  0.1064914E+03  0.7546771E-02  0.1267447E+00
         21   -1    0    0  501  502  0.00000000000E+00  0.00000000000E+00  0.74401385731E+02  0.74401385731E+02  0.00000000000E+00 0. -1.
          1   -1    0    0  503    0 -0.00000000000E+00 -0.00000000000E+00 -0.39223338266E+03  0.39223338266E+03  0.00000000000E+00 0. -1.
         23    2    1    2    0    0 -0.30636169816E+02 -0.10362620034E+02 -0.16028113373E+03  0.18664381164E+03  0.89999509992E+02 0.  0.
         23    2    1    2    0    0  0.56883913906E+02 -0.17539736839E+02 -0.43409559191E+02  0.11675696471E+03  0.90578015817E+02 0.  0.
        -11    1    3    3    0    0 -0.38601603019E+02 -0.31975576585E+02 -0.39866150765E+02  0.64045540285E+02  0.00000000000E+00 0. -1.
         11    1    3    3    0    0  0.79654332024E+01  0.21612956551E+02 -0.12041498296E+03  0.12259827135E+03  0.00000000000E+00 0.  1.
        -11    1    4    4    0    0  0.64910918233E+02 -0.44182908816E+02 -0.41629707316E+02  0.88874007834E+02  0.00000000000E+00 0. -1.
         11    1    4    4    0    0 -0.80270043264E+01  0.26643171977E+02 -0.17798518747E+01  0.27882956876E+02  0.00000000000E+00 0.  1.
         21    1    1    2  503  502 -0.56130659069E+02  0.10371512181E+02 -0.11520650889E+03  0.12857199867E+03  0.00000000000E+00 0. -1.
          1    1    1    2  501    0  0.29882914978E+02  0.17530844692E+02  0.10652048743E+01  0.34661993374E+02  0.00000000000E+00 0. -1.
<scales pt_clust_5="13000.00000" pt_clust_6="13000.00000" pt_clust_7="13000.00000" pt_clust_8="13000.00000" pt_clust_9="54.05042" pt_clust_10="34.64562"></scales>
<clustering>
<clus scale="   34.646">  1 10  2 -1</clus>
<clus scale="   54.050">  2  9  1 -1</clus>
<clus scale="   90.000">  5  6 -1 -1</clus>
<clus scale="   90.578">  7  8 -1 -1</clus>
<clus scale="  106.000">  2  5  1 -1</clus>
<clus scale="   34.646">  1  5  2 -1</clus>
</clustering>
</event>
<event>
10    2  0.3984345E-006  0.9864327E+02  0.7546771E-02  0.1286497E+00
          1   -1    0    0  503    0 -0.00000000000E+00  0.00000000000E+00  0.34696836383E+03  0.34696836383E+03  0.00000000000E+00 0. -1.
         21   -1    0    0  501  502  0.00000000000E+00 -0.00000000000E+00 -0.17566062364E+03  0.17566062364E+03  0.00000000000E+00 0. -1.
         23    2    1    2    0    0  0.12952495572E+02 -0.10123742351E+02  0.16882221754E+03  0.19335535086E+03  0.92817526752E+02 0.  0.
         23    2    1    2    0    0 -0.26808845867E+02 -0.42414520949E+02  0.64089133888E+02  0.11871274858E+03  0.86415240484E+02 0.  0.
        -11    1    3    3    0    0 -0.11772214584E+02 -0.40895954213E+02  0.13441275834E+03  0.14098884250E+03  0.00000000000E+00 0. -1.
         11    1    3    3    0    0  0.24724710156E+02  0.30772211862E+02  0.34409459200E+02  0.52366508358E+02  0.00000000000E+00 0.  1.
        -13    1    4    4    0    0 -0.43587580506E+02  0.35464633310E+01  0.83078492452E+01  0.44513761194E+02  0.00000000000E+00 0. -1.
         13    1    4    4    0    0  0.16778734640E+02 -0.45960984280E+02  0.55781284643E+02  0.74198987382E+02  0.00000000000E+00 0.  1.
         21    1    1    2  503  502  0.38493202296E+02  0.25380528378E+02  0.64471360095E+02  0.79261933589E+02  0.00000000000E+00 0.  1.
          1    1    1    2  501    0 -0.24636852001E+02  0.27157734922E+02 -0.12607497132E+03  0.13129895444E+03  0.00000000000E+00 0. -1.
<scales pt_clust_5="13000.00000" pt_clust_6="13000.00000" pt_clust_7="13000.00000" pt_clust_8="13000.00000" pt_clust_9="45.58123" pt_clust_10="36.66766"></scales>
<clustering>
<clus scale="   36.668">  2 10  1 -1</clus>
<clus scale="   45.581">  1  9  2 -1</clus>
<clus scale="   86.415">  7  8 -1 -1</clus>
<clus scale="   92.644">  2  7  1 -1</clus>
<clus scale="   92.818">  5  6 -1 -1</clus>
<clus scale="   36.668">  2  5  1 -1</clus>
</clustering>
</event>
<event>
10    2  0.3984345E-006  0.1167704E+03  0.7546771E-02  0.1254282E+00
         21   -1    0    0  501  502  0.00000000000E+00  0.00000000000E+00  0.20497783883E+03  0.20497783883E+03  0.00000000000E+00 0.  1.
          1   -1    0    0  503    0 -0.00000000000E+00 -0.00000000000E+00 -0.12037263551E+03  0.12037263551E+03  0.00000000000E+00 0. -1.
         23    2    1    2    0    0 -0.44331180856E+02  0.45845184675E+02 -0.28231254489E+02  0.98593398303E+02  0.69689453327E+02 0.  0.
         23    2    1    2    0    0  0.78556473810E+02 -0.34662887869E+02  0.58488982328E+02  0.13582287227E+03  0.87488606148E+02 0.  0.
        -11    1    3    3    0    0 -0.51716308894E+02  0.74284675794E+01 -0.28412347844E+02  0.59472853019E+02  0.00000000000E+00 0. -1.
         11    1    3    3    0    0  0.73851280380E+01  0.38416717096E+02  0.18109335485E+00  0.39120545284E+02  0.00000000000E+00 0.  1.
        -13    1    4    4    0    0  0.30502044157E+02 -0.37803640108E+02  0.71038236299E+02  0.86057660435E+02  0.00000000000E+00 0.  1.
         13    1    4    4    0    0  0.48054429654E+02  0.31407522390E+01 -0.12549253971E+02  0.49765211837E+02  0.00000000000E+00 0. -1.
         21    1    1    2  503  502 -0.26265230260E+02  0.99287235087E+01 -0.40128687083E+01  0.28364502224E+02  0.00000000000E+00 0.  1.
          1    1    1    2  501    0 -0.79600626940E+01 -0.21111020314E+02  0.58360344194E+02  0.62569701544E+02  0.00000000000E+00 0. -1.
<scales pt_clust_5="13000.00000" pt_clust_6="13000.00000" pt_clust_7="13000.00000" pt_clust_8="13000.00000" pt_clust_9="28.14188" pt_clust_10="22.56187"></scales>
<clustering>
<clus scale="   22.562">  1 10  2 -1</clus>
<clus scale="   28.142">  2  9  1 -1</clus>
<clus scale="   69.689">  5  6 -1 -1</clus>
<clus scale="   87.489">  7  8 -1 -1</clus>
<clus scale="  104.104">  2  5  1 -1</clus>
<clus scale="   22.562">  1  5  2 -1</clus>
</clustering>
</event>
<event>
10    2  0.3984345E-006  0.1928367E+03  0.7546771E-02  0.1157175E+00
         21   -1    0    0  501  502  0.00000000000E+00  0.00000000000E+00  0.57209636660E+03  0.57209636660E+03  0.00000000000E+00 0. -1.
          1   -1    0    0  503    0 -0.00000000000E+00 -0.00000000000E+00 -0.12650070685E+03  0.12650070685E+03  0.00000000000E+00 0. -1.
         23    2    1    2    0    0  0.28116230165E-01 -0.15315911133E+03  0.56372988239E+02  0.19262564503E+03  0.10231818580E+03 0.  0.
         23    2    1    2    0    0  0.11971527461E+02  0.16192855527E+03  0.36622614798E+03  0.41090591676E+03  0.91421586526E+02 0.  0.
        -11    1    3    3    0    0 -0.24259435469E+02  0.27499360464E+01 -0.17358917584E+01  0.24476431067E+02  0.00000000000E+00 0.  1.
         11    1    3    3    0    0  0.24287551700E+02 -0.15590904737E+03  0.58108879997E+02  0.16814921396E+03  0.00000000000E+00 0. -1.
        -13    1    4    4    0    0 -0.27793164835E+02  0.12236097397E+02  0.44979146656E+02  0.54270670946E+02  0.00000000000E+00 0.  1.
         13    1    4    4    0    0  0.39764692296E+02  0.14969245787E+03  0.32124700132E+03  0.35663524581E+03  0.00000000000E+00 0. -1.
         21    1    1    2  503  502  0.27227787224E+02 -0.17573039072E+02 -0.18477590962E+02  0.37303960475E+02  0.00000000000E+00 0. -1.
          1    1    1    2  501    0 -0.39227430915E+02  0.88035951304E+01  0.41474114499E+02  0.57761551199E+02  0.00000000000E+00 0. -1.
<scales pt_clust_5="13000.00000" pt_clust_6="13000.00000" pt_clust_7="13000.00000" pt_clust_8="13000.00000" pt_clust_9="32.40624" pt_clust_10="37.70267"></scales>
<clustering>
<clus scale="   32.406">  2  9  1 -1</clus>
<clus scale="   37.703">  1 10  2 -1</clus>
<clus scale="   91.422">  7  8 -1 -1</clus>
<clus scale="  102.318">  5  6 -1 -1</clus>
<clus scale="  187.283">  1  7  2 -1</clus>
<clus scale="   37.703">  1  5  2 -1</clus>
</clustering>
</event>
<event>
10    2  0.3984345E-006  0.9450876E+02  0.7546771E-02  0.1293205E+00
          1   -1    0    0  503    0 -0.00000000000E+00  0.00000000000E+00  0.19019268855E+03  0.19019268855E+03  0.00000000000E+00 0. -1.
         21   -1    0    0  501  502  0.00000000000E+00 -0.00000000000E+00 -0.45022610752E+03  0.45022610752E+03  0.00000000000E+00 0. -1.
         23    2    1    2    0    0 -0.32628254335E+02 -0.51565520565E+02  0.10590825953E+03  0.15088397454E+03  0.88463599547E+02 0.  0.
         23    2    1    2    0    0  0.63681633477E+02  0.26587193391E+02 -0.67100707241E+02  0.12957544681E+03  0.86747116430E+02 0.  0.
        -13    1    3    3    0    0 -0.17181768707E+02 -0.75842366516E+02  0.68071623810E+02  0.10334903823E+03  0.00000000000E+00 0. -1.
         13    1    3    3    0    0 -0.15446485629E+02  0.24276845952E+02  0.37836635723E+02  0.47534936315E+02  0.00000000000E+00 0.  1.
        -13    1    4    4    0    0  0.67810993213E+02 -0.13035111291E+02 -0.30540057282E+02  0.75504569568E+02  0.00000000000E+00 0. -1.
         13    1    4    4    0    0 -0.41293597362E+01  0.39622304683E+02 -0.36560649959E+02  0.54070877241E+02  0.00000000000E+00 0.  1.
         21    1    1    2  503  502  0.28010675506E+02  0.47669741891E+02 -0.82057774422E+00  0.55296252876E+02  0.00000000000E+00 0.  1.
          1    1    1    2  501    0 -0.59064054648E+02 -0.22691414718E+02 -0.29802039352E+03  0.30466312184E+03  0.00000000000E+00 0. -1.
<scales pt_clust_5="13000.00000" pt_clust_6="13000.00000" pt_clust_7="13000.00000" pt_clust_8="13000.00000" pt_clust_9="55.29016" pt_clust_10="62.39549"></scales>
<clustering>
<clus scale="   55.290">  1  9  2 -1</clus>
<clus scale="   62.395">  2 10  1 -1</clus>
<clus scale="   86.747">  7  8 -1 -1</clus>
<clus scale="   88.464">  5  6 -1 -1</clus>
<clus scale="   92.904">  2  7  1 -1</clus>
<clus scale="   62.395">  2  5  1 -1</clus>
</clustering>
</event>
<event>
10    2  0.3984345E-006  0.1732793E+03  0.7546771E-02  0.1177551E+00
         21   -1    0    0  501  502  0.00000000000E+00  0.00000000000E+00  0.73592592229E+02  0.73592592229E+02  0.00000000000E+00 0. -1.
          1   -1    0    0  503    0 -0.00000000000E+00 -0.00000000000E+00 -0.13372015809E+04  0.13372015809E+04  0.00000000000E+00 0. -1.
         23    2    1    2    0    0 -0.47517815672E+02 -0.84248709732E+02 -0.67541796979E+03  0.69101782562E+03  0.10936367549E+03 0.  0.
         23    2    1    2    0    0  0.49070126647E+02  0.18172869878E+03 -0.17783077580E+03  0.27406114260E+03  0.89735877843E+02 0.  0.
        -11    1    3    3    0    0 -0.16591541075E+02  0.25529542421E+02 -0.10579012575E+03  0.11008445611E+03  0.00000000000E+00 0.  1.
         11    1    3    3    0    0 -0.30926274597E+02 -0.10977825215E+03 -0.56962784404E+03  0.58093336951E+03  0.00000000000E+00 0. -1.
        -11    1    4    4    0    0 -0.15812546509E+02  0.10928384092E+03 -0.82114131571E+02  0.13760714050E+03  0.00000000000E+00 0.  1.
         11    1    4    4    0    0  0.64882673156E+02  0.72444857861E+02 -0.95716644230E+02  0.13645400210E+03  0.00000000000E+00 0. -1.
         21    1    1    2  503  502  0.28338624049E+02 -0.49333413715E+02 -0.37417878706E+03  0.37847936272E+03  0.00000000000E+00 0.  1.
          1    1    1    2  501    0 -0.29890935024E+02 -0.48146575336E+02 -0.36181456010E+02  0.67235842169E+02  0.00000000000E+00 0. -1.
<scales pt_clust_5="13000.00000" pt_clust_6="13000.00000" pt_clust_7="13000.00000" pt_clust_8="13000.00000" pt_clust_9="57.91762" pt_clust_10="56.67063"></scales>
<clustering>
<clus scale="   56.671">  1 10  2 -1</clus>
<clus scale="   57.918">  2  9  1 -1</clus>
<clus scale="   89.736">  7  8 -1 -1</clus>
<clus scale="  109.364">  5  6 -1 -1</clus>
<clus scale="  161.610">  1  7  2 -1</clus>
<clus scale="   56.671">  1  5  2 -1</clus>
</clustering>
</event>
<event>
10    2  0.3984345E-006  0.1580746E+03  0.7546771E-02  0.1191942E+00
          3   -1    0    0  503    0 -0.00000000000E+00  0.00000000000E+00  0.34878083404E+03  0.34878083404E+03  0.00000000000E+00 0. -1.
         21   -1    0    0  501  502  0.00000000000E+00 -0.00000000000E+00 -0.29972114221E+03  0.29972114221E+03  0.00000000000E+00 0.  1.
         23    2    1    2    0    0  0.28526122835E+02  0.73756024445E+02  0.18234112400E+03  0.22094732445E+03  0.96518101177E+02 0.  0.
         23    2    1    2    0    0 -0.87289240902E+01 -0.18914224315E+03 -0.12465333511E+03  0.24407160458E+03  0.90451710598E+02 0.  0.
        -11    1    3    3    0    0 -0.28380764518E+02  0.43839354571E+02  0.12228257784E+03  0.13296761127E+03  0.00000000000E+00 0.  1.
         11    1    3    3    0    0  0.56906887353E+02  0.29916669874E+02  0.60058546160E+02  0.87979713181E+02  0.00000000000E+00 0. -1.
        -13    1    4    4    0    0 -0.22094249246E+02 -0.36054709052E+02 -0.68426802719E+02  0.80438331813E+02  0.00000000000E+00 0. -1.
         13    1    4    4    0    0  0.13365325156E+02 -0.15308753410E+03 -0.56226532389E+02  0.16363327277E+03  0.00000000000E+00 0.  1.
         21    1    1    2  503  502  0.39963271828E+02  0.39847297961E+02  0.45949802899E+02  0.72775371084E+02  0.00000000000E+00 0. -1.
          3    1    1    2  501    0 -0.59760470573E+02  0.75538920743E+02 -0.54577899966E+02  0.11070767613E+03  0.00000000000E+00 0. -1.
<scales pt_clust_5="13000.00000" pt_clust_6="13000.00000" pt_clust_7="13000.00000" pt_clust_8="13000.00000" pt_clust_9="56.43465" pt_clust_10="97.09780"></scales>
<clustering>
<clus scale="   56.435">  1  9  2 -1</clus>
<clus scale="   90.452">  7  8 -1 -1</clus>
<clus scale="   96.518">  5  6 -1 -1</clus>
<clus scale="   97.098">  2 10  1 -1</clus>
<clus scale="  154.445">  2  7  1 -1</clus>
<clus scale="   97.098">  2  5  1 -1</clus>
</clustering>
</event>
<event>
10    2  0.3984345E-006  0.9595599E+02  0.7546771E-02  0.1289066E+00
         21   -1    0    0  503  502  0.00000000000E+00  0.00000000000E+00  0.22001052615E+03  0.22001052615E+03  0.00000000000E+00 0. -1.
         -1   -1    0    0    0  501 -0.00000000000E+00 -0.00000000000E+00 -0.25177654813E+03  0.25177654813E+03  0.00000000000E+00 0.  1.
         23    2    1    2    0    0 -0.28684036899E+02  0.37388896084E+02 -0.18871113327E+03  0.21462757313E+03  0.90732573018E+02 0.  0.
         23    2    1    2    0    0  0.53685399299E+01 -0.51666701647E+02  0.80049927096E+02  0.13171379340E+03  0.90786911302E+02 0.  0.
        -11    1    4    4    0    0 -0.30321559534E+02  0.39918474341E+01  0.51061258023E+02  0.59519609285E+02  0.00000000000E+00 0. -1.
         11    1    4    4    0    0  0.35690099463E+02 -0.55658549082E+02  0.28988669073E+02  0.72194184116E+02  0.00000000000E+00 0.  1.
        -13    1    3    3    0    0 -0.14935626386E+02  0.62708618306E+02 -0.16556013387E+03  0.17766710915E+03  0.00000000000E+00 0.  1.
         13    1    3    3    0    0 -0.13748410513E+02 -0.25319722222E+02 -0.23150999400E+02  0.36960463988E+02  0.00000000000E+00 0. -1.
         21    1    1    2  503  501  0.24871740539E+02 -0.12827298896E+02 -0.13493264209E+02  0.31067849193E+02  0.00000000000E+00 0.  1.
         -1    1    1    2    0  502 -0.15562435702E+01  0.27105104459E+02  0.90388448397E+02  0.94377858555E+02  0.00000000000E+00 0.  1.
<scales pt_clust_5="13000.00000" pt_clust_6="13000.00000" pt_clust_7="13000.00000" pt_clust_8="13000.00000" pt_clust_9="27.08192" pt_clust_10="27.14974"></scales>
<clustering>
<clus scale="   27.150">  1 10  2 -1</clus>
<clus scale="   27.082">  2  9  1 -1</clus>
<clus scale="   90.733">  7  8 -1 -1</clus>
<clus scale="   90.787">  5  6 -1 -1</clus>
<clus scale="   95.905">  2  7  1 -1</clus>
<clus scale="   27.150">  1  5  2 -1</clus>
</clustering>
</event>
<event>
10    2  0.3984345E-006  0.1902912E+03  0.7546771E-02  0.1158331E+00
         21   -1    0    0  501  502  0.00000000000E+00  0.00000000000E+00  0.30609442567E+03  0.30609442567E+03  0.00000000000E+00 0. -1.
          1   -1    0    0  503    0 -0.00000000000E+00 -0.00000000000E+00 -0.20050216422E+03  0.20050216422E+03  0.00000000000E+00 0. -1.
         23    2    1    2    0    0 -0.12487899940E+03 -0.11337731757E+03 -0.17244977416E+02  0.19335423094E+03  0.92947774291E+02 0.  0.
         23    2    1    2    0    0  0.15116427121E+03  0.62853839545E+02  0.42583571804E+02  0.19243723740E+03  0.91746867603E+02 0.  0.
        -11    1    4    4    0    0  0.10239258092E+03  0.80855586371E+02  0.50401401406E+02  0.13986481952E+03  0.00000000000E+00 0.  1.
         11    1    4    4    0    0  0.48771690288E+02 -0.18001746826E+02 -0.78178296018E+01  0.52572417883E+02  0.00000000000E+00 0. -1.
        -13    1    3    3    0    0 -0.12944015963E+03 -0.71787695900E+02 -0.26842529391E+02  0.15042855311E+03  0.00000000000E+00 0. -1.
         13    1    3    3    0    0  0.45611602271E+01 -0.41589621667E+02  0.95975519750E+01  0.42925677827E+02  0.00000000000E+00 0.  1.
         21    1    1    2  503  502 -0.24037092828E+02 -0.12979494432E+01 -0.13516422058E+01  0.24110027811E+02  0.00000000000E+00 0. -1.
          1    1    1    2  501    0 -0.22481789789E+01  0.51821427465E+02  0.81605309263E+02  0.96695093739E+02  0.00000000000E+00 0. -1.
<scales pt_clust_5="13000.00000" pt_clust_6="13000.00000" pt_clust_7="13000.00000" pt_clust_8="13000.00000" pt_clust_9="24.07211" pt_clust_10="51.86895"></scales>
<clustering>
<clus scale="   24.072">  2  9  1 -1</clus>
<clus scale="   51.869">  1 10  2 -1</clus>
<clus scale="   91.747">  5  6 -1 -1</clus>
<clus scale="   92.948">  7  8 -1 -1</clus>
<clus scale="  189.708">  1  5  2 -1</clus>
<clus scale="   51.869">  1  5  2 -1</clus>
</clustering>
</event>
<event>
10    2  0.3984345E-006  0.1132022E+03  0.7546771E-02  0.1255931E+00
         21   -1    0    0  501  502  0.00000000000E+00  0.00000000000E+00  0.21920511653E+03  0.21920511653E+03  0.00000000000E+00 0.  1.
          3   -1    0    0  503    0 -0.00000000000E+00 -0.00000000000E+00 -0.16066993519E+03  0.16066993519E+03  0.00000000000E+00 0. -1.
         23    2    1    2    0    0  0.24116214006E+02  0.74984664955E+02 -0.56125774303E+02  0.12928156508E+03  0.85786530241E+02 0.  0.
         23    2    1    2    0    0 -0.51675327580E+02 -0.28649734589E+02  0.65545423359E+02  0.12542445455E+03  0.89128808495E+02 0.  0.
        -13    1    3    3    0    0 -0.97920058326E+01  0.80435000532E+02 -0.47292463194E+02  0.93820305712E+02  0.00000000000E+00 0. -1.
         13    1    3    3    0    0  0.33908219839E+02 -0.54503355768E+01 -0.88333111094E+01  0.35461259364E+02  0.00000000000E+00 0.  1.
        -13    1    4    4    0    0  0.63724363814E+01 -0.42495928360E+02  0.45222434154E+02  0.62382532999E+02  0.00000000000E+00 0.  1.
         13    1    4    4    0    0 -0.58047763961E+02  0.13846193771E+02  0.20322989205E+02  0.63041921553E+02  0.00000000000E+00 0. -1.
         21    1    1    2  503  502  0.48672588887E+02 -0.64478328267E+02  0.16797545563E+02  0.82514442748E+02  0.00000000000E+00 0.  1.
          3    1    1    2  501    0 -0.21113475313E+02  0.18143397900E+02  0.32317986721E+02  0.42654589353E+02  0.00000000000E+00 0. -1.
<scales pt_clust_5="13000.00000" pt_clust_6="13000.00000" pt_clust_7="13000.00000" pt_clust_8="13000.00000" pt_clust_9="73.37148" pt_clust_10="27.83813"></scales>
<clustering>
<clus scale="   27.838">  1 10  2 -1</clus>
<clus scale="   73.371">  1  9  2 -1</clus>
<clus scale="   85.787">  5  6 -1 -1</clus>
<clus scale="   89.129">  7  8 -1 -1</clus>
<clus scale="  110.590">  2  5  1 -1</clus>
<clus scale="   27.838">  1  5  2 -1</clus>
</clustering>
</event>
<event>
10    2  0.3984345E-006  0.1205034E+03  0.7546771E-02  0.1243455E+00
         -4   -1    0    0    0  501 -0.00000000000E+00  0.00000000000E+00  0.15198982312E+03  0.15198982312E+03  0.00000000000E+00 0.  1.
         21   -1    0    0  503  502  0.00000000000E+00 -0.00000000000E+00 -0.31560721117E+03  0.31560721117E+03  0.00000000000E+00 0. -1.
         23    2    1    2    0    0 -0.52889935079E+02 -0.11316152391E+03 -0.90362053618E+02  0.17794917936E+03  0.88869195880E+02 0.  0.
         23    2    1    2    0    0  0.31528096334E+02  0.21139545591E+02 -0.25399202912E+02  0.10326347213E+03  0.92613843034E+02 0.  0.
        -11    1    3    3    0    0 -0.15839657968E+02 -0.10263339052E+03 -0.33209819061E+02  0.10902935245E+03  0.00000000000E+00 0.  1.
         11    1    3    3    0    0 -0.37050277110E+02 -0.10528133388E+02 -0.57152234557E+02  0.68919826911E+02  0.00000000000E+00 0. -1.
        -13    1    4    4    0    0  0.30178437551E+02 -0.33569619453E+02 -0.14929161629E+02  0.47545108163E+02  0.00000000000E+00 0.  1.
         13    1    4    4    0    0  0.13496587824E+01  0.54709165045E+02 -0.10470041284E+02  0.55718363967E+02  0.00000000000E+00 0. -1.
         21    1    1    2  503  501  0.32726809282E+02  0.73946350851E+02  0.44013087508E+02  0.92066599383E+02  0.00000000000E+00 0. -1.
         -4    1    1    2    0  502 -0.11364970537E+02  0.18075627467E+02 -0.91869219027E+02  0.94317783414E+02  0.00000000000E+00 0.  1.
<scales pt_clust_5="13000.00000" pt_clust_6="13000.00000" pt_clust_7="13000.00000" pt_clust_8="13000.00000" pt_clust_9="82.17514" pt_clust_10="21.35160"></scales>
<clustering>
<clus scale="   21.352">  2 10  1 -1</clus>
<clus scale="   82.175">  1  9  2 -1</clus>
<clus scale="   88.869">  5  6 -1 -1</clus>
<clus scale="   92.614">  7  8 -1 -1</clus>
<clus scale="  117.650">  1  5  2 -1</clus>
<clus scale="   21.352">  2  5  1 -1</clus>
</clustering>
</event>
<event>
10    2  0.3984345E-006  0.1056497E+03  0.7546771E-02  0.1275344E+00
         21   -1    0    0  501  502  0.00000000000E+00  0.00000000000E+00  0.13391994634E+03  0.13391994634E+03  0.00000000000E+00 0. -1.
          1   -1    0    0  503    0 -0.00000000000E+00 -0.00000000000E+00 -0.23758290216E+03  0.23758290216E+03  0.00000000000E+00 0. -1.
         23    2    1    2    0    0 -0.80738780110E+00  0.83692216560E+02 -0.29346600271E+02  0.12708686182E+03  0.91020923483E+02 0.  0.
         23    2    1    2    0    0  0.15841478849E+02 -0.24498265917E+02  0.37091478604E+02  0.89655726398E+02  0.76231581421E+02 0.  0.
        -11    1    3    3    0    0 -0.33430612128E+02  0.78907355560E+02 -0.36829966870E+02  0.93276058281E+02  0.00000000000E+00 0. -1.
         11    1    3    3    0    0  0.32623224327E+02  0.47848610002E+01  0.74833665990E+01  0.33810803539E+02  0.00000000000E+00 0.  1.
        -13    1    4    4    0    0 -0.17220642666E+01  0.26786228704E+02  0.73750713803E+01  0.27836293421E+02  0.00000000000E+00 0.  1.
         13    1    4    4    0    0  0.17563543115E+02 -0.51284494622E+02  0.29716407224E+02  0.61819432978E+02  0.00000000000E+00 0. -1.
         21    1    1    2  503  502 -0.85935306435E+01 -0.24664379925E+02 -0.11638910854E+03  0.11928371638E+03  0.00000000000E+00 0. -1.
          1    1    1    2  501    0 -0.64405604043E+01 -0.34529570718E+02  0.49812743866E+01  0.35476543896E+02  0.00000000000E+00 0. -1.
<scales pt_clust_5="13000.00000" pt_clust_6="13000.00000" pt_clust_7="13000.00000" pt_clust_8="13000.00000" pt_clust_9="26.11858" pt_clust_10="38.41632"></scales>
<clustering>
<clus scale="   26.119">  2  9  1 -1</clus>
<clus scale="   38.416">  1 10  2 -1</clus>
<clus scale="   76.232">  7  8 -1 -1</clus>
<clus scale="   91.021">  5  6 -1 -1</clus>
<clus scale="   93.211">  1  7  2 -1</clus>
<clus scale="   38.416">  1  5  2 -1</clus>
</clustering>
</event>
<event>
10    2  0.3984345E-006  0.1016559E+03  0.7546771E-02  0.1280772E+00
         21   -1    0    0  501  502  0.00000000000E+00  0.00000000000E+00  0.72253489050E+02  0.72253489050E+02  0.00000000000E+00 0. -1.
          1   -1    0    0  503    0 -0.00000000000E+00 -0.00000000000E+00 -0.53197205719E+03  0.53197205719E+03  0.00000000000E+00 0. -1.
         23    2    1    2    0    0  0.56478877060E+01 -0.75757135930E+02 -0.22927682442E+03  0.25785959993E+03  0.90292130245E+02 0.  0.
         23    2    1    2    0    0 -0.10137914685E+02 -0.94789012655E+01 -0.58131411930E+02  0.11471439326E+03  0.97915801000E+02 0.  0.
        -13    1    4    4    0    0 -0.47173410998E+01  0.44189795584E+02 -0.20486241349E+02  0.48935441404E+02  0.00000000000E+00 0.  1.
         13    1    4    4    0    0 -0.54205735848E+01 -0.53668696850E+02 -0.37645170581E+02  0.65778951859E+02  0.00000000000E+00 0. -1.
        -13    1    3    3    0    0 -0.34219492572E+02 -0.45484372259E+01 -0.48657738485E+02  0.59659345182E+02  0.00000000000E+00 0.  1.
         13    1    3    3    0    0  0.39867380278E+02 -0.71208698704E+02 -0.18061908593E+03  0.19820025475E+03  0.00000000000E+00 0. -1.
         21    1    1    2  503  502  0.24072077690E+02  0.63676311599E+02 -0.18701882826E+03  0.19902306325E+03  0.00000000000E+00 0. -1.
          1    1    1    2  501    0 -0.19582050712E+02  0.21559725596E+02  0.14708496463E+02  0.32628489792E+02  0.00000000000E+00 0. -1.
<scales pt_clust_5="13000.00000" pt_clust_6="13000.00000" pt_clust_7="13000.00000" pt_clust_8="13000.00000" pt_clust_9="69.78406" pt_clust_10="29.12522"></scales>
<clustering>
<clus scale="   29.125">  1 10  2 -1</clus>
<clus scale="   69.784">  2  9  1 -1</clus>
<clus scale="   90.292">  7  8 -1 -1</clus>
<clus scale="   94.335">  2  7  1 -1</clus>
<clus scale="   97.916">  5  6 -1 -1</clus>
<clus scale="   29.125">  1  5  2 -1</clus>
</clustering>
</event>
<event>
10    2  0.3984345E-006  0.1063165E+03  0.7546771E-02  0.1268205E+00
         21   -1    0    0  503  502  0.00000000000E+00  0.00000000000E+00  0.78847609677E+02  0.78847609677E+02  0.00000000000E+00 0. -1.
         -4   -1    0    0    0  501 -0.00000000000E+00 -0.00000000000E+00 -0.39429403365E+03  0.39429403365E+03  0.00000000000E+00 0.  1.
         23    2    1    2    0    0 -0.43964274748E+02  0.20947641533E+02 -0.12593875901E+03  0.16325525551E+03  0.91760810213E+02 0.  0.
         23    2    1    2    0    0  0.62910602103E+02 -0.17712840449E+02 -0.37956113178E+02  0.11767441763E+03  0.90194863837E+02 0.  0.
        -13    1    3    3    0    0 -0.64425632821E+02 -0.77537226395E+01 -0.10110479647E+03  0.12013726420E+03  0.00000000000E+00 0.  1.
         13    1    3    3    0    0  0.20461358072E+02  0.28701364172E+02 -0.24833962534E+02  0.43117991310E+02  0.00000000000E+00 0. -1.
        -13    1    4    4    0    0  0.30075659515E+02  0.25136960779E+02  0.15079228945E+02  0.41997562287E+02  0.00000000000E+00 0. -1.
         13    1    4    4    0    0  0.32834942588E+02 -0.42849801228E+02 -0.53035342124E+02  0.75676855341E+02  0.00000000000E+00 0.  1.
         21    1    1    2  503  501  0.18365887885E+02  0.32830112971E+02 -0.13117386606E+03  0.13646136923E+03  0.00000000000E+00 0.  1.
         -4    1    1    2    0  502 -0.37312215240E+02 -0.36064914054E+02 -0.20377685728E+02  0.55750600961E+02  0.00000000000E+00 0.  1.
<scales pt_clust_5="13000.00000" pt_clust_6="13000.00000" pt_clust_7="13000.00000" pt_clust_8="13000.00000" pt_clust_9="37.61811" pt_clust_10="46.65588"></scales>
<clustering>
<clus scale="   37.618">  2  9  1 -1</clus>
<clus scale="   46.656">  1 10  2 -1</clus>
<clus scale="   90.195">  7  8 -1 -1</clus>
<clus scale="   91.761">  5  6 -1 -1</clus>
<clus scale="  104.968">  1  7  2 -1</clus>
<clus scale="   46.656">  1  5  2 -1</clus>
</clustering>
</event>
<event>
10    2  0.3984345E-006  0.1337872E+03  0.7546771E-02  0.1222259E+00
          1   -1    0    0  503    0 -0.00000000000E+00  0.00000000000E+00  0.23829078319E+03  0.23829078319E+03  0.00000000000E+00 0. -1.
         21   -1    0    0  501  502  0.00000000000E+00 -0.00000000000E+00 -0.16721480637E+03  0.16721480637E+03  0.00000000000E+00 0. -1.
         23    2    1    2    0    0 -0.49169490724E+02  0.11685884252E+03  0.42292400575E+02  0.16245535151E+03  0.92355109191E+02 0.  0.
         23    2    1    2    0    0 -0.35142591934E+02 -0.79524485008E+02  0.24774622437E+02  0.12832126326E+03  0.91068211827E+02 0.  0.
        -13    1    4    4    0    0 -0.62098990660E+02 -0.76346931746E+02  0.23325384150E+02  0.10113956780E+03  0.00000000000E+00 0. -1.
         13    1    4    4    0    0  0.26956398726E+02 -0.31775532622E+01  0.14492382865E+01  0.27181695470E+02  0.00000000000E+00 0.  1.
        -13    1    3    3    0    0  0.89809235799E+01  0.87434700514E+02  0.41692157197E+02  0.97281651991E+02  0.00000000000E+00 0.  1.
         13    1    3    3    0    0 -0.58150414304E+02  0.29424142006E+02  0.60024337742E+00  0.65173699516E+02  0.00000000000E+00 0. -1.
         21    1    1    2  503  502  0.68854983967E+02 -0.22645181195E+02  0.32256536207E+02  0.79336606788E+02  0.00000000000E+00 0. -1.
          1    1    1    2  501    0  0.15457098691E+02 -0.14689176317E+02 -0.28247582398E+02  0.35392367993E+02  0.00000000000E+00 0. -1.
<scales pt_clust_5="13000.00000" pt_clust_6="13000.00000" pt_clust_7="13000.00000" pt_clust_8="13000.00000" pt_clust_9="75.85055" pt_clust_10="21.32355"></scales>
<clustering>
<clus scale="   21.324">  2 10  1 -1</clus>
<clus scale="   75.851">  1  9  2 -1</clus>
<clus scale="   91.068">  5  6 -1 -1</clus>
<clus scale="   92.355">  7  8 -1 -1</clus>
<clus scale="  132.902">  2  5  1 -1</clus>
<clus scale="   21.324">  2  5  1 -1</clus>
</clustering>
</event>
<event>
10    2  0.3984345E-006  0.1096333E+03  0.7546771E-02  0.1262841E+00
         -3   -1    0    0    0  501 -0.00000000000E+00  0.00000000000E+00  0.13544156456E+03  0.13544156456E+03  0.00000000000E+00 0.  1.
         21   -1    0    0  503  502  0.00000000000E+00 -0.00000000000E+00 -0.15197494731E+03  0.15197494731E+03  0.00000000000E+00 0. -1.
         23    2    1    2    0    0  0.44660954016E+02  0.17135152138E+02 -0.68830560561E+01  0.10346591262E+03  0.91485541812E+02 0.  0.
         23    2    1    2    0    0 -0.61245189185E+02 -0.17132288486E+02 -0.35128589462E+02  0.11989350950E+03  0.95372675939E+02 0.  0.
        -11    1    3    3    0    0 -0.58519662987E+01  0.38056532810E+02 -0.24953762106E+02  0.45882844750E+02  0.00000000000E+00 0. -1.
         11    1    3    3    0    0  0.50512920315E+02 -0.20921380672E+02  0.18070706050E+02  0.57583067868E+02  0.00000000000E+00 0.  1.
        -13    1    4    4    0    0 -0.85598824849E+02 -0.58381245240E+01 -0.16904881564E+02  0.87447227138E+02  0.00000000000E+00 0. -1.
         13    1    4    4    0    0  0.24353635663E+02 -0.11294163962E+02 -0.18223707898E+02  0.32446282363E+02  0.00000000000E+00 0.  1.
         21    1    1    2  503  501 -0.10937433698E+02  0.21228444170E+02  0.12498197835E+02  0.26953278964E+02  0.00000000000E+00 0.  1.
         -3    1    1    2    0  502  0.27521668867E+02 -0.21231307822E+02  0.12980064941E+02  0.37103810787E+02  0.00000000000E+00 0.  1.
<scales pt_clust_5="13000.00000" pt_clust_6="13000.00000" pt_clust_7="13000.00000" pt_clust_8="13000.00000" pt_clust_9="23.88042" pt_clust_10="30.15891"></scales>
<clustering>
<clus scale="   23.880">  1  9  2 -1</clus>
<clus scale="   30.159">  2 10  1 -1</clus>
<clus scale="   91.486">  5  6 -1 -1</clus>
<clus scale="   95.373">  7  8 -1 -1</clus>
<clus scale="  106.269">  1  5  2 -1</clus>
<clus scale="   30.159">  2  5  1 -1</clus>
</clustering>
</event>
<event>
10    2  0.3984345E-006  0.9192554E+02  0.7546771E-02  0.1298800E+00
         -3   -1    0    0    0  501 -0.00000000000E+00  0.00000000000E+00  0.13477270610E+03  0.13477270610E+03  0.00000000000E+00 0.  1.
         21   -1    0    0  503  502  0.00000000000E+00 -0.00000000000E+00 -0.31244958366E+03  0.31244958366E+03  0.00000000000E+00 0.  1.
         23    2    1    2    0    0 -0.17581115075E+02  0.21724677653E+02 -0.12603590556E+02  0.95974638824E+02  0.90946267521E+02 0.  0.
         23    2    1    2    0    0 -0.23719426348E+02  0.18826517980E+02 -0.12763990617E+02  0.97570265008E+02  0.91869408356E+02 0.  0.
        -11    1    3    3    0    0  0.35818724251E+02  0.20267296108E+02 -0.10689209653E+02  0.42520624426E+02  0.00000000000E+00 0.  1.
         11    1    3    3    0    0 -0.53399839326E+02  0.14573815452E+01 -0.19143809023E+01  0.53454014398E+02  0.00000000000E+00 0. -1.
        -11    1    4    4    0    0 -0.49837921893E+02 -0.15277015665E+02 -0.15905461045E+02  0.54499443642E+02  0.00000000000E+00 0. -1.
         11    1    4    4    0    0  0.26118495545E+02  0.34103533645E+02  0.31414704286E+01  0.43070821365E+02  0.00000000000E+00 0.  1.
         21    1    1    2  503  501 -0.94777343851E+01 -0.25982335385E+02  0.43123708481E+02  0.51230493207E+02  0.00000000000E+00 0. -1.
         -3    1    1    2    0  502  0.50778275807E+02 -0.14568860249E+02 -0.19543300487E+03  0.20244689272E+03  0.00000000000E+00 0.  1.
<scales pt_clust_5="13000.00000" pt_clust_6="13000.00000" pt_clust_7="13000.00000" pt_clust_8="13000.00000" pt_clust_9="27.65699" pt_clust_10="52.76064"></scales>
<clustering>
<clus scale="   27.657">  1  9  2 -1</clus>
<clus scale="   52.761">  2 10  1 -1</clus>
<clus scale="   90.946">  5  6 -1 -1</clus>
<clus scale="   91.003">  1  5  2 -1</clus>
<clus scale="   91.869">  7  8 -1 -1</clus>
<clus scale="   52.761">  2  5  1 -1</clus>
</clustering>
</event>
<event>
10    2  0.3984345E-006  0.1206703E+03  0.7546771E-02  0.1243884E+00
         -1   -1    0    0    0  501 -0.00000000000E+00  0.00000000000E+00  0.54352378709E+03  0.54352378709E+03  0.00000000000E+00 0.  1.
         21   -1    0    0  503  502  0.00000000000E+00 -0.00000000000E+00 -0.79918053438E+02  0.79918053438E+02  0.00000000000E+00 0. -1.
         23    2    1    2    0    0  0.65996737029E+01  0.89566735547E+02  0.33029636629E+03  0.35457386840E+03  0.92526659699E+02 0.  0.
         23    2    1    2    0    0  0.31975572968E+02 -0.54503901787E+02  0.10779187949E+03  0.15199652527E+03  0.86549071820E+02 0.  0.
        -11    1    3    3    0    0  0.31304806691E+02  0.91623368452E+00  0.13635662376E+03  0.13990696641E+03  0.00000000000E+00 0.  1.
         11    1    3    3    0    0 -0.24705132988E+02  0.88650501862E+02  0.19393974253E+03  0.21466690199E+03  0.00000000000E+00 0. -1.
        -13    1    4    4    0    0 -0.11628967596E+02 -0.59605681288E+02  0.45942361740E+02  0.76149660087E+02  0.00000000000E+00 0.  1.
         13    1    4    4    0    0  0.43604540564E+02  0.51017795012E+01  0.61849517747E+02  0.75846865179E+02  0.00000000000E+00 0. -1.
         21    1    1    2  503  501 -0.53931419346E+02 -0.55417954133E+02  0.40505045140E+02  0.87294938655E+02  0.00000000000E+00 0.  1.
         -1    1    1    2    0  502  0.15356172676E+02  0.20355120373E+02 -0.14987557272E+02  0.29576508206E+02  0.00000000000E+00 0.  1.
<scales pt_clust_5="13000.00000" pt_clust_6="13000.00000" pt_clust_7="13000.00000" pt_clust_8="13000.00000" pt_clust_9="67.07290" pt_clust_10="25.49790"></scales>
<clustering>
<clus scale="   25.498">  2 10  1 -1</clus>
<clus scale="   67.073">  2  9  1 -1</clus>
<clus scale="   86.549">  7  8 -1 -1</clus>
<clus scale="   92.527">  5  6 -1 -1</clus>
<clus scale="  116.150">  2  7  1 -1</clus>
<clus scale="   25.498">  2  5  1 -1</clus>
</clustering>
</event>
<event>
10    2  0.3984345E-006  0.1808422E+03  0.7546771E-02  0.1180295E+00
          3   -1    0    0  503    0 -0.00000000000E+00  0.00000000000E+00  0.76648681597E+03  0.76648681597E+03  0.00000000000E+00 0. -1.
         21   -1    0    0  501  502  0.00000000000E+00 -0.00000000000E+00 -0.33885860843E+03  0.33885860843E+03  0.00000000000E+00 0. -1.
         23    2    1    2    0    0  0.28812530951E+02 -0.77606049982E+02  0.52098337847E+03  0.53534136153E+03  0.91180215969E+02 0.  0.
         23    2    1    2    0    0  0.12519770015E+03  0.15772406805E+03  0.36561023174E+02  0.22406865248E+03  0.91206945154E+02 0.  0.
        -11    1    4    4    0    0  0.82135415985E+02  0.15718018062E+03  0.36189012744E+02  0.18100132701E+03  0.00000000000E+00 0. -1.
         11    1    4    4    0    0  0.43062284165E+02  0.54388743232E+00  0.37201042962E+00  0.43067325467E+02  0.00000000000E+00 0.  1.
        -13    1    3    3    0    0  0.49988871769E+02 -0.61986936652E+02  0.48052650704E+03  0.48708006692E+03  0.00000000000E+00 0. -1.
         13    1    3    3    0    0 -0.21176340818E+02 -0.15619113330E+02  0.40456871426E+02  0.48261294608E+02  0.00000000000E+00 0.  1.
         21    1    1    2  503  502 -0.13190605577E+02 -0.23688912596E+02  0.81403354689E+02  0.85800132926E+02  0.00000000000E+00 0.  1.
          3    1    1    2  501    0 -0.14081962552E+03 -0.56429105469E+02 -0.21131954880E+03  0.26013527746E+03  0.00000000000E+00 0. -1.
<scales pt_clust_5="13000.00000" pt_clust_6="13000.00000" pt_clust_7="13000.00000" pt_clust_8="13000.00000" pt_clust_9="27.11377" pt_clust_10="156.15754"></scales>
<clustering>
<clus scale="   27.114">  1  9  2 -1</clus>
<clus scale="   91.180">  7  8 -1 -1</clus>
<clus scale="   91.207">  5  6 -1 -1</clus>
<clus scale="  133.650">  1  7  2 -1</clus>
<clus scale="  156.158">  2 10  1 -1</clus>
<clus scale="  156.158">  2  5  1 -1</clus>
</clustering>
</event>
<event>
10    2  0.3984345E-006  0.1776109E+03  0.7546771E-02  0.1170371E+00
         21   -1    0    0  501  502  0.00000000000E+00  0.00000000000E+00  0.11611425560E+03  0.11611425560E+03  0.00000000000E+00 0.  1.
          2   -1    0    0  503    0 -0.00000000000E+00 -0.00000000000E+00 -0.81611294924E+03  0.81611294924E+03  0.00000000000E+00 0. -1.
         23    2    1    2    0    0 -0.10961564792E+03  0.64415888150E+02 -0.46613978637E+03  0.49127387005E+03  0.88874732274E+02 0.  0.
         23    2    1    2    0    0  0.12784813027E+03 -0.64133772273E+02  0.38418480697E+01  0.16943785306E+03  0.90753187778E+02 0.  0.
        -11    1    3    3    0    0 -0.90939184872E+02  0.86847829306E+02 -0.38743394603E+03  0.40732977222E+03  0.00000000000E+00 0. -1.
         11    1    3    3    0    0 -0.18676463051E+02 -0.22431941156E+02 -0.78705840337E+02  0.83944097823E+02  0.00000000000E+00 0.  1.
        -13    1    4    4    0    0  0.20850279676E+02  0.13537853962E+02  0.25323921051E+02  0.35486738789E+02  0.00000000000E+00 0. -1.
         13    1    4    4    0    0  0.10699785059E+03 -0.77671626234E+02 -0.21482072982E+02  0.13395111427E+03  0.00000000000E+00 0.  1.
         21    1    1    2  503  502 -0.30013639202E+02  0.16385516696E+02 -0.24680752001E+03  0.24916511720E+03  0.00000000000E+00 0.  1.
          2    1    1    2  501    0  0.11781156855E+02 -0.16667632573E+02  0.91067646633E+01  0.22350364540E+02  0.00000000000E+00 0. -1.
<scales pt_clust_5="13000.00000" pt_clust_6="13000.00000" pt_clust_7="13000.00000" pt_clust_8="13000.00000" pt_clust_9="33.98003" pt_clust_10="20.41092"></scales>
<clustering>
<clus scale="   20.411">  1 10  2 -1</clus>
<clus scale="   33.980">  2  9  1 -1</clus>
<clus scale="   88.875">  5  6 -1 -1</clus>
<clus scale="   90.753">  7  8 -1 -1</clus>
<clus scale="  176.658">  2  5  1 -1</clus>
<clus scale="   20.411">  1  5  2 -1</clus>
</clustering>
</event>
<event>
10    2  0.3984345E-006  0.9791823E+02  0.7546771E-02  0.1285525E+00
          2   -1    0    0  503    0 -0.00000000000E+00  0.00000000000E+00  0.52184475980E+03  0.52184475980E+03  0.00000000000E+00 0. -1.
         21   -1    0    0  501  502  0.00000000000E+00 -0.00000000000E+00 -0.58004481998E+02  0.58004481998E+02  0.00000000000E+00 0.  1.
         23    2    1    2    0    0  0.19510949322E+01 -0.57159093420E+01  0.19782406295E+03  0.21727699451E+03  0.89657426207E+02 0.  0.
         23    2    1    2    0    0 -0.42869542555E+02  0.67852914218E+02  0.12171160819E+03  0.17197554685E+03  0.91214349209E+02 0.  0.
        -11    1    4    4    0    0 -0.10159211415E+02 -0.22883285187E+02  0.25944705359E+02  0.36055263883E+02  0.00000000000E+00 0. -1.
         11    1    4    4    0    0 -0.32710331140E+02  0.90736199404E+02  0.95766902826E+02  0.13592028297E+03  0.00000000000E+00 0.  1.
        -13    1    3    3    0    0 -0.81095808538E+01  0.39837053750E+02  0.66830747114E+02  0.78224707816E+02  0.00000000000E+00 0.  1.
         13    1    3    3    0    0  0.10060675786E+02 -0.45552963092E+02  0.13099331583E+03  0.13905228670E+03  0.00000000000E+00 0. -1.
         21    1    1    2  503  502  0.88731328900E+01 -0.22422709908E+02  0.13692853337E+03  0.13903572799E+03  0.00000000000E+00 0.  1.
          2    1    1    2  501    0  0.32045314733E+02 -0.39714294967E+02  0.73760732954E+01  0.51560972434E+02  0.00000000000E+00 0. -1.
<scales pt_clust_5="13000.00000" pt_clust_6="13000.00000" pt_clust_7="13000.00000" pt_clust_8="13000.00000" pt_clust_9="24.11453" pt_clust_10="52.80091"></scales>
<clustering>
<clus scale="   24.115">  1  9  2 -1</clus>
<clus scale="   52.801">  2 10  1 -1</clus>
<clus scale="   89.657">  7  8 -1 -1</clus>
<clus scale="   91.214">  5  6 -1 -1</clus>
<clus scale="   96.470">  1  7  2 -1</clus>
<clus scale="   52.801">  2  5  1 -1</clus>
</clustering>
</event>
<event>
10    2  0.3984345E-006  0.1626829E+03  0.7546771E-02  0.1206581E+00
          1   -1    0    0  503    0 -0.00000000000E+00  0.00000000000E+00  0.31264099047E+03  0.31264099047E+03  0.00000000000E+00 0. -1.
         21   -1    0    0  501  502  0.00000000000E+00 -0.00000000000E+00 -0.63790103265E+03  0.63790103265E+03  0.00000000000E+00 0. -1.
         23    2    1    2    0    0 -0.39558591248E+02 -0.38315918713E+02  0.19537514870E+03  0.22149718955E+03  0.88637263500E+02 0.  0.
         23    2    1    2    0    0  0.10933906035E+03 -0.69099825594E+02 -0.35041711285E+02  0.16239982757E+03  0.91738576667E+02 0.  0.
        -11    1    4    4    0    0  0.11447359625E+03 -0.38380759118E+02 -0.77432423972E+01  0.12098448129E+03  0.00000000000E+00 0. -1.
         11    1    4    4    0    0 -0.51345359008E+01 -0.30719066476E+02 -0.27298468887E+02  0.41415346282E+02  0.00000000000E+00 0.  1.
        -13    1    3    3    0    0 -0.64043931172E+02 -0.39144407708E+02  0.17187173968E+03  0.18754680663E+03  0.00000000000E+00 0. -1.
         13    1    3    3    0    0  0.24485339924E+02  0.82848899513E+00  0.23503409020E+02  0.33950382925E+02  0.00000000000E+00 0.  1.
         21    1    1    2  503  502 -0.16561465833E+03  0.67220939994E+02 -0.37184481732E+03  0.41257173679E+03  0.00000000000E+00 0. -1.
          1    1    1    2  501    0  0.95834189230E+02  0.40194804313E+02 -0.11374866228E+03  0.15407326922E+03  0.00000000000E+00 0. -1.
<scales pt_clust_5="13000.00000" pt_clust_6="13000.00000" pt_clust_7="13000.00000" pt_clust_8="13000.00000" pt_clust_9="134.34941" pt_clust_10="103.92215"></scales>
<clustering>
<clus scale="   88.637">  7  8 -1 -1</clus>
<clus scale="   91.739">  5  6 -1 -1</clus>
<clus scale="  103.922">  2 10  1 -1</clus>
<clus scale="  103.056">  1  7  2 -1</clus>
<clus scale="  134.349">  2  9  1 -1</clus>
<clus scale="  103.922">  2  5  1 -1</clus>
</clustering>
</event>
<event>
10    2  0.3984345E-006  0.1061804E+03  0.7546771E-02  0.1267929E+00
         21   -1    0    0  503  502  0.00000000000E+00  0.00000000000E+00  0.16498732980E+03  0.16498732980E+03  0.00000000000E+00 0. -1.
         -1   -1    0    0    0  501 -0.00000000000E+00 -0.00000000000E+00 -0.26035079367E+03  0.26035079367E+03  0.00000000000E+00 0.  1.
         23    2    1    2    0    0  0.83295984002E+02  0.75740216804E+01 -0.76275347105E+02  0.14529631905E+03  0.91090641659E+02 0.  0.
         23    2    1    2    0    0 -0.24190875162E+02  0.40850067590E+02 -0.34939933124E+01  0.10302890505E+03  0.91371882018E+02 0.  0.
        -11    1    4    4    0    0 -0.98258063132E+00  0.20400741659E+02  0.42758633358E+02  0.47386247494E+02  0.00000000000E+00 0. -1.
         11    1    4    4    0    0 -0.23208294530E+02  0.20449325931E+02 -0.46252626670E+02  0.55642657556E+02  0.00000000000E+00 0.  1.
        -13    1    3    3    0    0  0.10328934134E+03  0.81292507239E+01 -0.62307780484E+02  0.12090091919E+03  0.00000000000E+00 0. -1.
         13    1    3    3    0    0 -0.19993357339E+02 -0.55522904343E+00 -0.13967566621E+02  0.24395399859E+02  0.00000000000E+00 0.  1.
         21    1    1    2  503  501 -0.30951661737E+02 -0.96433540033E+01 -0.85964572899E+02  0.91874411206E+02  0.00000000000E+00 0.  1.
         -1    1    1    2    0  502 -0.28153447103E+02 -0.38780735267E+02  0.70370449443E+02  0.85138488162E+02  0.00000000000E+00 0.  1.
<scales pt_clust_5="13000.00000" pt_clust_6="13000.00000" pt_clust_7="13000.00000" pt_clust_8="13000.00000" pt_clust_9="32.41912" pt_clust_10="49.04891"></scales>
<clustering>
<clus scale="   32.419">  2  9  1 -1</clus>
<clus scale="   49.049">  1 10  2 -1</clus>
<clus scale="   91.091">  7  8 -1 -1</clus>
<clus scale="   91.372">  5  6 -1 -1</clus>
<clus scale="  105.939">  2  7  1 -1</clus>
<clus scale="   49.049">  1  5  2 -1</clus>
</clustering>
</event>
<event>
10    2  0.3984345E-006  0.9487861E+02  0.7546771E-02  0.1291729E+00
         21   -1    0    0  501  502  0.00000000000E+00  0.00000000000E+00  0.17814554370E+03  0.17814554370E+03  0.00000000000E+00 0.  1.
          2   -1    0    0  503    0 -0.00000000000E+00 -0.00000000000E+00 -0.16210349709E+03  0.16210349709E+03  0.00000000000E+00 0. -1.
         23    2    1    2    0    0  0.30726549551E+02 -0.22770933371E+02 -0.47296481449E+02  0.11089625998E+03  0.92727488194E+02 0.  0.
         23    2    1    2    0    0 -0.82701101539E+01  0.32002404434E+02  0.96674923677E+02  0.13763493446E+03  0.92221395041E+02 0.  0.
        -11    1    4    4    0    0 -0.33231027361E+02  0.11388999533E+02  0.99129589153E+02  0.10516979574E+03  0.00000000000E+00 0.  1.
         11    1    4    4    0    0  0.24960917207E+02  0.20613404901E+02 -0.24546654756E+01  0.32465138719E+02  0.00000000000E+00 0. -1.
        -13    1    3    3    0    0 -0.14450496170E+02  0.16006896139E+02  0.13788766005E+02  0.25596242527E+02  0.00000000000E+00 0.  1.
         13    1    3    3    0    0  0.45177045720E+02 -0.38777829509E+02 -0.61085247454E+02  0.85300017456E+02  0.00000000000E+00 0. -1.
         21    1    1    2  503  502 -0.32869112913E+02  0.11617833034E+02 -0.51486586557E+02  0.62178945177E+02  0.00000000000E+00 0. -1.
          2    1    1    2  501    0  0.10412673516E+02 -0.20849304098E+02  0.18150190941E+02  0.29538901170E+02  0.00000000000E+00 0. -1.
<scales pt_clust_5="13000.00000" pt_clust_6="13000.00000" pt_clust_7="13000.00000" pt_clust_8="13000.00000" pt_clust_9="34.28561" pt_clust_10="23.30488"></scales>
<clustering>
<clus scale="   23.305">  1 10  2 -1</clus>
<clus scale="   34.286">  2  9  1 -1</clus>
<clus scale="   92.221">  5  6 -1 -1</clus>
<clus scale="   92.727">  7  8 -1 -1</clus>
<clus scale="   94.384">  1  5  2 -1</clus>
<clus scale="   23.305">  1  5  2 -1</clus>
</clustering>
</event>
<event>
10    2  0.3984345E-006  0.9598423E+02  0.7546771E-02  0.1291123E+00
          1   -1    0    0  503    0 -0.00000000000E+00  0.00000000000E+00  0.78021204269E+02  0.78021204269E+02  0.00000000000E+00 0. -1.
         21   -1    0    0  501  502  0.00000000000E+00 -0.00000000000E+00 -0.80708807303E+03  0.80708807303E+03  0.00000000000E+00 0. -1.
         23    2    1    2    0    0  0.15983211440E+02  0.48016976909E+02 -0.29011461831E+02  0.10988506847E+03  0.93123414006E+02 0.  0.
         23    2    1    2    0    0 -0.59756216147E+02 -0.11286948220E+02 -0.18714726573E+03  0.21606007563E+03  0.89216907836E+02 0.  0.
        -13    1    4    4    0    0 -0.35124683431E+02  0.22726756993E+02 -0.25384521815E+02  0.48934883440E+02  0.00000000000E+00 0. -1.
         13    1    4    4    0    0 -0.24631532715E+02 -0.34013705213E+02 -0.16176274392E+03  0.16712519219E+03  0.00000000000E+00 0.  1.
        -13    1    3    3    0    0  0.47550785985E+02  0.55819097431E+02 -0.22704723628E+02  0.76761665959E+02  0.00000000000E+00 0.  1.
         13    1    3    3    0    0 -0.31567574545E+02 -0.78021205214E+01 -0.63067382029E+01  0.33123402513E+02  0.00000000000E+00 0. -1.
         21    1    1    2  503  502 -0.37277365061E+02 -0.42050256258E+02 -0.20060046737E+02  0.59667675272E+02  0.00000000000E+00 0. -1.
          1    1    1    2  501    0  0.81050369767E+02  0.53202275694E+01 -0.49284809446E+03  0.49949645792E+03  0.00000000000E+00 0. -1.
<scales pt_clust_5="13000.00000" pt_clust_6="13000.00000" pt_clust_7="13000.00000" pt_clust_8="13000.00000" pt_clust_9="56.19454" pt_clust_10="78.97582"></scales>
<clustering>
<clus scale="   56.195">  1  9  2 -1</clus>
<clus scale="   78.976">  2 10  1 -1</clus>
<clus scale="   89.217">  5  6 -1 -1</clus>
<clus scale="   92.199">  2  5  1 -1</clus>
<clus scale="   93.123">  7  8 -1 -1</clus>
<clus scale="   78.976">  2  5  1 -1</clus>
</clustering>
</event>
<event>
10    2  0.3984345E-006  0.1633719E+03  0.7546771E-02  0.1186131E+00
         21   -1    0    0  503  502  0.00000000000E+00  0.00000000000E+00  0.95638637219E+02  0.95638637219E+02  0.00000000000E+00 0.  1.
         -1   -1    0    0    0  501 -0.00000000000E+00 -0.00000000000E+00 -0.51801370124E+03  0.51801370124E+03  0.00000000000E+00 0.  1.
         23    2    1    2    0    0  0.79363865678E+02  0.81468782473E+02 -0.25266226627E+03  0.29367493162E+03  0.97318852084E+02 0.  0.
         23    2    1    2    0    0 -0.10691111190E+03 -0.10879458851E+03 -0.78998721647E+02  0.19391114833E+03  0.89969367514E+02 0.  0.
        -13    1    3    3    0    0  0.64238857084E+02  0.98948036870E+02 -0.16383340497E+03  0.20188791282E+03  0.00000000000E+00 0.  1.
         13    1    3    3    0    0  0.15125008594E+02 -0.17479254398E+02 -0.88828861302E+02  0.91787018796E+02  0.00000000000E+00 0. -1.
        -13    1    4    4    0    0 -0.45481717484E+02 -0.98954696073E+02 -0.73643564631E+02  0.13146860124E+03  0.00000000000E+00 0. -1.
         13    1    4    4    0    0 -0.61429394412E+02 -0.98398924340E+01 -0.53551570158E+01  0.62442547094E+02  0.00000000000E+00 0.  1.
         21    1    1    2  503  501 -0.10576846755E+02  0.31290304471E+02 -0.79564456044E+02  0.86147870007E+02  0.00000000000E+00 0.  1.
         -1    1    1    2    0  502  0.38124092973E+02 -0.39644984373E+01 -0.11149620058E+02  0.39918388499E+02  0.00000000000E+00 0.  1.
<scales pt_clust_5="13000.00000" pt_clust_6="13000.00000" pt_clust_7="13000.00000" pt_clust_8="13000.00000" pt_clust_9="33.02958" pt_clust_10="37.56382"></scales>
<clustering>
<clus scale="   33.030">  2  9  1 -1</clus>
<clus scale="   37.564">  1 10  2 -1</clus>
<clus scale="   89.969">  7  8 -1 -1</clus>
<clus scale="   97.319">  5  6 -1 -1</clus>
<clus scale="  159.103">  1  7  2 -1</clus>
<clus scale="   37.564">  1  5  2 -1</clus>
</clustering>
</event>
<event>
10    2  0.3984345E-006  0.1243777E+03  0.7546771E-02  0.1236066E+00
         21   -1    0    0  501  502  0.00000000000E+00  0.00000000000E+00  0.45948632239E+02  0.45948632239E+02  0.00000000000E+00 0.  1.
          2   -1    0    0  503    0 -0.00000000000E+00 -0.00000000000E+00 -0.80818301502E+03  0.80818301502E+03  0.00000000000E+00 0. -1.
         23    2    1    2    0    0 -0.20826599649E+02  0.49572514238E+02 -0.30002740777E+03  0.31786747717E+03  0.90178191423E+02 0.  0.
         23    2    1    2    0    0  0.85739181861E+02 -0.11470800265E+03 -0.27238235640E+03  0.32065586375E+03  0.90104948272E+02 0.  0.
        -13    1    3    3    0    0  0.32344987607E+02  0.36381075648E+00 -0.83835063719E+02  0.89859047905E+02  0.00000000000E+00 0.  1.
         13    1    3    3    0    0 -0.53171587256E+02  0.49208703481E+02 -0.21619234405E+03  0.22800842927E+03  0.00000000000E+00 0. -1.
        -13    1    4    4    0    0  0.52884950449E+02 -0.31331220830E+02 -0.18712719347E+03  0.19696459052E+03  0.00000000000E+00 0. -1.
         13    1    4    4    0    0  0.32854231412E+02 -0.83376781817E+02 -0.85255162934E+02  0.12369127324E+03  0.00000000000E+00 0.  1.
         21    1    1    2  503  502 -0.84231329117E+01  0.21215879250E+02 -0.89601228798E+02  0.92463197557E+02  0.00000000000E+00 0. -1.
          2    1    1    2  501    0 -0.56489449300E+02  0.43919609159E+02 -0.10022338981E+03  0.12314510878E+03  0.00000000000E+00 0. -1.
<scales pt_clust_5="13000.00000" pt_clust_6="13000.00000" pt_clust_7="13000.00000" pt_clust_8="13000.00000" pt_clust_9="22.82680" pt_clust_10="74.63947"></scales>
<clustering>
<clus scale="   22.827">  2  9  1 -1</clus>
<clus scale="   74.639">  1 10  2 -1</clus>
<clus scale="   90.105">  7  8 -1 -1</clus>
<clus scale="   90.178">  5  6 -1 -1</clus>
<clus scale="  124.325">  1  7  2 -1</clus>
<clus scale="   74.639">  1  5  2 -1</clus>
</clustering>
</event>
<event>
10    2  0.3984345E-006  0.1694434E+03  0.7546771E-02  0.1194697E+00
          2   -1    0    0  503    0 -0.00000000000E+00  0.00000000000E+00  0.95229007447E+03  0.95229007447E+03  0.00000000000E+00 0. -1.
         21   -1    0    0  501  502  0.00000000000E+00 -0.00000000000E+00 -0.10088643964E+03  0.10088643964E+03  0.00000000000E+00 0.  1.
         23    2    1    2    0    0 -0.19741839317E+02  0.46272253056E+02  0.25143507191E+03  0.27261521527E+03  0.92566725064E+02 0.  0.
         23    2    1    2    0    0 -0.64697917806E+02 -0.18352553390E+03  0.12572147444E+03  0.24937891650E+03  0.92284953786E+02 0.  0.
        -13    1    3    3    0    0 -0.14707463031E+02 -0.18402244100E+02  0.16176312109E+02  0.28576653586E+02  0.00000000000E+00 0.  1.
         13    1    3    3    0    0 -0.50343762856E+01  0.64674497155E+02  0.23525875980E+03  0.24403856169E+03  0.00000000000E+00 0. -1.
        -13    1    4    4    0    0 -0.24897488511E+02 -0.69125105541E+02  0.10239463790E+03  0.12602708844E+03  0.00000000000E+00 0.  1.
         13    1    4    4    0    0 -0.39800429296E+02 -0.11440042836E+03  0.23326836537E+02  0.12335182805E+03  0.00000000000E+00 0. -1.
         21    1    1    2  503  502  0.69658779403E+01  0.54594358140E+02  0.37957006833E+03  0.38353944278E+03  0.00000000000E+00 0.  1.
          2    1    1    2  501    0  0.77473879183E+02  0.82658922704E+02  0.94677020150E+02  0.14764293956E+03  0.00000000000E+00 0. -1.
<scales pt_clust_5="13000.00000" pt_clust_6="13000.00000" pt_clust_7="13000.00000" pt_clust_8="13000.00000" pt_clust_9="55.03696" pt_clust_10="142.10749"></scales>
<clustering>
<clus scale="   55.037">  1  9  2 -1</clus>
<clus scale="   92.285">  7  8 -1 -1</clus>
<clus scale="   92.567">  5  6 -1 -1</clus>
<clus scale="  118.031">  1  5  2 -1</clus>
<clus scale="  142.107">  2 10  1 -1</clus>
<clus scale="  142.107">  2  5  1 -1</clus>
</clustering>
</event>
<event>
10    2  0.3984345E-006  0.1606753E+03  0.7546771E-02  0.1199155E+00
          1   -1    0    0  503    0 -0.00000000000E+00  0.00000000000E+00  0.16557542134E+03  0.16557542134E+03  0.00000000000E+00 0. -1.
         21   -1    0    0  501  502  0.00000000000E+00 -0.00000000000E+00 -0.63651768214E+03  0.63651768214E+03  0.00000000000E+00 0. -1.
         23    2    1    2    0    0  0.74464219567E+02 -0.41760956289E+02 -0.14688556498E+03  0.19612497522E+03  0.97983362045E+02 0.  0.
         23    2    1    2    0    0  0.72689906682E+01 -0.11842150375E+03 -0.36912048327E+02  0.15379801241E+03  0.90635746438E+02 0.  0.
        -13    1    4    4    0    0 -0.25571230192E+02 -0.13774740217E+02 -0.33122634770E+02  0.44053833155E+02  0.00000000000E+00 0.  1.
         13    1    4    4    0    0  0.32840220860E+02 -0.10464676353E+03 -0.37894135572E+01  0.10974417925E+03  0.00000000000E+00 0. -1.
        -13    1    3    3    0    0  0.70432267857E+02 -0.68473213982E+02 -0.90334597958E+02  0.13345270689E+03  0.00000000000E+00 0.  1.
         13    1    3    3    0    0  0.40319517101E+01  0.26712257693E+02 -0.56550967023E+02  0.62672268324E+02  0.00000000000E+00 0. -1.
         21    1    1    2  503  502 -0.87685266886E+01  0.42403059227E+02  0.62523699160E+02  0.76053398667E+02  0.00000000000E+00 0. -1.
          1    1    1    2  501    0 -0.72964683546E+02  0.11777940081E+03 -0.34966834665E+03  0.37611671719E+03  0.00000000000E+00 0. -1.
<scales pt_clust_5="13000.00000" pt_clust_6="13000.00000" pt_clust_7="13000.00000" pt_clust_8="13000.00000" pt_clust_9="43.30019" pt_clust_10="132.67142"></scales>
<clustering>
<clus scale="   43.300">  1  9  2 -1</clus>
<clus scale="   90.636">  5  6 -1 -1</clus>
<clus scale="   97.983">  7  8 -1 -1</clus>
<clus scale="  125.590">  1  7  2 -1</clus>
<clus scale="  132.671">  2 10  1 -1</clus>
<clus scale="  132.671">  2  5  1 -1</clus>
</clustering>
</event>
<event>
10    2  0.3984345E-006  0.1190225E+03  0.7546771E-02  0.1245956E+00
         21   -1    0    0  503  502  0.00000000000E+00  0.00000000000E+00  0.89411396141E+02  0.89411396141E+02  0.00000000000E+00 0.  1.
         -3   -1    0    0    0  501 -0.00000000000E+00 -0.00000000000E+00 -0.58229023364E+03  0.58229023364E+03  0.00000000000E+00 0.  1.
         23    2    1    2    0    0  0.48572790061E+02 -0.22847237198E+02 -0.23895312487E+03  0.26124912076E+03  0.90946110585E+02 0.  0.
         23    2    1    2    0    0 -0.89511899566E+02 -0.84860348488E+02 -0.76200925346E+02  0.17314807165E+03  0.94657354611E+02 0.  0.
        -11    1    3    3    0    0  0.71915871894E+02 -0.11126584029E+02 -0.21001672244E+03  0.22226722027E+03  0.00000000000E+00 0. -1.
         11    1    3    3    0    0 -0.23343081834E+02 -0.11720653169E+02 -0.28936402436E+02  0.38981900494E+02  0.00000000000E+00 0.  1.
        -13    1    4    4    0    0 -0.70872390485E+02 -0.96983092488E+02 -0.87110653491E+02  0.14838086775E+03  0.00000000000E+00 0.  1.
         13    1    4    4    0    0 -0.18639509081E+02  0.12122744000E+02  0.10909728144E+02  0.24767203901E+02  0.00000000000E+00 0. -1.
         21    1    1    2  503  501  0.34176527089E+02  0.22820173699E+02 -0.13677213382E+03  0.14281250618E+03  0.00000000000E+00 0.  1.
         -3    1    1    2    0  502  0.67625824166E+01  0.84887411987E+02 -0.40952653456E+02  0.94491931190E+02  0.00000000000E+00 0.  1.
<scales pt_clust_5="13000.00000" pt_clust_6="13000.00000" pt_clust_7="13000.00000" pt_clust_8="13000.00000" pt_clust_9="41.09496" pt_clust_10="89.18996"></scales>
<clustering>
<clus scale="   41.095">  2  9  1 -1</clus>
<clus scale="   89.190">  1 10  2 -1</clus>
<clus scale="   90.946">  5  6 -1 -1</clus>
<clus scale="   94.657">  7  8 -1 -1</clus>
<clus scale="  116.093">  2  5  1 -1</clus>
<clus scale="   89.190">  1  5  2 -1</clus>
</clustering>
</event>
<event>
10    2  0.3984345E-006  0.3735098E+03  0.7546771E-02  0.1093928E+00
         21   -1    0    0  501  502  0.00000000000E+00  0.00000000000E+00  0.15104919919E+04  0.15104919919E+04  0.00000000000E+00 0.  1.
          2   -1    0    0  503    0 -0.00000000000E+00 -0.00000000000E+00 -0.13896975828E+03  0.13896975828E+03  0.00000000000E+00 0. -1.
         23    2    1    2    0    0  0.67481549769E+02  0.52182393736E+02  0.12170034706E+03  0.17376942286E+03  0.90044855877E+02 0.  0.
         23    2    1    2    0    0 -0.32847285132E+03 -0.22423427372E+03  0.78375447305E+03  0.88359345460E+03  0.91054354157E+02 0.  0.
        -11    1    4    4    0    0 -0.10856692868E+03 -0.12331283169E+03  0.35772801635E+03  0.39365234172E+03  0.00000000000E+00 0.  1.
         11    1    4    4    0    0 -0.21990592264E+03 -0.10092144203E+03  0.42602645670E+03  0.48994111287E+03  0.00000000000E+00 0. -1.
        -13    1    3    3    0    0  0.55796142209E+02 -0.60819984885E+01  0.27772206336E+02  0.62621846314E+02  0.00000000000E+00 0.  1.
         13    1    3    3    0    0  0.11685407561E+02  0.58264392224E+02  0.93928140729E+02  0.11114757655E+03  0.00000000000E+00 0. -1.
         21    1    1    2  503  502 -0.29389191426E+02  0.28695374907E+02  0.59983225220E+02  0.72698943744E+02  0.00000000000E+00 0. -1.
          2    1    1    2  501    0  0.29038049298E+03  0.14335650508E+03  0.40608418832E+03  0.51939992901E+03  0.00000000000E+00 0. -1.
<scales pt_clust_5="13000.00000" pt_clust_6="13000.00000" pt_clust_7="13000.00000" pt_clust_8="13000.00000" pt_clust_9="41.07492" pt_clust_10="362.24135"></scales>
<clustering>
<clus scale="   41.075">  2  9  1 -1</clus>
<clus scale="   90.045">  7  8 -1 -1</clus>
<clus scale="   91.054">  5  6 -1 -1</clus>
<clus scale="  123.528">  2  7  1 -1</clus>
<clus scale="  362.241">  1 10  2 -1</clus>
<clus scale="  362.241">  1  5  2 -1</clus>
</clustering>
</event>
<event>
10    2  0.3984345E-006  0.1033010E+03  0.7546771E-02  0.1274156E+00
         -3   -1    0    0    0  501 -0.00000000000E+00  0.00000000000E+00  0.39409646945E+03  0.39409646945E+03  0.00000000000E+00 0.  1.
         21   -1    0    0  503  502  0.00000000000E+00 -0.00000000000E+00 -0.10671001334E+03  0.10671001334E+03  0.00000000000E+00 0.  1.
         23    2    1    2    0    0  0.46328575365E+01 -0.50935129537E+02  0.14133667098E+03  0.17643444872E+03  0.92397020190E+02 0.  0.
         23    2    1    2    0    0 -0.45893301296E+02  0.34048698840E+02  0.73516916159E+02  0.13016645464E+03  0.90956362915E+02 0.  0.
        -13    1    3    3    0    0 -0.42270929674E+02 -0.36230258877E+02  0.85681853874E+02  0.10218044449E+03  0.00000000000E+00 0. -1.
         13    1    3    3    0    0  0.46903787211E+02 -0.14704870660E+02  0.55654817109E+02  0.74254004224E+02  0.00000000000E+00 0.  1.
        -13    1    4    4    0    0 -0.20645928163E+02  0.37608233269E+02  0.90070998745E+02  0.99766820006E+02  0.00000000000E+00 0.  1.
         13    1    4    4    0    0 -0.25247373132E+02 -0.35595344288E+01 -0.16554082585E+02  0.30399634631E+02  0.00000000000E+00 0. -1.
         21    1    1    2  503  501  0.33770997813E+02  0.35667204982E+02  0.12696741653E+03  0.13613726405E+03  0.00000000000E+00 0.  1.
         -3    1    1    2    0  502  0.74894459460E+01 -0.18780774284E+02 -0.54434547560E+02  0.58068315382E+02  0.00000000000E+00 0.  1.
<scales pt_clust_5="13000.00000" pt_clust_6="13000.00000" pt_clust_7="13000.00000" pt_clust_8="13000.00000" pt_clust_9="48.37599" pt_clust_10="20.21903"></scales>
<clustering>
<clus scale="   20.219">  2 10  1 -1</clus>
<clus scale="   48.376">  1  9  2 -1</clus>
<clus scale="   90.956">  7  8 -1 -1</clus>
<clus scale="   92.397">  5  6 -1 -1</clus>
<clus scale="  102.014">  2  7  1 -1</clus>
<clus scale="   20.219">  2  5  1 -1</clus>
</clustering>
</event>
<event>
10    2  0.3984345E-006  0.9508345E+02  0.7546771E-02  0.1291924E+00
         21   -1    0    0  501  502  0.00000000000E+00  0.00000000000E+00  0.26465145067E+03  0.26465145067E+03  0.00000000000E+00 0. -1.
          2   -1    0    0  503    0 -0.00000000000E+00 -0.00000000000E+00 -0.51674886678E+03  0.51674886678E+03  0.00000000000E+00 0. -1.
         23    2    1    2    0    0  0.28487697391E+02 -0.23570532691E+02 -0.70392935330E+02  0.12099091632E+03  0.91194942699E+02 0.  0.
         23    2    1    2    0    0  0.25742726433E+02  0.35804635100E+01  0.94356210085E+01  0.96911665535E+02  0.92883433882E+02 0.  0.
        -11    1    3    3    0    0 -0.33943692673E+01 -0.52916415723E+02 -0.26371775844E+02  0.59221105670E+02  0.00000000000E+00 0.  1.
         11    1    3    3    0    0  0.31882066658E+02  0.29345883032E+02 -0.44021159486E+02  0.61769810651E+02  0.00000000000E+00 0. -1.
        -13    1    4    4    0    0 -0.20374570507E+02 -0.23134754967E+02 -0.19291462816E+02  0.36366200631E+02  0.00000000000E+00 0. -1.
         13    1    4    4    0    0  0.46117296941E+02  0.26715218477E+02  0.28727083825E+02  0.60545464904E+02  0.00000000000E+00 0.  1.
         21    1    1    2  503  502 -0.56881010779E+02 -0.47971032656E+01 -0.37431085522E+03  0.37863845278E+03  0.00000000000E+00 0. -1.
          2    1    1    2  501    0  0.26505869548E+01  0.24787172446E+02  0.18317075343E+03  0.18485928281E+03  0.00000000000E+00 0. -1.
<scales pt_clust_5="13000.00000" pt_clust_6="13000.00000" pt_clust_7="13000.00000" pt_clust_8="13000.00000" pt_clust_9="56.95995" pt_clust_10="24.92849"></scales>
<clustering>
<clus scale="   24.928">  1 10  2 -1</clus>
<clus scale="   56.960">  2  9  1 -1</clus>
<clus scale="   91.195">  5  6 -1 -1</clus>
<clus scale="   92.883">  7  8 -1 -1</clus>
<clus scale="   93.435">  2  5  1 -1</clus>
<clus scale="   24.928">  1  5  2 -1</clus>
</clustering>
</event>
<event>
10    2  0.3984345E-006  0.2560685E+03  0.7546771E-02  0.1109642E+00
         21   -1    0    0  503  502  0.00000000000E+00  0.00000000000E+00  0.42484809371E+03  0.42484809371E+03  0.00000000000E+00 0. -1.
         -2   -1    0    0    0  501 -0.00000000000E+00 -0.00000000000E+00 -0.23962872699E+03  0.23962872699E+03  0.00000000000E+00 0.  1.
         23    2    1    2    0    0 -0.27249406232E+01  0.22815544598E+03 -0.21288639681E+02  0.24585704271E+03  0.89051369674E+02 0.  0.
         23    2    1    2    0    0  0.57274096749E+02 -0.24305906029E+03  0.10048261558E+03  0.28418953364E+03  0.91153201006E+02 0.  0.
        -13    1    3    3    0    0  0.25369562644E+02  0.10937910429E+03  0.25501028413E+02  0.11514211052E+03  0.00000000000E+00 0. -1.
         13    1    3    3    0    0 -0.28094503267E+02  0.11877634169E+03 -0.46789668094E+02  0.13071493219E+03  0.00000000000E+00 0.  1.
        -13    1    4    4    0    0  0.44366022356E+02 -0.54201792637E+02  0.56144402086E+02  0.89768436270E+02  0.00000000000E+00 0. -1.
         13    1    4    4    0    0  0.12908074393E+02 -0.18885726765E+03  0.44338213494E+02  0.19442109737E+03  0.00000000000E+00 0.  1.
         21    1    1    2  503  501 -0.14530052357E+02  0.19046996877E+02  0.33953428614E+01  0.24195843955E+02  0.00000000000E+00 0.  1.
         -2    1    1    2    0  502 -0.40019103769E+02 -0.41433825678E+01  0.10263004796E+03  0.11023440039E+03  0.00000000000E+00 0.  1.
<scales pt_clust_5="13000.00000" pt_clust_6="13000.00000" pt_clust_7="13000.00000" pt_clust_8="13000.00000" pt_clust_9="23.95643" pt_clust_10="40.44164"></scales>
<clustering>
<clus scale="   23.956">  2  9  1 -1</clus>
<clus scale="   40.442">  1 10  2 -1</clus>
<clus scale="   89.051">  5  6 -1 -1</clus>
<clus scale="   91.153">  7  8 -1 -1</clus>
<clus scale="  255.328">  2  5  1 -1</clus>
<clus scale="   40.442">  1  5  2 -1</clus>
</clustering>
</event>
<event>
10    2  0.3984345E-006  0.1813639E+03  0.7546771E-02  0.1166607E+00
         21   -1    0    0  501  502  0.00000000000E+00  0.00000000000E+00  0.70947091260E+02  0.70947091260E+02  0.00000000000E+00 0.  1.
          3   -1    0    0  503    0 -0.00000000000E+00 -0.00000000000E+00 -0.66024829840E+03  0.66024829840E+03  0.00000000000E+00 0. -1.
         23    2    1    2    0    0 -0.64759941905E+02 -0.12153718468E+03 -0.26317413438E+03  0.31110712928E+03  0.92530446571E+02 0.  0.
         23    2    1    2    0    0  0.10668588661E+03  0.14055836483E+03 -0.20795410851E+03  0.28769464292E+03  0.91568356975E+02 0.  0.
        -11    1    3    3    0    0  0.17265502809E+02 -0.57328763632E+02 -0.74392095806E+02  0.95492767502E+02  0.00000000000E+00 0.  1.
         11    1    3    3    0    0 -0.82025444714E+02 -0.64208421052E+02 -0.18878203858E+03  0.21561436178E+03  0.00000000000E+00 0. -1.
        -13    1    4    4    0    0  0.51524520463E+02  0.91741028248E+02 -0.56857602726E+02  0.11959924523E+03  0.00000000000E+00 0.  1.
         13    1    4    4    0    0  0.55161366142E+02  0.48817336578E+02 -0.15109650578E+03  0.16809539769E+03  0.00000000000E+00 0. -1.
         21    1    1    2  503  502 -0.23198457800E+02 -0.10178794396E+02 -0.10461902271E+03  0.10764253904E+03  0.00000000000E+00 0. -1.
          3    1    1    2  501    0 -0.18727486900E+02 -0.88423857460E+01 -0.13553941539E+02  0.24751078411E+02  0.00000000000E+00 0. -1.
<scales pt_clust_5="13000.00000" pt_clust_6="13000.00000" pt_clust_7="13000.00000" pt_clust_8="13000.00000" pt_clust_9="25.81223" pt_clust_10="20.71006"></scales>
<clustering>
<clus scale="   20.710">  1 10  2 -1</clus>
<clus scale="   25.812">  2  9  1 -1</clus>
<clus scale="   91.568">  7  8 -1 -1</clus>
<clus scale="   92.530">  5  6 -1 -1</clus>
<clus scale="  180.875">  1  7  2 -1</clus>
<clus scale="   20.710">  1  5  2 -1</clus>
</clustering>
</event>
<event>
10    2  0.3984345E-006  0.1000280E+03  0.7546771E-02  0.1281507E+00
          1   -1    0    0  503    0 -0.00000000000E+00  0.00000000000E+00  0.25226073628E+02  0.25226073628E+02  0.00000000000E+00 0. -1.
         21   -1    0    0  501  502  0.00000000000E+00 -0.00000000000E+00 -0.68934715015E+03  0.68934715015E+03  0.00000000000E+00 0. -1.
         23    2    1    2    0    0  0.86902322124E+01  0.33552474664E+02 -0.23515756029E+03  0.25576903173E+03  0.94432148850E+02 0.  0.
         23    2    1    2    0    0 -0.12205067747E+02 -0.24507569143E+02 -0.30956391566E+03  0.32407588361E+03  0.91900902253E+02 0.  0.
        -11    1    4    4    0    0  0.10074632631E+02  0.31966847587E+02 -0.14048326549E+03  0.14442619378E+03  0.00000000000E+00 0. -1.
         11    1    4    4    0    0 -0.22279700378E+02 -0.56474416730E+02 -0.16908065018E+03  0.17964968983E+03  0.00000000000E+00 0.  1.
        -13    1    3    3    0    0  0.43020292841E+02 -0.10498063596E+02 -0.91972237363E+02  0.10207765368E+03  0.00000000000E+00 0. -1.
         13    1    3    3    0    0 -0.34330060628E+02  0.44050538260E+02 -0.14318532293E+03  0.15369137804E+03  0.00000000000E+00 0.  1.
         21    1    1    2  503  502  0.28377491636E+02  0.97574120034E+01 -0.45283773842E+02  0.54324113375E+02  0.00000000000E+00 0. -1.
          1    1    1    2  501    0 -0.24862656101E+02 -0.18802317525E+02 -0.74115826733E+02  0.80404195071E+02  0.00000000000E+00 0. -1.
<scales pt_clust_5="13000.00000" pt_clust_6="13000.00000" pt_clust_7="13000.00000" pt_clust_8="13000.00000" pt_clust_9="30.00815" pt_clust_10="26.87851"></scales>
<clustering>
<clus scale="   30.008">  1  9  2 -1</clus>
<clus scale="   26.879">  2 10  1 -1</clus>
<clus scale="   91.901">  5  6 -1 -1</clus>
<clus scale="   94.432">  7  8 -1 -1</clus>
<clus scale="   97.642">  2  5  1 -1</clus>
<clus scale="   26.879">  2  5  1 -1</clus>
</clustering>
</event>
<event>
10    2  0.3984345E-006  0.1560378E+03  0.7546771E-02  0.1194160E+00
         21   -1    0    0  503  502  0.00000000000E+00  0.00000000000E+00  0.18945460897E+03  0.18945460897E+03  0.00000000000E+00 0. -1.
         -2   -1    0    0    0  501 -0.00000000000E+00 -0.00000000000E+00 -0.32692085181E+03  0.32692085181E+03  0.00000000000E+00 0. -1.
         23    2    1    2    0    0  0.97190127479E+02  0.78527113746E+02 -0.40937689648E+02  0.16289659292E+03  0.96161203600E+02 0.  0.
         23    2    1    2    0    0 -0.11828028571E+03 -0.41536860364E+02 -0.65645049073E+02  0.16826229478E+03  0.91035106533E+02 0.  0.
        -11    1    4    4    0    0 -0.64819766571E+02 -0.36184643965E+02  0.10600004038E+02  0.74988603686E+02  0.00000000000E+00 0.  1.
         11    1    4    4    0    0 -0.53460519140E+02 -0.53522163996E+01 -0.76245053112E+02  0.93273691098E+02  0.00000000000E+00 0. -1.
        -13    1    3    3    0    0  0.35505231568E+01  0.58925070338E+02 -0.31099048084E+02  0.66722716677E+02  0.00000000000E+00 0. -1.
         13    1    3    3    0    0  0.93639604322E+02  0.19602043408E+02 -0.98386415641E+01  0.96173876241E+02  0.00000000000E+00 0.  1.
         21    1    1    2  503  501 -0.29551741430E+02 -0.27149701491E+02 -0.94878858524E+02  0.10301654968E+03  0.00000000000E+00 0. -1.
         -2    1    1    2    0  502  0.50641899662E+02 -0.98405518904E+01  0.63995354401E+02  0.82200023406E+02  0.00000000000E+00 0. -1.
<scales pt_clust_5="13000.00000" pt_clust_6="13000.00000" pt_clust_7="13000.00000" pt_clust_8="13000.00000" pt_clust_9="40.12994" pt_clust_10="50.65406"></scales>
<clustering>
<clus scale="   40.130">  2  9  1 -1</clus>
<clus scale="   50.654">  1 10  2 -1</clus>
<clus scale="   91.035">  5  6 -1 -1</clus>
<clus scale="   96.161">  7  8 -1 -1</clus>
<clus scale="  152.932">  1  5  2 -1</clus>
<clus scale="   50.654">  1  5  2 -1</clus>
</clustering>
</event>
<event>
10    2  0.3984345E-006  0.2001645E+03  0.7546771E-02  0.1150373E+00
         21   -1    0    0  503  502  0.00000000000E+00  0.00000000000E+00  0.12414226469E+04  0.12414226469E+04  0.00000000000E+00 0.  1.
         -1   -1    0    0    0  501 -0.00000000000E+00 -0.00000000000E+00 -0.77648344875E+02  0.77648344875E+02  0.00000000000E+00 0.  1.
         23    2    1    2    0    0 -0.18123092111E+03 -0.49108887086E+02  0.20129893720E+03  0.29235707481E+03  0.98463533921E+02 0.  0.
         23    2    1    2    0    0  0.10038490045E+03  0.14133157429E+03  0.39927749770E+03  0.44466663998E+03  0.90852399064E+02 0.  0.
        -13    1    3    3    0    0 -0.94100911903E+02 -0.74321252352E+02  0.97799561526E+02  0.15473649992E+03  0.00000000000E+00 0.  1.
         13    1    3    3    0    0 -0.87130009205E+02  0.25212365266E+02  0.10349937568E+03  0.13762057489E+03  0.00000000000E+00 0. -1.
        -13    1    4    4    0    0  0.81524842153E+02  0.37308802529E+02  0.17015193118E+03  0.19232765355E+03  0.00000000000E+00 0.  1.
         13    1    4    4    0    0  0.18860058297E+02  0.10402277176E+03  0.22912556651E+03  0.25233898643E+03  0.00000000000E+00 0. -1.
         21    1    1    2  503  501  0.10089017198E+02 -0.35731866623E+02  0.58468400730E+02  0.69261161154E+02  0.00000000000E+00 0.  1.
         -1    1    1    2    0  502  0.70757003460E+02 -0.56490820576E+02  0.50472946637E+03  0.51278611581E+03  0.00000000000E+00 0.  1.
<scales pt_clust_5="13000.00000" pt_clust_6="13000.00000" pt_clust_7="13000.00000" pt_clust_8="13000.00000" pt_clust_9="37.12889" pt_clust_10="92.23196"></scales>
<clustering>
<clus scale="   37.129">  2  9  1 -1</clus>
<clus scale="   90.852">  7  8 -1 -1</clus>
<clus scale="   92.232">  1 10  2 -1</clus>
<clus scale="   98.464">  5  6 -1 -1</clus>
<clus scale="  196.532">  1  7  2 -1</clus>
<clus scale="   92.232">  1  5  2 -1</clus>
</clustering>
</event>
<event>
10    2  0.3984345E-006  0.1040041E+03  0.7546771E-02  0.1274595E+00
          2   -1    0    0  503    0 -0.00000000000E+00  0.00000000000E+00  0.27064606945E+03  0.27064606945E+03  0.00000000000E+00 0. -1.
         21   -1    0    0  501  502  0.00000000000E+00 -0.00000000000E+00 -0.22868393833E+03  0.22868393833E+03  0.00000000000E+00 0. -1.
         23    2    1    2    0    0 -0.24243158776E+02  0.39828621405E+02  0.14213902503E+03  0.17468581201E+03  0.90208539796E+02 0.  0.
         23    2    1    2    0    0  0.94534602918E+01 -0.45225717818E+02  0.68060694171E+02  0.12608238554E+03  0.95549863357E+02 0.  0.
        -11    1    3    3    0    0  0.30701840913E+02  0.32989585142E+02  0.76758701671E+02  0.89010190683E+02  0.00000000000E+00 0.  1.
         11    1    3    3    0    0 -0.54944999689E+02  0.68390362628E+01  0.65380323358E+02  0.85675621330E+02  0.00000000000E+00 0. -1.
        -11    1    4    4    0    0  0.99449522320E+01  0.28463512232E+02  0.32256781744E+02  0.44153975721E+02  0.00000000000E+00 0.  1.
         11    1    4    4    0    0 -0.49149194021E+00 -0.73689230050E+02  0.35803912426E+02  0.81928409814E+02  0.00000000000E+00 0. -1.
         21    1    1    2  503  502  0.67100613828E+00 -0.21255901473E+02  0.57091567569E+01  0.22019492899E+02  0.00000000000E+00 0. -1.
          2    1    1    2  501    0  0.14118692346E+02  0.26652997886E+02 -0.17394674483E+03  0.17654231733E+03  0.00000000000E+00 0. -1.
<scales pt_clust_5="13000.00000" pt_clust_6="13000.00000" pt_clust_7="13000.00000" pt_clust_8="13000.00000" pt_clust_9="21.26649" pt_clust_10="30.06826"></scales>
<clustering>
<clus scale="   21.266">  1  9  2 -1</clus>
<clus scale="   30.068">  2 10  1 -1</clus>
<clus scale="   90.209">  5  6 -1 -1</clus>
<clus scale="   95.550">  7  8 -1 -1</clus>
<clus scale="   99.119">  1  5  2 -1</clus>
<clus scale="   30.068">  2  5  1 -1</clus>
</clustering>
</event>
<event>
10    2  0.3984345E-006  0.1048439E+03  0.7546771E-02  0.1270526E+00
         -2   -1    0    0    0  501 -0.00000000000E+00  0.00000000000E+00  0.36417008349E+02  0.36417008349E+02  0.00000000000E+00 0.  1.
         21   -1    0    0  503  502  0.00000000000E+00 -0.00000000000E+00 -0.80681044965E+03  0.80681044965E+03  0.00000000000E+00 0. -1.
         23    2    1    2    0    0 -0.40862571152E+02 -0.77611116023E+01 -0.18531939062E+03  0.21060725759E+03  0.91006350531E+02 0.  0.
         23    2    1    2    0    0  0.74317751752E+02 -0.12692769914E+02 -0.41173780033E+03  0.42841131670E+03  0.91235987553E+02 0.  0.
        -11    1    3    3    0    0 -0.11830368530E+02 -0.48008036222E+02 -0.10727763233E+03  0.11812374680E+03  0.00000000000E+00 0.  1.
         11    1    3    3    0    0 -0.29032202622E+02  0.40246924620E+02 -0.78041758292E+02  0.92483510789E+02  0.00000000000E+00 0. -1.
        -13    1    4    4    0    0 -0.18547568630E+02 -0.12032926536E+02 -0.12704766530E+03  0.12895701951E+03  0.00000000000E+00 0.  1.
         13    1    4    4    0    0  0.92865320382E+02 -0.65984337779E+00 -0.28469013503E+03  0.29945429719E+03  0.00000000000E+00 0. -1.
         21    1    1    2  503  501  0.27804552830E+01  0.29804191352E+02 -0.33135223163E+01  0.30116443745E+02  0.00000000000E+00 0. -1.
         -2    1    1    2    0  502 -0.36235635883E+02 -0.93503098353E+01 -0.17002272804E+03  0.17409243996E+03  0.00000000000E+00 0.  1.
<scales pt_clust_5="13000.00000" pt_clust_6="13000.00000" pt_clust_7="13000.00000" pt_clust_8="13000.00000" pt_clust_9="29.93361" pt_clust_10="36.61094"></scales>
<clustering>
<clus scale="   29.934">  1  9  2 -1</clus>
<clus scale="   36.611">  2 10  1 -1</clus>
<clus scale="   91.006">  5  6 -1 -1</clus>
<clus scale="   91.236">  7  8 -1 -1</clus>
<clus scale="  104.644">  1  5  2 -1</clus>
<clus scale="   36.611">  2  5  1 -1</clus>
</clustering>
</event>
<event>
10    2  0.3984345E-006  0.1776249E+03  0.7546771E-02  0.1195136E+00
         21   -1    0    0  501  502  0.00000000000E+00  0.00000000000E+00  0.22574653673E+03  0.22574653673E+03  0.00000000000E+00 0. -1.
          1   -1    0    0  503    0 -0.00000000000E+00 -0.00000000000E+00 -0.84003369839E+03  0.84003369839E+03  0.00000000000E+00 0. -1.
         23    2    1    2    0    0  0.69088541892E+02  0.26535727855E+02 -0.54843876064E+03  0.56073374516E+03  0.90332094587E+02 0.  0.
         23    2    1    2    0    0  0.51192684476E+02 -0.15795327504E+03 -0.38181395802E+02  0.19239269838E+03  0.89371155103E+02 0.  0.
        -11    1    3    3    0    0  0.53926770367E+02 -0.27130718577E+02 -0.31435623486E+03  0.32010000757E+03  0.00000000000E+00 0. -1.
         11    1    3    3    0    0  0.15161771525E+02  0.53666446433E+02 -0.23408252578E+03  0.24063373759E+03  0.00000000000E+00 0.  1.
        -13    1    4    4    0    0 -0.15891742866E+02 -0.18477143880E+02  0.15144194429E+02  0.28693186686E+02  0.00000000000E+00 0.  1.
         13    1    4    4    0    0  0.67084427342E+02 -0.13947613116E+03 -0.53325590231E+02  0.16369951170E+03  0.00000000000E+00 0. -1.
         21    1    1    2  503  502 -0.42268033347E+02  0.30353045515E+01 -0.12611405767E+03  0.13304343373E+03  0.00000000000E+00 0. -1.
          1    1    1    2  501    0 -0.78013193021E+02  0.12838224264E+03  0.98447052457E+02  0.17961035785E+03  0.00000000000E+00 0. -1.
<scales pt_clust_5="13000.00000" pt_clust_6="13000.00000" pt_clust_7="13000.00000" pt_clust_8="13000.00000" pt_clust_9="42.37688" pt_clust_10="153.50380"></scales>
<clustering>
<clus scale="   42.377">  2  9  1 -1</clus>
<clus scale="   89.371">  7  8 -1 -1</clus>
<clus scale="   90.332">  5  6 -1 -1</clus>
<clus scale="  101.480">  2  5  1 -1</clus>
<clus scale="  153.504">  1 10  2 -1</clus>
<clus scale="  153.504">  1  5  2 -1</clus>
</clustering>
</event>
<event>
10    2  0.3984345E-006  0.1705157E+03  0.7546771E-02  0.1177481E+00
         21   -1    0    0  501  502  0.00000000000E+00  0.00000000000E+00  0.30178273260E+03  0.30178273260E+03  0.00000000000E+00 0.  1.
          1   -1    0    0  503    0 -0.00000000000E+00 -0.00000000000E+00 -0.38086494251E+03  0.38086494251E+03  0.00000000000E+00 0. -1.
         23    2    1    2    0    0  0.17981019999E+03 -0.87161448951E+02 -0.14686223655E+03  0.26402289381E+03  0.90613165285E+02 0.  0.
         23    2    1    2    0    0 -0.15363674797E+03  0.12747641098E+02  0.91570848194E+02  0.20145712018E+03  0.91831358219E+02 0.  0.
        -13    1    3    3    0    0  0.33339786853E+02  0.40197924089E+01 -0.64764867331E+02  0.72953328634E+02  0.00000000000E+00 0.  1.
         13    1    3    3    0    0  0.14647041314E+03 -0.91181241360E+02 -0.82097369222E+02  0.19106956517E+03  0.00000000000E+00 0. -1.
        -13    1    4    4    0    0 -0.12304272318E+03  0.81762344632E+01  0.11017248168E+03  0.16536123566E+03  0.00000000000E+00 0.  1.
         13    1    4    4    0    0 -0.30594024790E+02  0.45714066348E+01 -0.18601633486E+02  0.36095884527E+02  0.00000000000E+00 0. -1.
         21    1    1    2  503  502 -0.65852508462E+02  0.53785286708E+02 -0.98484254552E+02  0.13010979337E+03  0.00000000000E+00 0. -1.
          1    1    1    2  501    0  0.39679056442E+02  0.20628521145E+02  0.74693432996E+02  0.87057867751E+02  0.00000000000E+00 0. -1.
<scales pt_clust_5="13000.00000" pt_clust_6="13000.00000" pt_clust_7="13000.00000" pt_clust_8="13000.00000" pt_clust_9="83.81181" pt_clust_10="44.72095"></scales>
<clustering>
<clus scale="   44.721">  1 10  2 -1</clus>
<clus scale="   83.812">  2  9  1 -1</clus>
<clus scale="   90.613">  5  6 -1 -1</clus>
<clus scale="   91.831">  7  8 -1 -1</clus>
<clus scale="  169.863">  2  5  1 -1</clus>
<clus scale="   44.721">  1  5  2 -1</clus>
</clustering>
</event>
<event>
10    2  0.3984345E-006  0.1510748E+03  0.7546771E-02  0.1219737E+00
         -1   -1    0    0    0  501 -0.00000000000E+00  0.00000000000E+00  0.19865207419E+03  0.19865207419E+03  0.00000000000E+00 0.  1.
         21   -1    0    0  503  502  0.00000000000E+00 -0.00000000000E+00 -0.81961912435E+03  0.81961912435E+03  0.00000000000E+00 0. -1.
         23    2    1    2    0    0  0.20005793908E+02 -0.26229030840E+01 -0.70215656309E+02  0.11888049005E+03  0.93782840185E+02 0.  0.
         23    2    1    2    0    0 -0.85024561728E+02 -0.67687301232E+02  0.68911547282E+02  0.15844972549E+03  0.92448728026E+02 0.  0.
        -11    1    3    3    0    0  0.33148979717E+02 -0.26260839727E+02  0.14146995561E+01  0.42314157610E+02  0.00000000000E+00 0.  1.
         11    1    3    3    0    0 -0.13143185809E+02  0.23637936643E+02 -0.71630355865E+02  0.76566332440E+02  0.00000000000E+00 0. -1.
        -13    1    4    4    0    0 -0.35991014491E+02 -0.65324885258E+02  0.92091748769E+00  0.74589153682E+02  0.00000000000E+00 0.  1.
         13    1    4    4    0    0 -0.49033547236E+02 -0.23624159742E+01  0.67990629795E+02  0.83860571806E+02  0.00000000000E+00 0. -1.
         21    1    1    2  503  501  0.23520375295E+02 -0.43068806370E+02  0.44287569951E+02  0.66102337238E+02  0.00000000000E+00 0.  1.
         -1    1    1    2    0  502  0.41498392525E+02  0.11337901069E+03 -0.66395051109E+03  0.67483864576E+03  0.00000000000E+00 0.  1.
<scales pt_clust_5="13000.00000" pt_clust_6="13000.00000" pt_clust_7="13000.00000" pt_clust_8="13000.00000" pt_clust_9="49.07270" pt_clust_10="119.48568"></scales>
<clustering>
<clus scale="   49.073">  1  9  2 -1</clus>
<clus scale="   92.449">  7  8 -1 -1</clus>
<clus scale="   93.783">  5  6 -1 -1</clus>
<clus scale="   97.312">  1  5  2 -1</clus>
<clus scale="  119.486">  2 10  1 -1</clus>
<clus scale="  119.486">  2  5  1 -1</clus>
</clustering>
</event>
<event>
10    2  0.3984345E-006  0.1332171E+03  0.7546771E-02  0.1223046E+00
         21   -1    0    0  501  502  0.00000000000E+00  0.00000000000E+00  0.30093345028E+03  0.30093345028E+03  0.00000000000E+00 0.  1.
          1   -1    0    0  503    0 -0.00000000000E+00 -0.00000000000E+00 -0.21369360537E+03  0.21369360537E+03  0.00000000000E+00 0. -1.
         23    2    1    2    0    0  0.76074286083E+02  0.10405155093E+03 -0.11431081807E+03  0.19380247067E+03  0.88760420545E+02 0.  0.
         23    2    1    2    0    0 -0.17407972758E+02 -0.68807564426E+02  0.81547664752E+02  0.13911924141E+03  0.87559255739E+02 0.  0.
        -11    1    4    4    0    0 -0.38008464384E+02 -0.62371006645E+02  0.22773483235E+02  0.76507629511E+02  0.00000000000E+00 0.  1.
         11    1    4    4    0    0  0.20600491626E+02 -0.64365577809E+01  0.58774181517E+02  0.62611611896E+02  0.00000000000E+00 0. -1.
        -13    1    3    3    0    0  0.55827516927E+02  0.18690004730E+02 -0.13950779317E+02  0.60503323599E+02  0.00000000000E+00 0.  1.
         13    1    3    3    0    0  0.20246769156E+02  0.85361546196E+02 -0.10036003875E+03  0.13329914707E+03  0.00000000000E+00 0. -1.
         21    1    1    2  503  502 -0.13650591606E+02 -0.20593089371E+02 -0.21339079468E+02  0.32646137499E+02  0.00000000000E+00 0.  1.
          1    1    1    2  501    0 -0.45015721718E+02 -0.14650897129E+02  0.14134207769E+03  0.14905920607E+03  0.00000000000E+00 0. -1.
<scales pt_clust_5="13000.00000" pt_clust_6="13000.00000" pt_clust_7="13000.00000" pt_clust_8="13000.00000" pt_clust_9="24.70656" pt_clust_10="47.74092"></scales>
<clustering>
<clus scale="   24.707">  2  9  1 -1</clus>
<clus scale="   47.741">  1 10  2 -1</clus>
<clus scale="   87.559">  5  6 -1 -1</clus>
<clus scale="   88.760">  7  8 -1 -1</clus>
<clus scale="  132.420">  1  5  2 -1</clus>
<clus scale="   47.741">  1  5  2 -1</clus>
</clustering>
</event>
<event>
10    2  0.3984345E-006  0.1024352E+03  0.7546771E-02  0.1275832E+00
         -1   -1    0    0    0  501 -0.00000000000E+00  0.00000000000E+00  0.20841925444E+03  0.20841925444E+03  0.00000000000E+00 0.  1.
         21   -1    0    0  503  502  0.00000000000E+00 -0.00000000000E+00 -0.13148838778E+03  0.13148838778E+03  0.00000000000E+00 0. -1.
         23    2    1    2    0    0 -0.68005681903E+02 -0.77918363250E+01  0.73201015864E+02  0.13669821074E+03  0.92965190319E+02 0.  0.
         23    2    1    2    0    0 -0.40616218935E+01  0.12169146246E+02  0.13254937455E+00  0.95057998321E+02  0.94188218917E+02 0.  0.
        -13    1    3    3    0    0  0.11351221634E+02  0.26348297681E+02  0.23092768701E+02  0.36828779365E+02  0.00000000000E+00 0.  1.
         13    1    3    3    0    0 -0.79356903537E+02 -0.34140134006E+02  0.50108247164E+02  0.99869431373E+02  0.00000000000E+00 0. -1.
        -13    1    4    4    0    0 -0.39414427466E+02  0.15110763488E+02  0.27390944603E+02  0.50319937519E+02  0.00000000000E+00 0.  1.
         13    1    4    4    0    0  0.35352805573E+02 -0.29416172421E+01 -0.27258395229E+02  0.44738060802E+02  0.00000000000E+00 0. -1.
         21    1    1    2  503  501 -0.71077664683E+01 -0.25012470689E+02  0.41364555708E+01  0.26329722726E+02  0.00000000000E+00 0. -1.
         -1    1    1    2    0  502  0.79175070265E+02  0.20635160767E+02 -0.53915415385E+00  0.81821710435E+02  0.00000000000E+00 0.  1.
<scales pt_clust_5="13000.00000" pt_clust_6="13000.00000" pt_clust_7="13000.00000" pt_clust_8="13000.00000" pt_clust_9="26.00277" pt_clust_10="77.68868"></scales>
<clustering>
<clus scale="   26.003">  2  9  1 -1</clus>
<clus scale="   77.689">  2 10  1 -1</clus>
<clus scale="   92.965">  5  6 -1 -1</clus>
<clus scale="   94.188">  7  8 -1 -1</clus>
<clus scale="  101.312">  1  5  2 -1</clus>
<clus scale="   26.003">  2  5  1 -1</clus>
</clustering>
</event>
<event>
10    2  0.3984345E-006  0.9898668E+02  0.7546771E-02  0.1286517E+00
         21   -1    0    0  503  502  0.00000000000E+00  0.00000000000E+00  0.18049543848E+03  0.18049543848E+03  0.00000000000E+00 0.  1.
         -1   -1    0    0    0  501 -0.00000000000E+00 -0.00000000000E+00 -0.22670519365E+03  0.22670519365E+03  0.00000000000E+00 0.  1.
         23    2    1    2    0    0  0.17897681627E+02 -0.20786496106E+02 -0.11653581456E+03  0.14575311288E+03  0.83132234485E+02 0.  0.
         23    2    1    2    0    0 -0.76021416023E+01  0.22577638822E+02  0.11053250253E+03  0.14523996810E+03  0.91157401706E+02 0.  0.
        -11    1    4    4    0    0 -0.35164452943E+02  0.41320989717E+02  0.92767200889E+02  0.10746960734E+03  0.00000000000E+00 0.  1.
         11    1    4    4    0    0  0.27562311340E+02 -0.18743350895E+02  0.17765301646E+02  0.37770360758E+02  0.00000000000E+00 0. -1.
        -13    1    3    3    0    0  0.18495760020E+02  0.30529876489E+02 -0.55774781034E+02  0.66219277378E+02  0.00000000000E+00 0. -1.
         13    1    3    3    0    0 -0.59807839309E+00 -0.51316372595E+02 -0.60761033523E+02  0.79533835497E+02  0.00000000000E+00 0.  1.
         21    1    1    2  503  501 -0.27937811632E+02 -0.24691265461E+02 -0.67074966916E+02  0.76741325865E+02  0.00000000000E+00 0.  1.
         -1    1    1    2    0  502  0.17642271606E+02  0.22900122745E+02  0.26868523766E+02  0.39466225289E+02  0.00000000000E+00 0.  1.
<scales pt_clust_5="13000.00000" pt_clust_6="13000.00000" pt_clust_7="13000.00000" pt_clust_8="13000.00000" pt_clust_9="36.35439" pt_clust_10="28.90788"></scales>
<clustering>
<clus scale="   28.908">  1 10  2 -1</clus>
<clus scale="   36.354">  2  9  1 -1</clus>
<clus scale="   83.132">  7  8 -1 -1</clus>
<clus scale="   91.157">  5  6 -1 -1</clus>
<clus scale="   91.650">  2  7  1 -1</clus>
<clus scale="   28.908">  1  5  2 -1</clus>
</clustering>
</event>
<event>
10    2  0.3984345E-006  0.9579325E+02  0.7546771E-02  0.1305019E+00
         21   -1    0    0  501  502  0.00000000000E+00  0.00000000000E+00  0.31282271915E+03  0.31282271915E+03  0.00000000000E+00 0. -1.
          2   -1    0    0  503    0 -0.00000000000E+00 -0.00000000000E+00 -0.10231645436E+03  0.10231645436E+03  0.00000000000E+00 0. -1.
         23    2    1    2    0    0 -0.24256215054E+01 -0.26278901062E+02  0.45709918358E+00  0.95706083648E+02  0.91994463023E+02 0.  0.
         23    2    1    2    0    0  0.26125232803E+02 -0.50884989297E+02  0.47518587894E+02  0.99809947452E+02  0.66574766167E+02 0.  0.
        -13    1    4    4    0    0 -0.16004245063E+02 -0.41188794647E+02  0.19547984732E+02  0.48319523710E+02  0.00000000000E+00 0. -1.
         13    1    4    4    0    0  0.42129477865E+02 -0.96961946502E+01  0.27970603161E+02  0.51490423742E+02  0.00000000000E+00 0.  1.
        -13    1    3    3    0    0  0.44477945424E+02 -0.12656429096E+02 -0.52120651035E+01  0.46536420675E+02  0.00000000000E+00 0.  1.
         13    1    3    3    0    0 -0.46903566929E+02 -0.13622471967E+02  0.56691642871E+01  0.49169662973E+02  0.00000000000E+00 0. -1.
         21    1    1    2  503  502 -0.29655289497E+02  0.46554656482E+02  0.11002000873E+01  0.55208538068E+02  0.00000000000E+00 0.  1.
          2    1    1    2  501    0  0.59556782002E+01  0.30609233877E+02  0.16143037762E+03  0.16441460434E+03  0.00000000000E+00 0. -1.
<scales pt_clust_5="13000.00000" pt_clust_6="13000.00000" pt_clust_7="13000.00000" pt_clust_8="13000.00000" pt_clust_9="59.58205" pt_clust_10="31.18325"></scales>
<clustering>
<clus scale="   31.183">  1 10  2 -1</clus>
<clus scale="   59.582">  2  9  1 -1</clus>
<clus scale="   66.575">  5  6 -1 -1</clus>
<clus scale="   71.733">  1  5  2 -1</clus>
<clus scale="   91.994">  7  8 -1 -1</clus>
<clus scale="   31.183">  1  5  2 -1</clus>
</clustering>
</event>
<event>
10    2  0.3984345E-006  0.9565685E+02  0.7546771E-02  0.1292952E+00
         -1   -1    0    0    0  501 -0.00000000000E+00  0.00000000000E+00  0.51890617953E+03  0.51890617953E+03  0.00000000000E+00 0.  1.
         21   -1    0    0  503  502  0.00000000000E+00 -0.00000000000E+00 -0.98962940410E+02  0.98962940410E+02  0.00000000000E+00 0.  1.
         23    2    1    2    0    0 -0.23055047214E+02  0.11573690252E+01  0.38207767278E+03  0.39362733762E+03  0.91794652257E+02 0.  0.
         23    2    1    2    0    0 -0.82977139098E+01 -0.17401094505E+02 -0.29588248390E+02  0.92881768841E+02  0.85906393209E+02 0.  0.
        -11    1    3    3    0    0 -0.26111467464E+02  0.44241563827E+02  0.19908906846E+03  0.20561026696E+03  0.00000000000E+00 0.  1.
         11    1    3    3    0    0  0.30564202504E+01 -0.43084194802E+02  0.18298860432E+03  0.18801707066E+03  0.00000000000E+00 0. -1.
        -13    1    4    4    0    0 -0.46501760095E+02 -0.36979897611E+01 -0.22062359124E+02  0.51602679294E+02  0.00000000000E+00 0.  1.
         13    1    4    4    0    0  0.38204046186E+02 -0.13703104744E+02 -0.75258892663E+01  0.41279089547E+02  0.00000000000E+00 0. -1.
         21    1    1    2  503  501  0.73261348389E+01  0.25312016241E+02  0.92082039927E+02  0.95778246460E+02  0.00000000000E+00 0. -1.
         -1    1    1    2    0  502  0.24026626285E+02 -0.90682907613E+01 -0.24628225194E+02  0.35581767019E+02  0.00000000000E+00 0.  1.
<scales pt_clust_5="13000.00000" pt_clust_6="13000.00000" pt_clust_7="13000.00000" pt_clust_8="13000.00000" pt_clust_9="26.30538" pt_clust_10="25.68098"></scales>
<clustering>
<clus scale="   25.681">  2 10  1 -1</clus>
<clus scale="   26.305">  1  9  2 -1</clus>
<clus scale="   85.906">  7  8 -1 -1</clus>
<clus scale="   90.022">  2  7  1 -1</clus>
<clus scale="   91.795">  5  6 -1 -1</clus>
<clus scale="   25.681">  2  5  1 -1</clus>
</clustering>
</event>
<event>
10    2  0.3984345E-006  0.1031214E+03  0.7546771E-02  0.1274139E+00
         -1   -1    0    0    0  501 -0.00000000000E+00  0.00000000000E+00  0.19107222395E+03  0.19107222395E+03  0.00000000000E+00 0.  1.
         21   -1    0    0  503  502  0.00000000000E+00 -0.00000000000E+00 -0.17172777963E+03  0.17172777963E+03  0.00000000000E+00 0. -1.
         23    2    1    2    0    0  0.61429883853E+02  0.32911145739E+02  0.66655170913E+02  0.13137549642E+03  0.89217907994E+02 0.  0.
         23    2    1    2    0    0 -0.41751017974E+02 -0.48995937724E+01 -0.67231817467E+02  0.11982526049E+03  0.89837755153E+02 0.  0.
        -13    1    4    4    0    0 -0.60997450793E+02  0.17738704613E+02 -0.63599406629E+02  0.89890128313E+02  0.00000000000E+00 0. -1.
         13    1    4    4    0    0  0.19246432819E+02 -0.22638298386E+02 -0.36324108380E+01  0.29935132179E+02  0.00000000000E+00 0.  1.
        -13    1    3    3    0    0  0.40979057761E+02  0.29922693026E+02  0.88052554951E+02  0.10162629171E+03  0.00000000000E+00 0.  1.
         13    1    3    3    0    0  0.20450826092E+02  0.29884527132E+01 -0.21397384039E+02  0.29749204715E+02  0.00000000000E+00 0. -1.
         21    1    1    2  503  501 -0.24858888716E+02 -0.77144974981E+00  0.58801090547E+02  0.63844559145E+02  0.00000000000E+00 0.  1.
         -1    1    1    2    0  502  0.51800228365E+01 -0.27240102217E+02 -0.38879999674E+02  0.47754687519E+02  0.00000000000E+00 0.  1.
<scales pt_clust_5="13000.00000" pt_clust_6="13000.00000" pt_clust_7="13000.00000" pt_clust_8="13000.00000" pt_clust_9="24.87086" pt_clust_10="27.60813"></scales>
<clustering>
<clus scale="   24.871">  1  9  2 -1</clus>
<clus scale="   27.608">  2 10  1 -1</clus>
<clus scale="   89.218">  7  8 -1 -1</clus>
<clus scale="   89.838">  5  6 -1 -1</clus>
<clus scale="  102.582">  1  7  2 -1</clus>
<clus scale="   27.608">  2  5  1 -1</clus>
</clustering>
</event>
<event>
10    2  0.3984345E-006  0.9274140E+02  0.7546771E-02  0.1296850E+00
         21   -1    0    0  501  502  0.00000000000E+00  0.00000000000E+00  0.29974306303E+02  0.29974306303E+02  0.00000000000E+00 0.  1.
          2   -1    0    0  503    0 -0.00000000000E+00 -0.00000000000E+00 -0.76949020500E+03  0.76949020500E+03  0.00000000000E+00 0. -1.
         23    2    1    2    0    0  0.16096215270E+02 -0.16770788348E+02 -0.46297213744E+03  0.47251648196E+03  0.91587543862E+02 0.  0.
         23    2    1    2    0    0  0.15798409014E+02  0.13855688457E+02 -0.95020607130E+02  0.13423167456E+03  0.92453538847E+02 0.  0.
        -11    1    4    4    0    0  0.39731177880E+02  0.10708401470E+02 -0.55014267977E+01  0.41515082255E+02  0.00000000000E+00 0.  1.
         11    1    4    4    0    0 -0.23932768866E+02  0.31472869867E+01 -0.89519180332E+02  0.92716592303E+02  0.00000000000E+00 0. -1.
        -13    1    3    3    0    0 -0.10401674836E+02  0.34418902621E+02 -0.14731125586E+03  0.15163595154E+03  0.00000000000E+00 0.  1.
         13    1    3    3    0    0  0.26497890106E+02 -0.51189690969E+02 -0.31566088158E+03  0.32088053042E+03  0.00000000000E+00 0. -1.
         21    1    1    2  503  502 -0.78395395105E+01  0.19842289470E+02 -0.14121317924E+03  0.14281574431E+03  0.00000000000E+00 0.  1.
          2    1    1    2  501    0 -0.24055084773E+02 -0.16927189578E+02 -0.40309974888E+02  0.49900610476E+02  0.00000000000E+00 0. -1.
<scales pt_clust_5="13000.00000" pt_clust_6="13000.00000" pt_clust_7="13000.00000" pt_clust_8="13000.00000" pt_clust_9="21.33483" pt_clust_10="29.09214"></scales>
<clustering>
<clus scale="   21.335">  2  9  1 -1</clus>
<clus scale="   29.092">  1 10  2 -1</clus>
<clus scale="   91.588">  7  8 -1 -1</clus>
<clus scale="   91.878">  2  7  1 -1</clus>
<clus scale="   92.454">  5  6 -1 -1</clus>
<clus scale="   29.092">  1  5  2 -1</clus>
</clustering>
</event>
<event>
10    2  0.3984345E-006  0.1377945E+03  0.7546771E-02  0.1216762E+00
          2   -1    0    0  503    0 -0.00000000000E+00  0.00000000000E+00  0.12558541132E+03  0.12558541132E+03  0.00000000000E+00 0. -1.
         21   -1    0    0  501  502  0.00000000000E+00 -0.00000000000E+00 -0.58418525158E+03  0.58418525158E+03  0.00000000000E+00 0. -1.
         23    2    1    2    0    0 -0.12502451087E+03 -0.18442207105E+02 -0.49158623700E+02  0.16376090731E+03  0.91814057511E+02 0.  0.
         23    2    1    2    0    0  0.76758101719E+02  0.18842406951E+02 -0.82237330600E+02  0.14523915550E+03  0.89914355180E+02 0.  0.
        -13    1    3    3    0    0 -0.13009806863E+03  0.69742651737E+01 -0.40484068755E+02  0.13642986351E+03  0.00000000000E+00 0.  1.
         13    1    3    3    0    0  0.50735577567E+01 -0.25416472278E+02 -0.86745549450E+01  0.27331043794E+02  0.00000000000E+00 0. -1.
        -13    1    4    4    0    0  0.26950627849E+02  0.37207846529E+02 -0.79821069905E+02  0.92098661150E+02  0.00000000000E+00 0.  1.
         13    1    4    4    0    0  0.49807473870E+02 -0.18365439578E+02 -0.24162606950E+01  0.53140494352E+02  0.00000000000E+00 0. -1.
         21    1    1    2  503  502  0.64035701413E+01  0.19746362557E+02  0.32235481273E+02  0.38341241473E+02  0.00000000000E+00 0.  1.
          2    1    1    2  501    0  0.41862839009E+02 -0.20146562404E+02 -0.35943936724E+03  0.36242935861E+03  0.00000000000E+00 0. -1.
<scales pt_clust_5="13000.00000" pt_clust_6="13000.00000" pt_clust_7="13000.00000" pt_clust_8="13000.00000" pt_clust_9="20.75872" pt_clust_10="46.41339"></scales>
<clustering>
<clus scale="   20.759">  1  9  2 -1</clus>
<clus scale="   46.413">  2 10  1 -1</clus>
<clus scale="   89.914">  7  8 -1 -1</clus>
<clus scale="   91.814">  5  6 -1 -1</clus>
<clus scale="  136.536">  2  7  1 -1</clus>
<clus scale="   46.413">  2  5  1 -1</clus>
</clustering>
</event>
<event>
10    2  0.3984345E-006  0.1090083E+03  0.7546771E-02  0.1269937E+00
          4   -1    0    0  503    0 -0.00000000000E+00  0.00000000000E+00  0.23194440375E+03  0.23194440375E+03  0.00000000000E+00 0. -1.
         21   -1    0    0  501  502  0.00000000000E+00 -0.00000000000E+00 -0.17570285909E+03  0.17570285909E+03  0.00000000000E+00 0. -1.
         23    2    1    2    0    0 -0.50620391252E+02 -0.29647539970E+02  0.91092607133E+02  0.15231063890E+03  0.10704796593E+03 0.  0.
         23    2    1    2    0    0 -0.57426856804E+02  0.11379293506E+02  0.13070552593E+02  0.10973913672E+03  0.91893996434E+02 0.  0.
        -13    1    3    3    0    0 -0.42947691485E+02 -0.56414072748E+02  0.10043555704E+03  0.12294044463E+03  0.00000000000E+00 0.  1.
         13    1    3    3    0    0 -0.76726997661E+01  0.26766532778E+02 -0.93429499018E+01  0.29370194272E+02  0.00000000000E+00 0. -1.
        -13    1    4    4    0    0 -0.18467251402E+01 -0.21346953849E+02 -0.26492509005E+02  0.34072802435E+02  0.00000000000E+00 0.  1.
         13    1    4    4    0    0 -0.55580131664E+02  0.32726247355E+02  0.39563061598E+02  0.75666334289E+02  0.00000000000E+00 0. -1.
         21    1    1    2  503  502  0.35949592244E+02  0.71139764325E+01  0.23473773210E+02  0.43520108822E+02  0.00000000000E+00 0.  1.
          4    1    1    2  501    0  0.72097655812E+02  0.11154270031E+02 -0.71395388275E+02  0.10207737840E+03  0.00000000000E+00 0. -1.
<scales pt_clust_5="13000.00000" pt_clust_6="13000.00000" pt_clust_7="13000.00000" pt_clust_8="13000.00000" pt_clust_9="36.64672" pt_clust_10="75.78598"></scales>
<clustering>
<clus scale="   36.647">  1  9  2 -1</clus>
<clus scale="   75.786">  2 10  1 -1</clus>
<clus scale="   91.894">  7  8 -1 -1</clus>
<clus scale="   94.170">  2  7  1 -1</clus>
<clus scale="  107.048">  5  6 -1 -1</clus>
<clus scale="   75.786">  2  5  1 -1</clus>
</clustering>
</event>
<event>
10    2  0.3984345E-006  0.9569860E+02  0.7546771E-02  0.1290531E+00
         -4   -1    0    0    0  501 -0.00000000000E+00  0.00000000000E+00  0.57989800135E+03  0.57989800135E+03  0.00000000000E+00 0.  1.
         21   -1    0    0  503  502  0.00000000000E+00 -0.00000000000E+00 -0.58435649805E+02  0.58435649805E+02  0.00000000000E+00 0. -1.
         23    2    1    2    0    0 -0.12721153935E+02 -0.48441959819E+01  0.24759430838E+03  0.26438525984E+03  0.91713303751E+02 0.  0.
         23    2    1    2    0    0  0.60968472829E+01  0.46134819490E+02  0.55193124442E+02  0.11538097329E+03  0.90004971499E+02 0.  0.
        -11    1    4    4    0    0 -0.26999895205E+02  0.55061816787E+02  0.16132933197E+02  0.63411903791E+02  0.00000000000E+00 0. -1.
         11    1    4    4    0    0  0.33096742488E+02 -0.89269972961E+01  0.39060191245E+02  0.51969069495E+02  0.00000000000E+00 0.  1.
        -13    1    3    3    0    0 -0.52454541004E+02 -0.14734170294E+00  0.15004253079E+03  0.15894735489E+03  0.00000000000E+00 0.  1.
         13    1    3    3    0    0  0.39733387070E+02 -0.46968542789E+01  0.97551777591E+02  0.10543790495E+03  0.00000000000E+00 0. -1.
         21    1    1    2  503  501 -0.29822491409E+02  0.54166524250E+01  0.19062178686E+03  0.19301654526E+03  0.00000000000E+00 0.  1.
         -4    1    1    2    0  502  0.36446798061E+02 -0.46707275934E+02  0.28053131860E+02  0.65550872772E+02  0.00000000000E+00 0.  1.
<scales pt_clust_5="13000.00000" pt_clust_6="13000.00000" pt_clust_7="13000.00000" pt_clust_8="13000.00000" pt_clust_9="30.31041" pt_clust_10="56.56953"></scales>
<clustering>
<clus scale="   30.310">  1  9  2 -1</clus>
<clus scale="   56.570">  2 10  1 -1</clus>
<clus scale="   90.005">  5  6 -1 -1</clus>
<clus scale="   91.713">  7  8 -1 -1</clus>
<clus scale="   94.063">  2  5  1 -1</clus>
<clus scale="   56.570">  2  5  1 -1</clus>
</clustering>
</event>
<event>
10    2  0.3984345E-006  0.2446731E+03  0.7546771E-02  0.1117106E+00
         21   -1    0    0  501  502  0.00000000000E+00  0.00000000000E+00  0.51064440963E+03  0.51064440963E+03  0.00000000000E+00 0. -1.
          1   -1    0    0  503    0 -0.00000000000E+00 -0.00000000000E+00 -0.63030172634E+03  0.63030172634E+03  0.00000000000E+00 0. -1.
         23    2    1    2    0    0 -0.12391607478E+03 -0.14850463320E+03 -0.22819886226E+03  0.31254660385E+03  0.90564005934E+02 0.  0.
         23    2    1    2    0    0  0.24264979511E+03  0.15677268579E+03 -0.22600910385E+03  0.37933374415E+03  0.96733532699E+02 0.  0.
        -13    1    3    3    0    0 -0.29181417307E+02 -0.94182368038E+02 -0.14459988189E+03  0.17501714032E+03  0.00000000000E+00 0.  1.
         13    1    3    3    0    0 -0.94734657470E+02 -0.54322265164E+02 -0.83598980376E+02  0.13752946353E+03  0.00000000000E+00 0. -1.
        -13    1    4    4    0    0  0.37584084247E+02  0.65747567490E+02 -0.87243702157E+02  0.11552821987E+03  0.00000000000E+00 0.  1.
         13    1    4    4    0    0  0.20506571087E+03  0.91025118301E+02 -0.13876540169E+03  0.26380552428E+03  0.00000000000E+00 0. -1.
         21    1    1    2  503  502 -0.68081579029E+02 -0.23247866345E+02 -0.31993970965E+02  0.78734864391E+02  0.00000000000E+00 0. -1.
          1    1    1    2  501    0 -0.50652141308E+02  0.14979813755E+02  0.36654462037E+03  0.37033092358E+03  0.00000000000E+00 0. -1.
<scales pt_clust_5="13000.00000" pt_clust_6="13000.00000" pt_clust_7="13000.00000" pt_clust_8="13000.00000" pt_clust_9="79.18277" pt_clust_10="52.82077"></scales>
<clustering>
<clus scale="   52.821">  1 10  2 -1</clus>
<clus scale="   79.183">  1  9  2 -1</clus>
<clus scale="   90.564">  5  6 -1 -1</clus>
<clus scale="   96.734">  7  8 -1 -1</clus>
<clus scale="  242.300">  2  5  1 -1</clus>
<clus scale="   52.821">  1  5  2 -1</clus>
</clustering>
</event>
<event>
10    2  0.3984345E-006  0.9503758E+02  0.7546771E-02  0.1293048E+00
         21   -1    0    0  501  502  0.00000000000E+00  0.00000000000E+00  0.62745935910E+02  0.62745935910E+02  0.00000000000E+00 0.  1.
          1   -1    0    0  503    0 -0.00000000000E+00 -0.00000000000E+00 -0.40311518361E+03  0.40311518361E+03  0.00000000000E+00 0. -1.
         23    2    1    2    0    0  0.58187692117E+01 -0.27619347462E+02 -0.27737451245E+03  0.29235037493E+03  0.87951322530E+02 0.  0.
         23    2    1    2    0    0  0.25743947987E+01  0.14439085221E+02 -0.24779146676E+02  0.95920739026E+02  0.91496816200E+02 0.  0.
        -11    1    3    3    0    0 -0.25656819549E+02  0.17147703754E+02 -0.15860926737E+03  0.16158346397E+03  0.00000000000E+00 0.  1.
         11    1    3    3    0    0  0.31475588761E+02 -0.44767051217E+02 -0.11876524508E+03  0.13076691096E+03  0.00000000000E+00 0. -1.
        -13    1    4    4    0    0  0.30592879591E+02 -0.16594160809E+02 -0.38516436681E+02  0.51911524242E+02  0.00000000000E+00 0. -1.
         13    1    4    4    0    0 -0.28018484792E+02  0.31033246030E+02  0.13737290004E+02  0.44009214783E+02  0.00000000000E+00 0.  1.
         21    1    1    2  503  502 -0.36105033894E+02  0.21707100704E+01 -0.12670133262E+02  0.38325157946E+02  0.00000000000E+00 0.  1.
          1    1    1    2  501    0  0.27711869884E+02  0.11009552171E+02 -0.25545455311E+02  0.39264847618E+02  0.00000000000E+00 0. -1.
<scales pt_clust_5="13000.00000" pt_clust_6="13000.00000" pt_clust_7="13000.00000" pt_clust_8="13000.00000" pt_clust_9="30.11304" pt_clust_10="29.81875"></scales>
<clustering>
<clus scale="   29.819">  1 10  2 -1</clus>
<clus scale="   30.113">  1  9  2 -1</clus>
<clus scale="   87.951">  5  6 -1 -1</clus>
<clus scale="   91.497">  7  8 -1 -1</clus>
<clus scale="   91.629">  2  5  1 -1</clus>
<clus scale="   29.819">  1  5  2 -1</clus>
</clustering>
</event>
<event>
10    2  0.3984345E-006  0.1606092E+03  0.7546771E-02  0.1188225E+00
         21   -1    0    0  501  502  0.00000000000E+00  0.00000000000E+00  0.12281647625E+03  0.12281647625E+03  0.00000000000E+00 0. -1.
          2   -1    0    0  503    0 -0.00000000000E+00 -0.00000000000E+00 -0.81540716242E+03  0.81540716242E+03  0.00000000000E+00 0. -1.
         23    2    1    2    0    0  0.11991799962E+03 -0.96566920485E+02 -0.55428094472E+03  0.58267928113E+03  0.92640607836E+02 0.  0.
         23    2    1    2    0    0 -0.81028865507E+02 -0.83606981301E+01  0.46063637042E+02  0.13074882141E+03  0.91311649445E+02 0.  0.
        -13    1    3    3    0    0  0.59789825766E+02 -0.28565849499E+01 -0.11671053753E+03  0.13116528852E+03  0.00000000000E+00 0.  1.
         13    1    3    3    0    0  0.60128173854E+02 -0.93710335535E+02 -0.43757040719E+03  0.45151399261E+03  0.00000000000E+00 0. -1.
        -13    1    4    4    0    0 -0.58292898962E+02 -0.26396633410E+02 -0.12673040366E+02  0.65233812375E+02  0.00000000000E+00 0.  1.
         13    1    4    4    0    0 -0.22735966545E+02  0.18035935280E+02  0.58736677408E+02  0.65515009037E+02  0.00000000000E+00 0. -1.
         21    1    1    2  503  502  0.60232763332E+00  0.27793585572E+02 -0.10021219656E+03  0.10399678138E+03  0.00000000000E+00 0.  1.
          2    1    1    2  501    0 -0.39491461746E+02  0.77134033043E+02 -0.84161181921E+02  0.12079875474E+03  0.00000000000E+00 0. -1.
<scales pt_clust_5="13000.00000" pt_clust_6="13000.00000" pt_clust_7="13000.00000" pt_clust_8="13000.00000" pt_clust_9="27.80011" pt_clust_10="90.19068"></scales>
<clustering>
<clus scale="   27.800">  2  9  1 -1</clus>
<clus scale="   90.191">  1 10  2 -1</clus>
<clus scale="   91.312">  7  8 -1 -1</clus>
<clus scale="   92.641">  5  6 -1 -1</clus>
<clus scale="  159.846">  1  7  2 -1</clus>
<clus scale="   90.191">  1  5  2 -1</clus>
</clustering>
</event>
<event>
10    2  0.3984345E-006  0.1095646E+03  0.7546771E-02  0.1261753E+00
         21   -1    0    0  503  502  0.00000000000E+00  0.00000000000E+00  0.15815364687E+03  0.15815364687E+03  0.00000000000E+00 0. -1.
         -3   -1    0    0    0  501 -0.00000000000E+00 -0.00000000000E+00 -0.36663809212E+03  0.36663809212E+03  0.00000000000E+00 0.  1.
         23    2    1    2    0    0  0.36275547563E+01 -0.70175200880E+02 -0.19023976538E+03  0.22212377890E+03  0.90609529567E+02 0.  0.
         23    2    1    2    0    0 -0.27689042551E+02  0.43619865928E+02 -0.11695692720E+03  0.15726859895E+03  0.91570266000E+02 0.  0.
        -13    1    4    4    0    0 -0.58251708094E+02  0.45579035855E+02 -0.75134045578E+02  0.10543165943E+03  0.00000000000E+00 0.  1.
         13    1    4    4    0    0  0.30562665542E+02 -0.19591699278E+01 -0.41822881617E+02  0.51836939518E+02  0.00000000000E+00 0. -1.
        -13    1    3    3    0    0  0.45030503332E+02 -0.42071120068E+02 -0.79378832297E+02  0.10049240962E+03  0.00000000000E+00 0.  1.
         13    1    3    3    0    0 -0.41402948575E+02 -0.28104080811E+02 -0.11086093308E+03  0.12163136928E+03  0.00000000000E+00 0. -1.
         21    1    1    2  503  501  0.21269070227E+02  0.51803597932E+02  0.10520468658E+03  0.11918058644E+03  0.00000000000E+00 0. -1.
         -3    1    1    2    0  502  0.27924175678E+01 -0.25248262980E+02 -0.64924392495E+01  0.26218774700E+02  0.00000000000E+00 0.  1.
<scales pt_clust_5="13000.00000" pt_clust_6="13000.00000" pt_clust_7="13000.00000" pt_clust_8="13000.00000" pt_clust_9="40.20062" pt_clust_10="25.40221"></scales>
<clustering>
<clus scale="   25.402">  1 10  2 -1</clus>
<clus scale="   40.201">  1  9  2 -1</clus>
<clus scale="   90.610">  7  8 -1 -1</clus>
<clus scale="   91.570">  5  6 -1 -1</clus>
<clus scale="  108.763">  2  7  1 -1</clus>
<clus scale="   25.402">  1  5  2 -1</clus>
</clustering>
</event>
<event>
10    2  0.3984345E-006  0.9370254E+02  0.7546771E-02  0.1295384E+00
          1   -1    0    0  503    0 -0.00000000000E+00  0.00000000000E+00  0.10464571973E+03  0.10464571973E+03  0.00000000000E+00 0. -1.
         21   -1    0    0  501  502  0.00000000000E+00 -0.00000000000E+00 -0.36787120344E+03  0.36787120344E+03  0.00000000000E+00 0. -1.
         23    2    1    2    0    0 -0.41674569445E+02 -0.49722659799E+01 -0.11707751672E+02  0.99594508755E+02  0.89557252959E+02 0.  0.
         23    2    1    2    0    0 -0.22579918114E+02  0.26805036884E+02 -0.21072147283E+02  0.10047025073E+03  0.91770764332E+02 0.  0.
        -11    1    3    3    0    0 -0.61080060548E+02  0.72464265226E+01  0.16071007713E+02  0.63573278843E+02  0.00000000000E+00 0.  1.
         11    1    3    3    0    0  0.19405491103E+02 -0.12218692502E+02 -0.27778759385E+02  0.36021229912E+02  0.00000000000E+00 0. -1.
        -13    1    4    4    0    0 -0.34276801875E+02  0.44248693764E+01  0.28526332273E+02  0.44813282057E+02  0.00000000000E+00 0. -1.
         13    1    4    4    0    0  0.11696883761E+02  0.22380167508E+02 -0.49598479557E+02  0.55656968672E+02  0.00000000000E+00 0.  1.
         21    1    1    2  503  502  0.21393837002E+02 -0.17164325731E+02  0.92223253269E+01  0.28937201383E+02  0.00000000000E+00 0. -1.
          1    1    1    2  501    0  0.42860650557E+02 -0.46684451738E+01 -0.23966791008E+03  0.24351496231E+03  0.00000000000E+00 0. -1.
<scales pt_clust_5="13000.00000" pt_clust_6="13000.00000" pt_clust_7="13000.00000" pt_clust_8="13000.00000" pt_clust_9="27.42828" pt_clust_10="43.63529"></scales>
<clustering>
<clus scale="   27.428">  1  9  2 -1</clus>
<clus scale="   43.635">  2 10  1 -1</clus>
<clus scale="   89.557">  5  6 -1 -1</clus>
<clus scale="   91.536">  1  5  2 -1</clus>
<clus scale="   91.771">  7  8 -1 -1</clus>
<clus scale="   43.635">  2  5  1 -1</clus>
</clustering>
</event>
<event>
10    2  0.3984345E-006  0.1894065E+03  0.7546771E-02  0.1159273E+00
         21   -1    0    0  503  502  0.00000000000E+00  0.00000000000E+00  0.23163510056E+03  0.23163510056E+03  0.00000000000E+00 0.  1.
         -1   -1    0    0    0  501 -0.00000000000E+00 -0.00000000000E+00 -0.43671946430E+03  0.43671946430E+03  0.00000000000E+00 0.  1.
         23    2    1    2    0    0 -0.59083554529E+02  0.18783461096E+03 -0.12442511444E+03  0.24994152766E+03  0.90644639427E+02 0.  0.
         23    2    1    2    0    0 -0.58626767947E+02 -0.13735506449E+03 -0.19257471675E+02  0.17705479945E+03  0.93134527077E+02 0.  0.
        -11    1    3    3    0    0 -0.30842281583E+02  0.30409771025E+02  0.57907063666E+01  0.43698201191E+02  0.00000000000E+00 0. -1.
         11    1    3    3    0    0 -0.28241272946E+02  0.15742483994E+03 -0.13021582081E+03  0.20624332647E+03  0.00000000000E+00 0.  1.
        -13    1    4    4    0    0 -0.80436401917E+02 -0.75178725340E+02 -0.13151355649E+02  0.11088198074E+03  0.00000000000E+00 0.  1.
         13    1    4    4    0    0  0.21809633970E+02 -0.62176339148E+02 -0.61061160257E+01  0.66172818715E+02  0.00000000000E+00 0. -1.
         21    1    1    2  503  501  0.37332158434E+02 -0.43908693023E+01 -0.12397863080E+03  0.12955180694E+03  0.00000000000E+00 0. -1.
         -1    1    1    2    0  502  0.80378164042E+02 -0.46088677172E+02  0.62576853171E+02  0.11180643081E+03  0.00000000000E+00 0.  1.
<scales pt_clust_5="13000.00000" pt_clust_6="13000.00000" pt_clust_7="13000.00000" pt_clust_8="13000.00000" pt_clust_9="37.58949" pt_clust_10="95.40683"></scales>
<clustering>
<clus scale="   37.589">  2  9  1 -1</clus>
<clus scale="   90.645">  5  6 -1 -1</clus>
<clus scale="   93.135">  7  8 -1 -1</clus>
<clus scale="   95.407">  1 10  2 -1</clus>
<clus scale="  188.195">  2  5  1 -1</clus>
<clus scale="   95.407">  1  5  2 -1</clus>
</clustering>
</event>
<event>
10    2  0.3984345E-006  0.1177179E+03  0.7546771E-02  0.1247625E+00
         21   -1    0    0  501  502  0.00000000000E+00  0.00000000000E+00  0.83333853008E+02  0.83333853008E+02  0.00000000000E+00 0.  1.
          2   -1    0    0  503    0 -0.00000000000E+00 -0.00000000000E+00 -0.50285216646E+03  0.50285216646E+03  0.00000000000E+00 0. -1.
         23    2    1    2    0    0  0.57192585493E+02  0.41288335925E+02 -0.16802627443E+03  0.20263012895E+03  0.88602605738E+02 0.  0.
         23    2    1    2    0    0 -0.65810025997E+02 -0.14638820928E+02 -0.48879239205E+02  0.12319440205E+03  0.90787807940E+02 0.  0.
        -11    1    3    3    0    0  0.20911220827E+02  0.64466620632E+02 -0.12231376782E+03  0.13983519632E+03  0.00000000000E+00 0.  1.
         11    1    3    3    0    0  0.36281364666E+02 -0.23178284707E+02 -0.45712506604E+02  0.62794932630E+02  0.00000000000E+00 0. -1.
        -11    1    4    4    0    0  0.16022799052E+02  0.18218144785E+02 -0.53121116220E+01  0.24836453425E+02  0.00000000000E+00 0. -1.
         11    1    4    4    0    0 -0.81832825049E+02 -0.32856965713E+02 -0.43567127583E+02  0.98357948622E+02  0.00000000000E+00 0.  1.
         21    1    1    2  503  502  0.87199569656E+01  0.38045571922E+02 -0.19060618626E+03  0.19456161346E+03  0.00000000000E+00 0. -1.
          2    1    1    2  501    0 -0.10251646189E+00 -0.64695086919E+02 -0.12006613557E+02  0.65799875001E+02  0.00000000000E+00 0. -1.
<scales pt_clust_5="13000.00000" pt_clust_6="13000.00000" pt_clust_7="13000.00000" pt_clust_8="13000.00000" pt_clust_9="39.03208" pt_clust_10="59.93290"></scales>
<clustering>
<clus scale="   39.032">  2  9  1 -1</clus>
<clus scale="   59.933">  1 10  2 -1</clus>
<clus scale="   88.603">  5  6 -1 -1</clus>
<clus scale="   90.788">  7  8 -1 -1</clus>
<clus scale="  116.041">  2  5  1 -1</clus>
<clus scale="   59.933">  1  5  2 -1</clus>
</clustering>
</event>
<event>
10    2  0.3984345E-006  0.2200858E+03  0.7546771E-02  0.1133854E+00
         21   -1    0    0  501  502  0.00000000000E+00  0.00000000000E+00  0.45345585928E+03  0.45345585928E+03  0.00000000000E+00 0.  1.
          2   -1    0    0  503    0 -0.00000000000E+00 -0.00000000000E+00 -0.23189129579E+03  0.23189129579E+03  0.00000000000E+00 0. -1.
         23    2    1    2    0    0  0.14112607783E+03 -0.37266068470E+02  0.40959860102E+01  0.17178607501E+03  0.90489495307E+02 0.  0.
         23    2    1    2    0    0 -0.25391410945E+03 -0.34278841958E+02  0.17578404130E+03  0.32375504386E+03  0.90938909527E+02 0.  0.
        -11    1    4    4    0    0 -0.18524882738E+03 -0.62416583407E+02  0.14513037498E+03  0.24346618589E+03  0.00000000000E+00 0.  1.
         11    1    4    4    0    0 -0.68665282069E+02  0.28137741449E+02  0.30653666325E+02  0.80288857973E+02  0.00000000000E+00 0. -1.
        -11    1    3    3    0    0  0.85075595606E+02 -0.33210255568E+02  0.45450957559E+02  0.10201258543E+03  0.00000000000E+00 0.  1.
         11    1    3    3    0    0  0.56050482229E+02 -0.40558129026E+01 -0.41354971549E+02  0.69773489580E+02  0.00000000000E+00 0. -1.
         21    1    1    2  503  502  0.10549006131E+03  0.99586722487E+02  0.78837793927E+01  0.14528531346E+03  0.00000000000E+00 0. -1.
          2    1    1    2  501    0  0.72979703076E+01 -0.28041812059E+02  0.33800756783E+02  0.44520722739E+02  0.00000000000E+00 0. -1.
<scales pt_clust_5="13000.00000" pt_clust_6="13000.00000" pt_clust_7="13000.00000" pt_clust_8="13000.00000" pt_clust_9="142.57116" pt_clust_10="28.97591"></scales>
<clustering>
<clus scale="   28.976">  1 10  2 -1</clus>
<clus scale="   90.489">  7  8 -1 -1</clus>
<clus scale="   90.939">  5  6 -1 -1</clus>
<clus scale="  142.571">  2  9  1 -1</clus>
<clus scale="  219.900">  2  7  1 -1</clus>
<clus scale="   28.976">  1  5  2 -1</clus>
</clustering>
</event>
<event>
10    2  0.3984345E-006  0.9020849E+02  0.7546771E-02  0.1303254E+00
         21   -1    0    0  503  502  0.00000000000E+00  0.00000000000E+00  0.47431707898E+02  0.47431707898E+02  0.00000000000E+00 0. -1.
         -3   -1    0    0    0  501 -0.00000000000E+00 -0.00000000000E+00 -0.39757053088E+03  0.39757053088E+03  0.00000000000E+00 0.  1.
         23    2    1    2    0    0  0.21329503341E+02  0.23981490120E+02 -0.18664009544E+03  0.20863011319E+03  0.87532504389E+02 0.  0.
         23    2    1    2    0    0 -0.10623832225E+02 -0.26961943055E+01 -0.76710906356E+02  0.11803754627E+03  0.89040237538E+02 0.  0.
        -11    1    4    4    0    0 -0.16716239939E+02  0.32176109859E+02 -0.74154724050E+02  0.82544883684E+02  0.00000000000E+00 0.  1.
         11    1    4    4    0    0  0.60924077142E+01 -0.34872304165E+02 -0.25561823054E+01  0.35492662587E+02  0.00000000000E+00 0. -1.
        -13    1    3    3    0    0 -0.34266979864E+02  0.63532763683E+01 -0.73325319093E+02  0.81186159225E+02  0.00000000000E+00 0. -1.
         13    1    3    3    0    0  0.55596483205E+02  0.17628213752E+02 -0.11331477634E+03  0.12744395397E+03  0.00000000000E+00 0.  1.
         21    1    1    2  503  501 -0.34735097649E+02 -0.12716568293E+02 -0.85071651544E+02  0.92765424670E+02  0.00000000000E+00 0.  1.
         -3    1    1    2    0  502  0.24029426533E+02 -0.85687275216E+01 -0.17161696425E+01  0.25569154642E+02  0.00000000000E+00 0.  1.
<scales pt_clust_5="13000.00000" pt_clust_6="13000.00000" pt_clust_7="13000.00000" pt_clust_8="13000.00000" pt_clust_9="34.90879" pt_clust_10="25.51150"></scales>
<clustering>
<clus scale="   25.511">  1 10  2 -1</clus>
<clus scale="   34.909">  2  9  1 -1</clus>
<clus scale="   87.533">  7  8 -1 -1</clus>
<clus scale="   88.721">  2  7  1 -1</clus>
<clus scale="   89.040">  5  6 -1 -1</clus>
<clus scale="   25.511">  1  5  2 -1</clus>
</clustering>
</event>
<event>
10    2  0.3984345E-006  0.1419857E+03  0.7546771E-02  0.1211022E+00
         21   -1    0    0  503  502  0.00000000000E+00  0.00000000000E+00  0.23480960520E+03  0.23480960520E+03  0.00000000000E+00 0. -1.
         -3   -1    0    0    0  501 -0.00000000000E+00 -0.00000000000E+00 -0.57452950145E+03  0.57452950145E+03  0.00000000000E+00 0.  1.
         23    2    1    2    0    0  0.11886114857E+03 -0.13455395923E+01 -0.18942923465E+03  0.24097128229E+03  0.89743750929E+02 0.  0.
         23    2    1    2    0    0 -0.94770494585E+02 -0.10800916591E+02  0.11333320338E+03  0.17403189430E+03  0.91348666115E+02 0.  0.
        -11    1    3    3    0    0  0.13214612501E+01  0.25844624393E+02 -0.52118962383E+02  0.58190008676E+02  0.00000000000E+00 0.  1.
         11    1    3    3    0    0  0.11753968732E+03 -0.27190163985E+02 -0.13731027227E+03  0.18278127361E+03  0.00000000000E+00 0. -1.
        -11    1    4    4    0    0 -0.46822822666E+02  0.33229039471E+02  0.21163400162E+02  0.61191791059E+02  0.00000000000E+00 0. -1.
         11    1    4    4    0    0 -0.47947671919E+02 -0.44029956062E+02  0.92169803219E+02  0.11284010324E+03  0.00000000000E+00 0.  1.
         21    1    1    2  503  501 -0.15946012873E+02  0.44754963085E+02 -0.32280182220E+03  0.32627947907E+03  0.00000000000E+00 0.  1.
         -3    1    1    2    0  502 -0.81446411140E+01 -0.32608506902E+02  0.59177957222E+02  0.68056450997E+02  0.00000000000E+00 0.  1.
<scales pt_clust_5="13000.00000" pt_clust_6="13000.00000" pt_clust_7="13000.00000" pt_clust_8="13000.00000" pt_clust_9="47.22701" pt_clust_10="33.61026"></scales>
<clustering>
<clus scale="   33.610">  1 10  2 -1</clus>
<clus scale="   47.227">  2  9  1 -1</clus>
<clus scale="   89.744">  5  6 -1 -1</clus>
<clus scale="   91.349">  7  8 -1 -1</clus>
<clus scale="  140.959">  2  5  1 -1</clus>
<clus scale="   33.610">  1  5  2 -1</clus>
</clustering>
</event>
<event>
10    2  0.3984345E-006  0.9405509E+02  0.7546771E-02  0.1295608E+00
         21   -1    0    0  501  502  0.00000000000E+00  0.00000000000E+00  0.11321935491E+03  0.11321935491E+03  0.00000000000E+00 0.  1.
          2   -1    0    0  503    0 -0.00000000000E+00 -0.00000000000E+00 -0.24701720837E+03  0.24701720837E+03  0.00000000000E+00 0. -1.
         23    2    1    2    0    0  0.12581002362E+02  0.66220326639E+01 -0.57069439547E+02  0.10683915965E+03  0.89193902070E+02 0.  0.
         23    2    1    2    0    0  0.85752631663E+01 -0.38536478631E+01  0.54237262368E+01  0.93784694684E+02  0.93154529736E+02 0.  0.
        -13    1    3    3    0    0  0.28788302572E+02  0.38772231394E+02 -0.51162002509E+02  0.70353413513E+02  0.00000000000E+00 0. -1.
         13    1    3    3    0    0 -0.16207300210E+02 -0.32150198730E+02 -0.59074370383E+01  0.36485746132E+02  0.00000000000E+00 0.  1.
        -13    1    4    4    0    0  0.29326026762E+02 -0.30168194101E+02  0.30469740666E+02  0.51947481914E+02  0.00000000000E+00 0.  1.
         13    1    4    4    0    0 -0.20750763596E+02  0.26314546238E+02 -0.25046014429E+02  0.41837212769E+02  0.00000000000E+00 0. -1.
         21    1    1    2  503  502  0.18971291077E+02  0.76715782413E+01 -0.10854816725E+03  0.11046025353E+03  0.00000000000E+00 0. -1.
          2    1    1    2  501    0 -0.40127556605E+02 -0.10439963042E+02  0.26396027094E+02  0.49152455420E+02  0.00000000000E+00 0. -1.
<scales pt_clust_5="13000.00000" pt_clust_6="13000.00000" pt_clust_7="13000.00000" pt_clust_8="13000.00000" pt_clust_9="20.46370" pt_clust_10="39.78501"></scales>
<clustering>
<clus scale="   20.464">  2  9  1 -1</clus>
<clus scale="   39.785">  1 10  2 -1</clus>
<clus scale="   89.194">  5  6 -1 -1</clus>
<clus scale="   90.134">  2  5  1 -1</clus>
<clus scale="   93.155">  7  8 -1 -1</clus>
<clus scale="   39.785">  1  5  2 -1</clus>
</clustering>
</event>
<event>
10    2  0.3984345E-006  0.9460741E+02  0.7546771E-02  0.1292683E+00
          1   -1    0    0  503    0 -0.00000000000E+00  0.00000000000E+00  0.12264184518E+03  0.12264184518E+03  0.00000000000E+00 0. -1.
         21   -1    0    0  501  502  0.00000000000E+00 -0.00000000000E+00 -0.14511037941E+03  0.14511037941E+03  0.00000000000E+00 0. -1.
         23    2    1    2    0    0 -0.22778758063E+02 -0.16396483137E+02  0.76861839743E+01  0.94558601503E+02  0.89969634967E+02 0.  0.
         23    2    1    2    0    0  0.22975409036E+02 -0.68516475279E+01 -0.21274548579E+02  0.96574721581E+02  0.91100252124E+02 0.  0.
        -11    1    4    4    0    0 -0.25748742532E+02  0.21857797517E+02  0.51273053369E+01  0.34162118118E+02  0.00000000000E+00 0. -1.
         11    1    4    4    0    0  0.48724151568E+02 -0.28709445045E+02 -0.26401853916E+02  0.62412603463E+02  0.00000000000E+00 0.  1.
        -13    1    3    3    0    0  0.18865005324E+02 -0.35334060260E+02  0.23155768464E+02  0.46266336071E+02  0.00000000000E+00 0. -1.
         13    1    3    3    0    0 -0.41643763387E+02  0.18937577122E+02 -0.15469584490E+02  0.48292265432E+02  0.00000000000E+00 0.  1.
         21    1    1    2  503  502 -0.12873951561E+02 -0.16310671966E+02  0.17705458228E+02  0.27299448709E+02  0.00000000000E+00 0. -1.
          1    1    1    2  501    0  0.12677300588E+02  0.39558802632E+02 -0.26585627847E+02  0.49319452794E+02  0.00000000000E+00 0. -1.
<scales pt_clust_5="13000.00000" pt_clust_6="13000.00000" pt_clust_7="13000.00000" pt_clust_8="13000.00000" pt_clust_9="20.77924" pt_clust_10="39.34010"></scales>
<clustering>
<clus scale="   20.779">  1  9  2 -1</clus>
<clus scale="   39.340">  2 10  1 -1</clus>
<clus scale="   89.970">  7  8 -1 -1</clus>
<clus scale="   91.100">  5  6 -1 -1</clus>
<clus scale="   93.519">  1  7  2 -1</clus>
<clus scale="   39.340">  2  5  1 -1</clus>
</clustering>
</event>
<event>
10    2  0.3984345E-006  0.4316008E+03  0.7546771E-02  0.1033375E+00
         21   -1    0    0  501  502  0.00000000000E+00  0.00000000000E+00  0.40701066467E+03  0.40701066467E+03  0.00000000000E+00 0. -1.
          2   -1    0    0  503    0 -0.00000000000E+00 -0.00000000000E+00 -0.63735485082E+03  0.63735485082E+03  0.00000000000E+00 0. -1.
         23    2    1    2    0    0  0.27494996111E+03  0.31269245677E+03 -0.23719208413E+03  0.48760544244E+03  0.90138388565E+02 0.  0.
         23    2    1    2    0    0 -0.25046312109E+03 -0.35260339684E+03 -0.17523280128E+02  0.44239040219E+03  0.91330565012E+02 0.  0.
        -11    1    4    4    0    0 -0.13979050212E+02 -0.60807764191E+02 -0.23711011275E+02  0.66747360145E+02  0.00000000000E+00 0.  1.
         11    1    4    4    0    0 -0.23648407088E+03 -0.29179563265E+03  0.61877311466E+01  0.37564304204E+03  0.00000000000E+00 0. -1.
        -11    1    3    3    0    0  0.15389209203E+03  0.22162443287E+03 -0.18595444359E+03  0.32768768718E+03  0.00000000000E+00 0. -1.
         11    1    3    3    0    0  0.12105786908E+03  0.91068023897E+02 -0.51237640539E+02  0.15991775527E+03  0.00000000000E+00 0.  1.
         21    1    1    2  503  502  0.29909297498E+02 -0.14948563728E+02  0.25792421497E+00  0.33437885089E+02  0.00000000000E+00 0.  1.
          2    1    1    2  501    0 -0.54396137511E+02  0.54859503804E+02  0.24113253892E+02  0.80931785764E+02  0.00000000000E+00 0. -1.
<scales pt_clust_5="13000.00000" pt_clust_6="13000.00000" pt_clust_7="13000.00000" pt_clust_8="13000.00000" pt_clust_9="33.43689" pt_clust_10="73.00647"></scales>
<clustering>
<clus scale="   33.437">  1  9  2 -1</clus>
<clus scale="   73.006">  1 10  2 -1</clus>
<clus scale="   90.138">  7  8 -1 -1</clus>
<clus scale="   91.331">  5  6 -1 -1</clus>
<clus scale="  431.350">  2  7  1 -1</clus>
<clus scale="   33.437">  1  5  2 -1</clus>
</clustering>
</event>
<event>
10    2  0.3984345E-006  0.1802670E+03  0.7546771E-02  0.1167784E+00
         21   -1    0    0  501  502  0.00000000000E+00  0.00000000000E+00  0.18326188016E+03  0.18326188016E+03  0.00000000000E+00 0. -1.
          1   -1    0    0  503    0 -0.00000000000E+00 -0.00000000000E+00 -0.70587080220E+03  0.70587080220E+03  0.00000000000E+00 0. -1.
         23    2    1    2    0    0  0.14340387334E+03 -0.44115761385E+02 -0.18144365455E+03  0.25280797780E+03  0.92082585608E+02 0.  0.
         23    2    1    2    0    0 -0.14564481997E+03  0.13951698130E+02 -0.44479882697E+02  0.17750882948E+03  0.90132464269E+02 0.  0.
        -11    1    4    4    0    0 -0.45486624124E+02  0.20140306163E+02 -0.57822463532E+02  0.76276485206E+02  0.00000000000E+00 0. -1.
         11    1    4    4    0    0 -0.10015819584E+03 -0.61886080325E+01  0.13342580836E+02  0.10123234428E+03  0.00000000000E+00 0.  1.
        -13    1    3    3    0    0  0.10277194591E+03  0.13231031895E+02 -0.12697655101E+03  0.16389074891E+03  0.00000000000E+00 0.  1.
         13    1    3    3    0    0  0.40631927429E+02 -0.57346793280E+02 -0.54467103542E+02  0.88917228895E+02  0.00000000000E+00 0. -1.
         21    1    1    2  503  502  0.36778081987E+02  0.29579244465E+02 -0.37251316139E+03  0.37549116424E+03  0.00000000000E+00 0. -1.
          1    1    1    2  501    0 -0.34537135355E+02  0.58481879024E+00  0.75827776596E+02  0.83324710830E+02  0.00000000000E+00 0. -1.
<scales pt_clust_5="13000.00000" pt_clust_6="13000.00000" pt_clust_7="13000.00000" pt_clust_8="13000.00000" pt_clust_9="46.81687" pt_clust_10="34.54209"></scales>
<clustering>
<clus scale="   34.542">  1 10  2 -1</clus>
<clus scale="   46.817">  2  9  1 -1</clus>
<clus scale="   90.132">  5  6 -1 -1</clus>
<clus scale="   92.083">  7  8 -1 -1</clus>
<clus scale="  179.279">  1  5  2 -1</clus>
<clus scale="   34.542">  1  5  2 -1</clus>
</clustering>
</event>
<event>
10    2  0.3984345E-006  0.1006874E+03  0.7546771E-02  0.1283414E+00
         -1   -1    0    0    0  501 -0.00000000000E+00  0.00000000000E+00  0.33865317209E+03  0.33865317209E+03  0.00000000000E+00 0.  1.
         21   -1    0    0  503  502  0.00000000000E+00 -0.00000000000E+00 -0.19963610823E+03  0.19963610823E+03  0.00000000000E+00 0.  1.
         23    2    1    2    0    0 -0.28879949441E+01 -0.56215649461E+02  0.15529691511E+03  0.18476088139E+03  0.82770234325E+02 0.  0.
         23    2    1    2    0    0  0.98457977729E+00  0.77025191382E+02 -0.66205828426E+02  0.13703923480E+03  0.91992883699E+02 0.  0.
        -13    1    3    3    0    0 -0.28448539619E+02 -0.32185292515E+02  0.14008326294E+03  0.14652144218E+03  0.00000000000E+00 0.  1.
         13    1    3    3    0    0  0.25560544674E+02 -0.24030356946E+02  0.15213652164E+02  0.38239439211E+02  0.00000000000E+00 0. -1.
        -13    1    4    4    0    0  0.92139449020E+01 -0.19855477063E+02 -0.18865990537E+02  0.28897445371E+02  0.00000000000E+00 0. -1.
         13    1    4    4    0    0 -0.82293651247E+01  0.96880668444E+02 -0.47339837889E+02  0.10814178942E+03  0.00000000000E+00 0.  1.
         21    1    1    2  503  501 -0.26055625235E+02  0.35428165189E+02  0.11676548710E+03  0.12477271125E+03  0.00000000000E+00 0. -1.
         -1    1    1    2    0  502  0.27959040402E+02 -0.56237707109E+02 -0.66839509934E+02  0.91716452882E+02  0.00000000000E+00 0.  1.
<scales pt_clust_5="13000.00000" pt_clust_6="13000.00000" pt_clust_7="13000.00000" pt_clust_8="13000.00000" pt_clust_9="43.97784" pt_clust_10="60.33268"></scales>
<clustering>
<clus scale="   43.978">  1  9  2 -1</clus>
<clus scale="   60.333">  2 10  1 -1</clus>
<clus scale="   82.770">  5  6 -1 -1</clus>
<clus scale="   91.993">  7  8 -1 -1</clus>
<clus scale="   92.337">  1  5  2 -1</clus>
<clus scale="   60.333">  2  5  1 -1</clus>
</clustering>
</event>
<event>
10    2  0.3984345E-006  0.9553864E+02  0.7546771E-02  0.1290817E+00
         -1   -1    0    0    0  501 -0.00000000000E+00  0.00000000000E+00  0.54041651890E+03  0.54041651890E+03  0.00000000000E+00 0.  1.
         21   -1    0    0  503  502  0.00000000000E+00 -0.00000000000E+00 -0.72199178499E+02  0.72199178499E+02  0.00000000000E+00 0.  1.
         23    2    1    2    0    0  0.36715296615E+02 -0.12597434399E+02  0.19626967254E+03  0.21963591529E+03  0.90617010382E+02 0.  0.
         23    2    1    2    0    0 -0.13392470480E+02 -0.22571112120E+01  0.18336452855E+03  0.20567996383E+03  0.92180498880E+02 0.  0.
        -11    1    3    3    0    0 -0.21983400243E+02  0.17525595434E+02  0.92410967438E+02  0.96592977407E+02  0.00000000000E+00 0.  1.
         11    1    3    3    0    0  0.58698696858E+02 -0.30123029833E+02  0.10385870510E+03  0.12304293789E+03  0.00000000000E+00 0. -1.
        -13    1    4    4    0    0 -0.35425146239E+02  0.35015429696E+02  0.10200948681E+03  0.11352073247E+03  0.00000000000E+00 0. -1.
         13    1    4    4    0    0  0.22032675760E+02 -0.37272540908E+02  0.81355041750E+02  0.92159231361E+02  0.00000000000E+00 0.  1.
         21    1    1    2  503  501 -0.31097404462E+02 -0.13394494913E+02  0.13124691591E+03  0.13554414039E+03  0.00000000000E+00 0.  1.
         -1    1    1    2    0  502  0.77745783261E+01  0.28249040523E+02 -0.42663776603E+02  0.51755677879E+02  0.00000000000E+00 0.  1.
<scales pt_clust_5="13000.00000" pt_clust_6="13000.00000" pt_clust_7="13000.00000" pt_clust_8="13000.00000" pt_clust_9="32.34448" pt_clust_10="29.29936"></scales>
<clustering>
<clus scale="   29.299">  2 10  1 -1</clus>
<clus scale="   32.344">  1  9  2 -1</clus>
<clus scale="   90.617">  5  6 -1 -1</clus>
<clus scale="   92.180">  7  8 -1 -1</clus>
<clus scale="   94.031">  1  5  2 -1</clus>
<clus scale="   29.299">  2  5  1 -1</clus>
</clustering>
</event>
<event>
10    2  0.3984345E-006  0.1181169E+03  0.7546771E-02  0.1247329E+00
         21   -1    0    0  501  502  0.00000000000E+00  0.00000000000E+00  0.88037213024E+02  0.88037213024E+02  0.00000000000E+00 0.  1.
          1   -1    0    0  503    0 -0.00000000000E+00 -0.00000000000E+00 -0.34634434576E+03  0.34634434576E+03  0.00000000000E+00 0. -1.
         23    2    1    2    0    0  0.18138966330E+02 -0.86946934794E+02 -0.17820562408E+03  0.22000615282E+03  0.93577087224E+02 0.  0.
         23    2    1    2    0    0 -0.41637988440E+01  0.67288890161E+02 -0.44814161743E+02  0.12128937590E+03  0.90319829798E+02 0.  0.
        -11    1    3    3    0    0 -0.17739444999E+02 -0.36001916419E+02 -0.11071107471E+02  0.41634064363E+02  0.00000000000E+00 0.  1.
         11    1    3    3    0    0  0.35878411329E+02 -0.50945018374E+02 -0.16713451661E+03  0.17837208845E+03  0.00000000000E+00 0. -1.
        -11    1    4    4    0    0  0.12264570908E+02  0.80620710344E+02 -0.12260868316E+02  0.82464826004E+02  0.00000000000E+00 0.  1.
         11    1    4    4    0    0 -0.16428369752E+02 -0.13331820183E+02 -0.32553293426E+02  0.38824549901E+02  0.00000000000E+00 0. -1.
         21    1    1    2  503  502 -0.36813041048E+02  0.23006560522E+02 -0.49609831073E+02  0.65921446869E+02  0.00000000000E+00 0.  1.
          1    1    1    2  501    0  0.22837873562E+02 -0.33485158890E+01  0.14322484162E+02  0.27164583193E+02  0.00000000000E+00 0. -1.
<scales pt_clust_5="13000.00000" pt_clust_6="13000.00000" pt_clust_7="13000.00000" pt_clust_8="13000.00000" pt_clust_9="40.86399" pt_clust_10="23.08205"></scales>
<clustering>
<clus scale="   23.082">  1 10  2 -1</clus>
<clus scale="   40.864">  2  9  1 -1</clus>
<clus scale="   90.320">  7  8 -1 -1</clus>
<clus scale="   93.577">  5  6 -1 -1</clus>
<clus scale="  115.554">  1  7  2 -1</clus>
<clus scale="   23.082">  1  5  2 -1</clus>
</clustering>
</event>
<event>
10    2  0.3984345E-006  0.1490166E+03  0.7546771E-02  0.1217439E+00
          2   -1    0    0  503    0 -0.00000000000E+00  0.00000000000E+00  0.29080315679E+03  0.29080315679E+03  0.00000000000E+00 0. -1.
         21   -1    0    0  501  502  0.00000000000E+00 -0.00000000000E+00 -0.15065718357E+03  0.15065718357E+03  0.00000000000E+00 0. -1.
         23    2    1    2    0    0 -0.26624724609E+02 -0.46943278504E+02  0.35018445489E+02  0.11287827664E+03  0.92750560405E+02 0.  0.
         23    2    1    2    0    0  0.11851826075E+03  0.23412371718E+01  0.70017403766E+02  0.16493296027E+03  0.90820620082E+02 0.  0.
        -11    1    4    4    0    0  0.98830514158E+02 -0.15177123549E+02  0.87861283197E+02  0.13310680183E+03  0.00000000000E+00 0. -1.
         11    1    4    4    0    0  0.19687746587E+02  0.17518360721E+02 -0.17843879431E+02  0.31826158442E+02  0.00000000000E+00 0.  1.
        -11    1    3    3    0    0  0.51082437035E+01 -0.59077816768E+02  0.48220170143E+02  0.76429492975E+02  0.00000000000E+00 0. -1.
         11    1    3    3    0    0 -0.31732968312E+02  0.12134538264E+02 -0.13201724654E+02  0.36448783664E+02  0.00000000000E+00 0.  1.
         21    1    1    2  503  502  0.19871565665E+02 -0.31499216595E+01  0.36976573959E+02  0.42095939830E+02  0.00000000000E+00 0. -1.
          2    1    1    2  501    0 -0.11176510180E+03  0.47751962991E+02 -0.18664500015E+01  0.12155316362E+03  0.00000000000E+00 0. -1.
<scales pt_clust_5="13000.00000" pt_clust_6="13000.00000" pt_clust_7="13000.00000" pt_clust_8="13000.00000" pt_clust_9="20.11967" pt_clust_10="118.14212"></scales>
<clustering>
<clus scale="   20.120">  1  9  2 -1</clus>
<clus scale="   90.821">  5  6 -1 -1</clus>
<clus scale="   92.751">  7  8 -1 -1</clus>
<clus scale="  106.423">  1  7  2 -1</clus>
<clus scale="  118.142">  2 10  1 -1</clus>
<clus scale="  118.142">  2  5  1 -1</clus>
</clustering>
</event>
<event>
10    2  0.3984345E-006  0.1019286E+03  0.7546771E-02  0.1276505E+00
         -3   -1    0    0    0  501 -0.00000000000E+00  0.00000000000E+00  0.27279210061E+03  0.27279210061E+03  0.00000000000E+00 0.  1.
         21   -1    0    0  503  502  0.00000000000E+00 -0.00000000000E+00 -0.23027132342E+03  0.23027132342E+03  0.00000000000E+00 0. -1.
         23    2    1    2    0    0 -0.46355429448E+02  0.41914958199E+02  0.13230570543E+03  0.17172127130E+03  0.89876057803E+02 0.  0.
         23    2    1    2    0    0 -0.20656133105E+02 -0.27489779190E+02  0.41470298423E+01  0.96754905402E+02  0.90343511488E+02 0.  0.
        -11    1    4    4    0    0 -0.76682063929E+01 -0.59416224491E+02 -0.74919694792E+01  0.60375646818E+02  0.00000000000E+00 0.  1.
         11    1    4    4    0    0 -0.12987926712E+02  0.31926445301E+02  0.11638999322E+02  0.36379258583E+02  0.00000000000E+00 0. -1.
        -13    1    3    3    0    0 -0.33522933560E+02 -0.71928551059E+01  0.49724458523E+01  0.34644616563E+02  0.00000000000E+00 0.  1.
         13    1    3    3    0    0 -0.12832495888E+02  0.49107813304E+02  0.12733325958E+03  0.13707665473E+03  0.00000000000E+00 0. -1.
         21    1    1    2  503  501  0.16617261053E+02  0.15318421485E+02  0.63089971576E+02  0.67015907926E+02  0.00000000000E+00 0.  1.
         -3    1    1    2    0  502  0.50394301500E+02 -0.29743600494E+02 -0.15702192966E+03  0.16757133940E+03  0.00000000000E+00 0.  1.
<scales pt_clust_5="13000.00000" pt_clust_6="13000.00000" pt_clust_7="13000.00000" pt_clust_8="13000.00000" pt_clust_9="22.60061" pt_clust_10="58.68547"></scales>
<clustering>
<clus scale="   22.601">  1  9  2 -1</clus>
<clus scale="   58.685">  2 10  1 -1</clus>
<clus scale="   89.876">  7  8 -1 -1</clus>
<clus scale="   90.344">  5  6 -1 -1</clus>
<clus scale="  101.514">  1  7  2 -1</clus>
<clus scale="   58.685">  2  5  1 -1</clus>
</clustering>
</event>
<event>
10    2  0.3984345E-006  0.1830746E+03  0.7546771E-02  0.1165169E+00
          2   -1    0    0  503    0 -0.00000000000E+00  0.00000000000E+00  0.96742833022E+03  0.96742833022E+03  0.00000000000E+00 0. -1.
         21   -1    0    0  501  502  0.00000000000E+00 -0.00000000000E+00 -0.10650897310E+03  0.10650897310E+03  0.00000000000E+00 0.  1.
         23    2    1    2    0    0  0.39646583859E+02 -0.14422611909E+03  0.57634391051E+03  0.60203339736E+03  0.88875662100E+02 0.  0.
         23    2    1    2    0    0 -0.80768130137E+02  0.17796260176E+03  0.18234159847E+03  0.28251793327E+03  0.91508172407E+02 0.  0.
        -11    1    4    4    0    0 -0.23091254899E+02  0.61966851670E+02  0.12381147247E+03  0.14036515762E+03  0.00000000000E+00 0. -1.
         11    1    4    4    0    0 -0.57676875238E+02  0.11599575009E+03  0.58530126001E+02  0.14215277566E+03  0.00000000000E+00 0.  1.
        -11    1    3    3    0    0  0.35255343183E+02 -0.27432273444E+02  0.75429930228E+02  0.87664948659E+02  0.00000000000E+00 0.  1.
         11    1    3    3    0    0  0.43912406766E+01 -0.11679384564E+03  0.50091398028E+03  0.51436844870E+03  0.00000000000E+00 0. -1.
         21    1    1    2  503  502  0.73638850476E+02 -0.19008187618E+02  0.12552174885E+03  0.14676409959E+03  0.00000000000E+00 0. -1.
          2    1    1    2  501    0 -0.32517304198E+02 -0.14728295059E+02 -0.23287900695E+02  0.42621873098E+02  0.00000000000E+00 0. -1.
<scales pt_clust_5="13000.00000" pt_clust_6="13000.00000" pt_clust_7="13000.00000" pt_clust_8="13000.00000" pt_clust_9="72.11015" pt_clust_10="35.69731"></scales>
<clustering>
<clus scale="   35.697">  2 10  1 -1</clus>
<clus scale="   72.110">  2  9  1 -1</clus>
<clus scale="   88.876">  7  8 -1 -1</clus>
<clus scale="   91.508">  5  6 -1 -1</clus>
<clus scale="  181.773">  1  7  2 -1</clus>
<clus scale="   35.697">  2  5  1 -1</clus>
</clustering>
</event>
<event>
10    2  0.3984345E-006  0.9775670E+02  0.7546771E-02  0.1287211E+00
          2   -1    0    0  503    0 -0.00000000000E+00  0.00000000000E+00  0.14695516130E+03  0.14695516130E+03  0.00000000000E+00 0. -1.
         21   -1    0    0  501  502  0.00000000000E+00 -0.00000000000E+00 -0.26855643716E+03  0.26855643716E+03  0.00000000000E+00 0. -1.
         23    2    1    2    0    0  0.44162801571E+01  0.33049098475E+02  0.82599122046E+02  0.12328464073E+03  0.85233451402E+02 0.  0.
         23    2    1    2    0    0 -0.20109961036E+02 -0.24001161838E+02 -0.74443931331E+02  0.12051126041E+03  0.89446065711E+02 0.  0.
        -11    1    4    4    0    0 -0.51439299773E+02 -0.14758298310E+02 -0.20216571222E+02  0.57205932228E+02  0.00000000000E+00 0.  1.
         11    1    4    4    0    0  0.31329338737E+02 -0.92428635275E+01 -0.54227360109E+02  0.63305328182E+02  0.00000000000E+00 0. -1.
        -11    1    3    3    0    0  0.76151731296E+00 -0.28338813210E+02  0.37566312482E+02  0.47062682417E+02  0.00000000000E+00 0. -1.
         11    1    3    3    0    0  0.36547628441E+01  0.61387911685E+02  0.45032809564E+02  0.76221958317E+02  0.00000000000E+00 0.  1.
         21    1    1    2  503  502 -0.29753873757E+02  0.15756288569E+02 -0.18405561865E+01  0.33718559876E+02  0.00000000000E+00 0.  1.
          2    1    1    2  501    0  0.45447554636E+02 -0.24804225206E+02 -0.12791591039E+03  0.13799713744E+03  0.00000000000E+00 0. -1.
<scales pt_clust_5="13000.00000" pt_clust_6="13000.00000" pt_clust_7="13000.00000" pt_clust_8="13000.00000" pt_clust_9="33.66829" pt_clust_10="50.48054"></scales>
<clustering>
<clus scale="   33.668">  1  9  2 -1</clus>
<clus scale="   50.481">  2 10  1 -1</clus>
<clus scale="   85.233">  7  8 -1 -1</clus>
<clus scale="   89.446">  5  6 -1 -1</clus>
<clus scale="   93.918">  1  7  2 -1</clus>
<clus scale="   50.481">  2  5  1 -1</clus>
</clustering>
</event>
<event>
10    2  0.3984345E-006  0.1254687E+03  0.7546771E-02  0.1246983E+00
         21   -1    0    0  501  502  0.00000000000E+00  0.00000000000E+00  0.14897522904E+03  0.14897522904E+03  0.00000000000E+00 0.  1.
          1   -1    0    0  503    0 -0.00000000000E+00 -0.00000000000E+00 -0.39337768037E+03  0.39337768037E+03  0.00000000000E+00 0. -1.
         23    2    1    2    0    0  0.71709060573E+01 -0.21382788164E+02 -0.20540311785E+03  0.22558553636E+03  0.90497225731E+02 0.  0.
         23    2    1    2    0    0 -0.31530718215E+02 -0.69022717854E+02  0.47302996416E+02  0.12773487563E+03  0.91215696082E+02 0.  0.
        -11    1    4    4    0    0 -0.15455350744E+02 -0.82735437708E+02  0.98609829622E+01  0.84742312361E+02  0.00000000000E+00 0. -1.
         11    1    4    4    0    0 -0.16075367471E+02  0.13712719854E+02  0.37442013453E+02  0.42992563270E+02  0.00000000000E+00 0.  1.
        -13    1    3    3    0    0  0.19528405725E+02 -0.48289860957E+02 -0.17718775297E+03  0.18468559528E+03  0.00000000000E+00 0. -1.
         13    1    3    3    0    0 -0.12357499668E+02  0.26907072793E+02 -0.28215364881E+02  0.40899941072E+02  0.00000000000E+00 0.  1.
         21    1    1    2  503  502  0.16482566864E+02 -0.11978329696E+02 -0.83878184725E+02  0.86317467905E+02  0.00000000000E+00 0. -1.
          1    1    1    2  501    0  0.78772452935E+01  0.10238383571E+03 -0.24241451685E+01  0.10271502952E+03  0.00000000000E+00 0. -1.
<scales pt_clust_5="13000.00000" pt_clust_6="13000.00000" pt_clust_7="13000.00000" pt_clust_8="13000.00000" pt_clust_9="20.37536" pt_clust_10="86.15159"></scales>
<clustering>
<clus scale="   20.375">  2  9  1 -1</clus>
<clus scale="   90.497">  7  8 -1 -1</clus>
<clus scale="   91.216">  5  6 -1 -1</clus>
<clus scale="   97.080">  2  7  1 -1</clus>
<clus scale="   86.152">  1 10  2 -1</clus>
<clus scale="   86.152">  1  5  2 -1</clus>
</clustering>
</event>
<event>
10    2  0.3984345E-006  0.1343412E+03  0.7546771E-02  0.1221305E+00
         21   -1    0    0  501  502  0.00000000000E+00  0.00000000000E+00  0.48156744797E+03  0.48156744797E+03  0.00000000000E+00 0. -1.
          3   -1    0    0  503    0 -0.00000000000E+00 -0.00000000000E+00 -0.37331268053E+03  0.37331268053E+03  0.00000000000E+00 0. -1.
         23    2    1    2    0    0 -0.11440448571E+03  0.13135663452E+01 -0.85529537256E+02  0.16987090031E+03  0.91927739122E+02 0.  0.
         23    2    1    2    0    0  0.71770777225E+02 -0.50256658177E+02 -0.12065175228E+03  0.17484192198E+03  0.91302114981E+02 0.  0.
        -11    1    4    4    0    0  0.85596424617E+02 -0.20587319108E+02 -0.62011891014E+02  0.10768500472E+03  0.00000000000E+00 0. -1.
         11    1    4    4    0    0 -0.13825647391E+02 -0.29669339069E+02 -0.58639861264E+02  0.67156917258E+02  0.00000000000E+00 0.  1.
        -13    1    3    3    0    0 -0.86887172531E+02  0.41044647338E+02 -0.42162979860E+02  0.10493693676E+03  0.00000000000E+00 0.  1.
         13    1    3    3    0    0 -0.27517313179E+02 -0.39731080993E+02 -0.43366557397E+02  0.64933963547E+02  0.00000000000E+00 0. -1.
         21    1    1    2  503  502  0.53401797161E+02 -0.12348889938E+02 -0.87604906161E+02  0.10333860172E+03  0.00000000000E+00 0. -1.
          3    1    1    2  501    0 -0.10768088676E+02  0.61291981770E+02  0.40204096313E+03  0.40682870449E+03  0.00000000000E+00 0. -1.
<scales pt_clust_5="13000.00000" pt_clust_6="13000.00000" pt_clust_7="13000.00000" pt_clust_8="13000.00000" pt_clust_9="54.81101" pt_clust_10="62.04781"></scales>
<clustering>
<clus scale="   54.811">  2  9  1 -1</clus>
<clus scale="   62.048">  1 10  2 -1</clus>
<clus scale="   91.302">  5  6 -1 -1</clus>
<clus scale="   91.928">  7  8 -1 -1</clus>
<clus scale="  133.914">  1  5  2 -1</clus>
<clus scale="   62.048">  1  5  2 -1</clus>
</clustering>
</event>
<event>
10    2  0.3984345E-006  0.1689314E+03  0.7546771E-02  0.1200974E+00
         21   -1    0    0  503  502  0.00000000000E+00  0.00000000000E+00  0.91827315915E+02  0.91827315915E+02  0.00000000000E+00 0. -1.
         -1   -1    0    0    0  501 -0.00000000000E+00 -0.00000000000E+00 -0.12320231601E+04  0.12320231601E+04  0.00000000000E+00 0.  1.
         23    2    1    2    0    0 -0.42444830874E-01  0.10838687705E+03 -0.81571292704E+02  0.16216347694E+03  0.88856066429E+02 0.  0.
         23    2    1    2    0    0 -0.24758462841E+02  0.43237145902E+02 -0.17007733642E+02  0.10416701051E+03  0.89883651501E+02 0.  0.
        -11    1    4    4    0    0  0.23481558598E+02 -0.12428093190E+02 -0.14936283283E+02  0.30478412898E+02  0.00000000000E+00 0.  1.
         11    1    4    4    0    0 -0.48240021439E+02  0.55665239092E+02 -0.20714503591E+01  0.73688597613E+02  0.00000000000E+00 0. -1.
        -11    1    3    3    0    0  0.22104524790E+02  0.13581089025E+02 -0.55670706271E+02  0.61418918356E+02  0.00000000000E+00 0.  1.
         11    1    3    3    0    0 -0.22146969621E+02  0.94805788026E+02 -0.25900586433E+02  0.10074455858E+03  0.00000000000E+00 0. -1.
         21    1    1    2  503  501  0.45768469313E+02 -0.14205484546E+03 -0.98728288517E+03  0.99849978831E+03  0.00000000000E+00 0.  1.
         -1    1    1    2    0  502 -0.20967561641E+02 -0.95691774966E+01 -0.54333932673E+02  0.59020200261E+02  0.00000000000E+00 0.  1.
<scales pt_clust_5="13000.00000" pt_clust_6="13000.00000" pt_clust_7="13000.00000" pt_clust_8="13000.00000" pt_clust_9="143.67468" pt_clust_10="23.04796"></scales>
<clustering>
<clus scale="   23.048">  1 10  2 -1</clus>
<clus scale="   88.856">  7  8 -1 -1</clus>
<clus scale="   89.884">  5  6 -1 -1</clus>
<clus scale="  103.876">  1  5  2 -1</clus>
<clus scale="  143.675">  2  9  1 -1</clus>
<clus scale="   23.048">  1  5  2 -1</clus>
</clustering>
</event>
<event>
10    2  0.4247434E-006  0.9507911E+02  0.7546771E-02  0.1292314E+00
          1   -1    0    0  503    0 -0.00000000000E+00  0.00000000000E+00  0.48578919828E+03  0.48578919828E+03  0.00000000000E+00 0. -1.
         21   -1    0    0  501  502  0.00000000000E+00 -0.00000000000E+00 -0.94529039455E+02  0.94529039455E+02  0.00000000000E+00 0. -1.
         23    2    1    2    0    0 -0.48100537934E+02 -0.90088705787E+01  0.34114449139E+03  0.35658042139E+03  0.91516181158E+02 0.  0.
         23    2    1    2    0    0  0.15697535070E+02 -0.20464431942E+02  0.15063659947E+02  0.93986748774E+02  0.89114474201E+02 0.  0.
        -11    1    4    4    0    0  0.11324503056E+02  0.31401012561E+02 -0.11811070356E+02  0.35408605483E+02  0.00000000000E+00 0.  1.
         11    1    4    4    0    0  0.43730320140E+01 -0.51865444503E+02  0.26874730304E+02  0.58578143290E+02  0.00000000000E+00 0. -1.
        -11    1    3    3    0    0  0.20785762103E+02  0.10988964267E+02  0.35133594358E+02  0.42274988993E+02  0.00000000000E+00 0.  1.
         11    1    3    3    0    0 -0.68886300037E+02 -0.19997834845E+02  0.30601089704E+03  0.31430543240E+03  0.00000000000E+00 0. -1.
         21    1    1    2  503  502  0.24550413751E+02  0.22340539838E+01  0.76027926831E+02  0.79924711265E+02  0.00000000000E+00 0. -1.
          1    1    1    2  501    0  0.78525891127E+01  0.27239248537E+02 -0.40975919345E+02  0.49826356307E+02  0.00000000000E+00 0. -1.
<scales pt_clust_5="13000.00000" pt_clust_6="13000.00000" pt_clust_7="13000.00000" pt_clust_8="13000.00000" pt_clust_9="24.65185" pt_clust_10="28.44672"></scales>
<clustering>
<clus scale="   24.652">  1  9  2 -1</clus>
<clus scale="   28.447">  2 10  1 -1</clus>
<clus scale="   89.114">  5  6 -1 -1</clus>
<clus scale="   91.516">  7  8 -1 -1</clus>
<clus scale="   92.770">  2  5  1 -1</clus>
<clus scale="   28.447">  2  5  1 -1</clus>
</clustering>
</event>
<event>
10    2  0.3984345E-006  0.1087155E+03  0.7546771E-02  0.1271404E+00
         21   -1    0    0  503  502  0.00000000000E+00  0.00000000000E+00  0.12114419871E+03  0.12114419871E+03  0.00000000000E+00 0.  1.
         -1   -1    0    0    0  501 -0.00000000000E+00 -0.00000000000E+00 -0.35034240496E+03  0.35034240496E+03  0.00000000000E+00 0.  1.
         23    2    1    2    0    0  0.35197988308E+01  0.30951874680E+02 -0.10593980804E+03  0.15321439091E+03  0.10621204792E+03 0.  0.
         23    2    1    2    0    0 -0.62836851332E+02  0.49816075909E+02 -0.38726331225E+01  0.12009472760E+03  0.89317607484E+02 0.  0.
        -11    1    4    4    0    0 -0.49135118391E+02  0.65692073893E+02 -0.29322429201E+02  0.87117812678E+02  0.00000000000E+00 0.  1.
         11    1    4    4    0    0 -0.13701732941E+02 -0.15875997984E+02  0.25449796078E+02  0.32976914925E+02  0.00000000000E+00 0. -1.
        -13    1    3    3    0    0 -0.34944637353E+02 -0.14126867543E+02 -0.80182455377E+02  0.88599786775E+02  0.00000000000E+00 0. -1.
         13    1    3    3    0    0  0.38464436184E+02  0.45078742223E+02 -0.25757352664E+02  0.64614604135E+02  0.00000000000E+00 0.  1.
         21    1    1    2  503  501 -0.17184169222E+01 -0.44394130693E+02 -0.11910905201E+03  0.12712497027E+03  0.00000000000E+00 0.  1.
         -1    1    1    2    0  502  0.61035469423E+02 -0.36373819896E+02 -0.27671307865E+00  0.71052514886E+02  0.00000000000E+00 0.  1.
<scales pt_clust_5="13000.00000" pt_clust_6="13000.00000" pt_clust_7="13000.00000" pt_clust_8="13000.00000" pt_clust_9="44.42738" pt_clust_10="74.63905"></scales>
<clustering>
<clus scale="   44.427">  2  9  1 -1</clus>
<clus scale="   74.639">  1 10  2 -1</clus>
<clus scale="   89.318">  5  6 -1 -1</clus>
<clus scale="   92.281">  1  5  2 -1</clus>
<clus scale="  106.212">  7  8 -1 -1</clus>
<clus scale="   74.639">  1  5  2 -1</clus>
</clustering>
</event>
<event>
10    2  0.3984345E-006  0.9836190E+02  0.7546771E-02  0.1284789E+00
          2   -1    0    0  503    0 -0.00000000000E+00  0.00000000000E+00  0.31258528092E+03  0.31258528092E+03  0.00000000000E+00 0. -1.
         21   -1    0    0  501  502  0.00000000000E+00 -0.00000000000E+00 -0.66380482133E+02  0.66380482133E+02  0.00000000000E+00 0.  1.
         23    2    1    2    0    0  0.18675284311E+02 -0.12791619251E+02  0.11191317140E+03  0.14572726018E+03  0.90551005837E+02 0.  0.
         23    2    1    2    0    0 -0.40299272293E+02  0.19003846783E+02  0.13481019958E+03  0.16947239798E+03  0.92530677218E+02 0.  0.
        -11    1    4    4    0    0 -0.24136806106E+02  0.54051129470E+02  0.54921203035E+02  0.80749294417E+02  0.00000000000E+00 0.  1.
         11    1    4    4    0    0 -0.16162466188E+02 -0.35047282686E+02  0.79888996548E+02  0.88723103566E+02  0.00000000000E+00 0. -1.
        -13    1    3    3    0    0 -0.26707808771E+02  0.22733769953E+02  0.50724734227E+02  0.61669522521E+02  0.00000000000E+00 0.  1.
         13    1    3    3    0    0  0.45383093082E+02 -0.35525389204E+02  0.61188437174E+02  0.84057737655E+02  0.00000000000E+00 0. -1.
         21    1    1    2  503  502  0.40704678837E+02  0.25214768679E+01  0.71878070345E+01  0.41411270142E+02  0.00000000000E+00 0. -1.
          2    1    1    2  501    0 -0.19080690855E+02 -0.87337044000E+01 -0.77063792298E+01  0.22354834754E+02  0.00000000000E+00 0. -1.
<scales pt_clust_5="13000.00000" pt_clust_6="13000.00000" pt_clust_7="13000.00000" pt_clust_8="13000.00000" pt_clust_9="34.34847" pt_clust_10="20.98453"></scales>
<clustering>
<clus scale="   20.985">  2 10  1 -1</clus>
<clus scale="   34.348">  2  9  1 -1</clus>
<clus scale="   90.551">  7  8 -1 -1</clus>
<clus scale="   92.531">  5  6 -1 -1</clus>
<clus scale="   96.502">  1  7  2 -1</clus>
<clus scale="   20.985">  2  5  1 -1</clus>
</clustering>
</event>
<event>
10    2  0.3984345E-006  0.1192297E+03  0.7546771E-02  0.1247962E+00
         21   -1    0    0  501  502  0.00000000000E+00  0.00000000000E+00  0.15336858325E+03  0.15336858325E+03  0.00000000000E+00 0. -1.
          2   -1    0    0  503    0 -0.00000000000E+00 -0.00000000000E+00 -0.70591600818E+03  0.70591600818E+03  0.00000000000E+00 0. -1.
         23    2    1    2    0    0  0.42687591267E+02  0.61639946666E+02 -0.17541916337E+03  0.21593791047E+03  0.10117106714E+03 0.  0.
         23    2    1    2    0    0  0.70910052579E+02 -0.51577900295E+02 -0.82585109554E+02  0.15110964616E+03  0.91243133914E+02 0.  0.
        -11    1    4    4    0    0 -0.21289331269E+02 -0.19602816181E+02 -0.20010622446E+02  0.35184244184E+02  0.00000000000E+00 0.  1.
         11    1    4    4    0    0  0.92199383848E+02 -0.31975084114E+02 -0.62574487107E+02  0.11592540197E+03  0.00000000000E+00 0. -1.
        -13    1    3    3    0    0 -0.33387761940E+02  0.15480060828E+02 -0.56031076102E+02  0.67036232142E+02  0.00000000000E+00 0.  1.
         13    1    3    3    0    0  0.76075353206E+02  0.46159885839E+02 -0.11938808727E+03  0.14890167833E+03  0.00000000000E+00 0. -1.
         21    1    1    2  503  502 -0.68928592830E+02  0.14941605672E+02 -0.38332216309E+03  0.38975669745E+03  0.00000000000E+00 0.  1.
          2    1    1    2  501    0 -0.44669051015E+02 -0.25003652044E+02  0.88779011088E+02  0.10248033735E+03  0.00000000000E+00 0. -1.
<scales pt_clust_5="13000.00000" pt_clust_6="13000.00000" pt_clust_7="13000.00000" pt_clust_8="13000.00000" pt_clust_9="72.69134" pt_clust_10="51.19089"></scales>
<clustering>
<clus scale="   51.191">  1 10  2 -1</clus>
<clus scale="   72.691">  2  9  1 -1</clus>
<clus scale="   91.243">  5  6 -1 -1</clus>
<clus scale="  101.171">  7  8 -1 -1</clus>
<clus scale="  110.930">  1  5  2 -1</clus>
<clus scale="   51.191">  1  5  2 -1</clus>
</clustering>
</event>
<event>
10    2  0.3984345E-006  0.1196962E+03  0.7546771E-02  0.1243885E+00
         -4   -1    0    0    0  501 -0.00000000000E+00  0.00000000000E+00  0.47004307518E+03  0.47004307518E+03  0.00000000000E+00 0.  1.
         21   -1    0    0  503  502  0.00000000000E+00 -0.00000000000E+00 -0.13599065295E+03  0.13599065295E+03  0.00000000000E+00 0.  1.
         23    2    1    2    0    0 -0.48459007373E+02 -0.51985754831E+02  0.16399430453E+03  0.20110230171E+03  0.92180311001E+02 0.  0.
         23    2    1    2    0    0 -0.31473739986E+02  0.11352846411E+03 -0.34038298470E+01  0.15017476635E+03  0.93067534188E+02 0.  0.
        -13    1    3    3    0    0 -0.43975386690E+02  0.86404510624E+01  0.11366230445E+03  0.12217860485E+03  0.00000000000E+00 0. -1.
         13    1    3    3    0    0 -0.44836206832E+01 -0.60626205893E+02  0.50332000074E+02  0.78923696865E+02  0.00000000000E+00 0.  1.
        -13    1    4    4    0    0  0.25581485665E+02  0.74463649750E+02  0.11125437173E+02  0.79517437680E+02  0.00000000000E+00 0.  1.
         13    1    4    4    0    0 -0.57055225651E+02  0.39064814359E+02 -0.14529267020E+02  0.70657328673E+02  0.00000000000E+00 0. -1.
         21    1    1    2  503  501  0.51304338667E+02 -0.18875805807E+02  0.19238531175E+03  0.20000134846E+03  0.00000000000E+00 0.  1.
         -4    1    1    2    0  502  0.28628408691E+02 -0.42666903471E+02 -0.18923364203E+02  0.54755311603E+02  0.00000000000E+00 0.  1.
<scales pt_clust_5="13000.00000" pt_clust_6="13000.00000" pt_clust_7="13000.00000" pt_clust_8="13000.00000" pt_clust_9="56.27616" pt_clust_10="51.38142"></scales>
<clustering>
<clus scale="   51.381">  2 10  1 -1</clus>
<clus scale="   56.276">  1  9  2 -1</clus>
<clus scale="   92.180">  5  6 -1 -1</clus>
<clus scale="   93.068">  7  8 -1 -1</clus>
<clus scale="  119.008">  1  5  2 -1</clus>
<clus scale="   51.381">  2  5  1 -1</clus>
</clustering>
</event>
<event>
10    2  0.3984345E-006  0.1034315E+03  0.7546771E-02  0.1273869E+00
         21   -1    0    0  503  502  0.00000000000E+00  0.00000000000E+00  0.12105294548E+03  0.12105294548E+03  0.00000000000E+00 0. -1.
         -1   -1    0    0    0  501 -0.00000000000E+00 -0.00000000000E+00 -0.25665552693E+03  0.25665552693E+03  0.00000000000E+00 0.  1.
         23    2    1    2    0    0 -0.53982413820E+02 -0.36636829073E+02 -0.12985103973E+03  0.17174406906E+03  0.91533461040E+02 0.  0.
         23    2    1    2    0    0  0.79459533531E+01  0.33173646011E+02  0.51182178168E+02  0.10911695329E+03  0.90129158265E+02 0.  0.
        -11    1    4    4    0    0  0.36403510804E+02 -0.47351454398E+01  0.49576149110E+02  0.61688181702E+02  0.00000000000E+00 0.  1.
         11    1    4    4    0    0 -0.28457557450E+02  0.37908791450E+02  0.16060290580E+01  0.47428771591E+02  0.00000000000E+00 0. -1.
        -11    1    3    3    0    0 -0.52936607180E+02  0.15892016777E+02 -0.90731639246E+02  0.10624062753E+03  0.00000000000E+00 0. -1.
         11    1    3    3    0    0 -0.10458066404E+01 -0.52528845850E+02 -0.39119400488E+02  0.65503441531E+02  0.00000000000E+00 0.  1.
         21    1    1    2  503  501  0.24126755885E+02 -0.30020273230E+01 -0.67450942875E+02  0.71698969395E+02  0.00000000000E+00 0.  1.
         -1    1    1    2    0  502  0.21909704582E+02  0.64652103859E+01  0.10517222996E+02  0.25148480665E+02  0.00000000000E+00 0.  1.
<scales pt_clust_5="13000.00000" pt_clust_6="13000.00000" pt_clust_7="13000.00000" pt_clust_8="13000.00000" pt_clust_9="24.74449" pt_clust_10="22.84369"></scales>
<clustering>
<clus scale="   22.844">  1 10  2 -1</clus>
<clus scale="   24.744">  2  9  1 -1</clus>
<clus scale="   90.129">  5  6 -1 -1</clus>
<clus scale="   91.533">  7  8 -1 -1</clus>
<clus scale="  102.191">  1  5  2 -1</clus>
<clus scale="   22.844">  1  5  2 -1</clus>
</clustering>
</event>
<event>
10    2  0.3984345E-006  0.2580554E+03  0.7546771E-02  0.1108451E+00
          2   -1    0    0  503    0 -0.00000000000E+00  0.00000000000E+00  0.18099562491E+04  0.18099562491E+04  0.00000000000E+00 0. -1.
         21   -1    0    0  501  502  0.00000000000E+00 -0.00000000000E+00 -0.74287480871E+02  0.74287480871E+02  0.00000000000E+00 0. -1.
         23    2    1    2    0    0  0.40602849377E+02 -0.20940460254E+03  0.10375706853E+04  0.10631777533E+04  0.91077599719E+02 0.  0.
         23    2    1    2    0    0 -0.10163086018E+03  0.25044279397E+03  0.57580229083E+03  0.64292175047E+03  0.93539693753E+02 0.  0.
        -11    1    3    3    0    0 -0.26710048030E+02 -0.96372277284E+02  0.47817217242E+03  0.48851782871E+03  0.00000000000E+00 0.  1.
         11    1    3    3    0    0  0.67312897407E+02 -0.11303232526E+03  0.55939851291E+03  0.57465992461E+03  0.00000000000E+00 0. -1.
        -13    1    4    4    0    0 -0.21204735994E+02  0.33747453902E+02  0.29049794769E+02  0.49319590930E+02  0.00000000000E+00 0.  1.
         13    1    4    4    0    0 -0.80426124187E+02  0.21669534007E+03  0.54675249607E+03  0.59360215954E+03  0.00000000000E+00 0. -1.
         21    1    1    2  503  502 -0.41047373662E+00 -0.32221899165E+02  0.11032200379E+03  0.11493199639E+03  0.00000000000E+00 0.  1.
          2    1    1    2  501    0  0.61438484540E+02 -0.88162922645E+01  0.11973788313E+02  0.63212229817E+02  0.00000000000E+00 0. -1.
<scales pt_clust_5="13000.00000" pt_clust_6="13000.00000" pt_clust_7="13000.00000" pt_clust_8="13000.00000" pt_clust_9="32.22451" pt_clust_10="62.16422"></scales>
<clustering>
<clus scale="   32.225">  1  9  2 -1</clus>
<clus scale="   62.164">  2 10  1 -1</clus>
<clus scale="   91.078">  5  6 -1 -1</clus>
<clus scale="   93.540">  7  8 -1 -1</clus>
<clus scale="  257.173">  1  5  2 -1</clus>
<clus scale="   62.164">  2  5  1 -1</clus>
</clustering>
</event>
<event>
10    2  0.3984345E-006  0.1536429E+03  0.7546771E-02  0.1197698E+00
         21   -1    0    0  501  502  0.00000000000E+00  0.00000000000E+00  0.37633225998E+03  0.37633225998E+03  0.00000000000E+00 0.  1.
          1   -1    0    0  503    0 -0.00000000000E+00 -0.00000000000E+00 -0.11226135958E+03  0.11226135958E+03  0.00000000000E+00 0. -1.
         23    2    1    2    0    0  0.56400604248E+02 -0.13246900787E+03  0.59754885065E+02  0.18512862321E+03  0.99864381224E+02 0.  0.
         23    2    1    2    0    0 -0.65077202682E+02  0.73893502160E+02  0.85287013036E+02  0.15911773982E+03  0.91374441510E+02 0.  0.
        -11    1    4    4    0    0 -0.65668049089E+02  0.15539923881E+02  0.17583160783E+02  0.69734851032E+02  0.00000000000E+00 0.  1.
         11    1    4    4    0    0  0.59084640696E+00  0.58353578279E+02  0.67703852253E+02  0.89382888784E+02  0.00000000000E+00 0. -1.
        -11    1    3    3    0    0  0.19392019033E+02 -0.39368805819E+02 -0.27905149637E+02  0.52006255874E+02  0.00000000000E+00 0. -1.
         11    1    3    3    0    0  0.37008585215E+02 -0.93100202049E+02  0.87660034701E+02  0.13312236734E+03  0.00000000000E+00 0.  1.
         21    1    1    2  503  502 -0.13477913375E+02  0.28101963885E+02  0.16821008305E+02  0.35416392300E+02  0.00000000000E+00 0.  1.
          1    1    1    2  501    0  0.22154511809E+02  0.30473541822E+02  0.10220799400E+03  0.10893086423E+03  0.00000000000E+00 0. -1.
<scales pt_clust_5="13000.00000" pt_clust_6="13000.00000" pt_clust_7="13000.00000" pt_clust_8="13000.00000" pt_clust_9="31.16688" pt_clust_10="38.16953"></scales>
<clustering>
<clus scale="   31.167">  2  9  1 -1</clus>
<clus scale="   38.170">  1 10  2 -1</clus>
<clus scale="   91.374">  5  6 -1 -1</clus>
<clus scale="   99.864">  7  8 -1 -1</clus>
<clus scale="  148.265">  1  5  2 -1</clus>
<clus scale="   38.170">  1  5  2 -1</clus>
</clustering>
</event>
<event>
10    2  0.3984345E-006  0.9551219E+02  0.7546771E-02  0.1290654E+00
          1   -1    0    0  503    0 -0.00000000000E+00  0.00000000000E+00  0.17153021153E+03  0.17153021153E+03  0.00000000000E+00 0. -1.
         21   -1    0    0  501  502  0.00000000000E+00 -0.00000000000E+00 -0.11723307340E+03  0.11723307340E+03  0.00000000000E+00 0. -1.
         23    2    1    2    0    0  0.23315025518E+02  0.18745647631E+02  0.13382891872E+02  0.96246259642E+02  0.90494480385E+02 0.  0.
         23    2    1    2    0    0  0.65540878622E+01 -0.31655755844E+02 -0.66921759141E+01  0.97421757804E+02  0.91657900529E+02 0.  0.
        -13    1    3    3    0    0 -0.33403519989E+02 -0.47310439473E+01  0.76541590456E+01  0.34594278070E+02  0.00000000000E+00 0. -1.
         13    1    3    3    0    0  0.56718545507E+02  0.23476691578E+02  0.57287328269E+01  0.61651981572E+02  0.00000000000E+00 0.  1.
        -13    1    4    4    0    0  0.46637450382E+02 -0.36398910546E+01  0.52733700075E+01  0.47075567084E+02  0.00000000000E+00 0.  1.
         13    1    4    4    0    0 -0.40083362520E+02 -0.28015864789E+02 -0.11965545922E+02  0.50346190720E+02  0.00000000000E+00 0. -1.
         21    1    1    2  503  502 -0.52601934868E+02  0.21137790103E+02  0.41214702519E+02  0.70088668314E+02  0.00000000000E+00 0. -1.
          1    1    1    2  501    0  0.22732821488E+02 -0.82276818902E+01  0.63917196520E+01  0.25006599173E+02  0.00000000000E+00 0. -1.
<scales pt_clust_5="13000.00000" pt_clust_6="13000.00000" pt_clust_7="13000.00000" pt_clust_8="13000.00000" pt_clust_9="53.45824" pt_clust_10="24.17595"></scales>
<clustering>
<clus scale="   24.176">  2 10  1 -1</clus>
<clus scale="   53.458">  1  9  2 -1</clus>
<clus scale="   90.494">  5  6 -1 -1</clus>
<clus scale="   91.658">  7  8 -1 -1</clus>
<clus scale="   94.396">  1  5  2 -1</clus>
<clus scale="   24.176">  2  5  1 -1</clus>
</clustering>
</event>
<event>
10    2  0.3984345E-006  0.9832590E+02  0.7546771E-02  0.1284232E+00
          2   -1    0    0  503    0 -0.00000000000E+00  0.00000000000E+00  0.79921508628E+02  0.79921508628E+02  0.00000000000E+00 0. -1.
         21   -1    0    0  501  502  0.00000000000E+00 -0.00000000000E+00 -0.34489852881E+03  0.34489852881E+03  0.00000000000E+00 0.  1.
         23    2    1    2    0    0  0.27200069054E+02 -0.26680954596E+01  0.37612231330E+01  0.95890628738E+02  0.91836285804E+02 0.  0.
         23    2    1    2    0    0 -0.10682184609E+02  0.19112497420E+02 -0.17063431152E+03  0.19536027250E+03  0.92575219028E+02 0.  0.
        -13    1    4    4    0    0 -0.14563389762E+02 -0.36060397083E+02 -0.57316183343E+02  0.69264633343E+02  0.00000000000E+00 0. -1.
         13    1    4    4    0    0  0.38812051527E+01  0.55172894502E+02 -0.11331812817E+03  0.12609563916E+03  0.00000000000E+00 0.  1.
        -13    1    3    3    0    0  0.38119189636E+02 -0.36642389251E+02  0.20198185145E+02  0.56601271997E+02  0.00000000000E+00 0. -1.
         13    1    3    3    0    0 -0.10919120582E+02  0.33974293791E+02 -0.16436962012E+02  0.39289356741E+02  0.00000000000E+00 0.  1.
         21    1    1    2  503  502 -0.16123434487E+01 -0.33964995578E+02 -0.12555620911E+01  0.34026416388E+02  0.00000000000E+00 0. -1.
          2    1    1    2  501    0 -0.14905540996E+02  0.17520593618E+02 -0.96848369703E+02  0.99542719810E+02  0.00000000000E+00 0. -1.
<scales pt_clust_5="13000.00000" pt_clust_6="13000.00000" pt_clust_7="13000.00000" pt_clust_8="13000.00000" pt_clust_9="32.82160" pt_clust_10="23.00318"></scales>
<clustering>
<clus scale="   23.003">  2 10  1 -1</clus>
<clus scale="   32.822">  1  9  2 -1</clus>
<clus scale="   91.836">  7  8 -1 -1</clus>
<clus scale="   92.575">  5  6 -1 -1</clus>
<clus scale="   97.631">  1  7  2 -1</clus>
<clus scale="   23.003">  2  5  1 -1</clus>
</clustering>
</event>
<event>
10    2  0.3984345E-006  0.1060883E+03  0.7546771E-02  0.1269641E+00
          1   -1    0    0  503    0 -0.00000000000E+00  0.00000000000E+00  0.42675570860E+03  0.42675570860E+03  0.00000000000E+00 0. -1.
         21   -1    0    0  501  502  0.00000000000E+00 -0.00000000000E+00 -0.21370247204E+03  0.21370247204E+03  0.00000000000E+00 0. -1.
         23    2    1    2    0    0  0.87763017153E+02 -0.65468350571E+02  0.12530018920E+03  0.19036809795E+03  0.92473905482E+02 0.  0.
         23    2    1    2    0    0 -0.28524189477E+02  0.20659607051E+02 -0.10361369849E+03  0.14082005282E+03  0.88623021918E+02 0.  0.
        -13    1    3    3    0    0  0.54559999870E+02  0.28186300204E+01  0.15352202309E+02  0.56748818285E+02  0.00000000000E+00 0.  1.
         13    1    3    3    0    0  0.33203017283E+02 -0.68286980591E+02  0.10994798690E+03  0.13361927966E+03  0.00000000000E+00 0. -1.
        -13    1    4    4    0    0  0.17334612215E+02  0.39063845193E+02 -0.66382177433E+02  0.78949770504E+02  0.00000000000E+00 0.  1.
         13    1    4    4    0    0 -0.45858801692E+02 -0.18404238141E+02 -0.37231521055E+02  0.61870282319E+02  0.00000000000E+00 0. -1.
         21    1    1    2  503  502 -0.67990827624E+02  0.20612164857E+02  0.24214070776E+03  0.25234844231E+03  0.00000000000E+00 0. -1.
          1    1    1    2  501    0  0.87519999478E+01  0.24196578662E+02 -0.50773961911E+02  0.56921587559E+02  0.00000000000E+00 0. -1.
<scales pt_clust_5="13000.00000" pt_clust_6="13000.00000" pt_clust_7="13000.00000" pt_clust_8="13000.00000" pt_clust_9="71.00802" pt_clust_10="25.73076"></scales>
<clustering>
<clus scale="   25.731">  2 10  1 -1</clus>
<clus scale="   71.008">  1  9  2 -1</clus>
<clus scale="   88.623">  7  8 -1 -1</clus>
<clus scale="   92.474">  5  6 -1 -1</clus>
<clus scale="  102.749">  2  7  1 -1</clus>
<clus scale="   25.731">  2  5  1 -1</clus>
</clustering>
</event>
<event>
10    2  0.3984345E-006  0.2457879E+03  0.7546771E-02  0.1145346E+00
         21   -1    0    0  501  502  0.00000000000E+00  0.00000000000E+00  0.34627777822E+03  0.34627777822E+03  0.00000000000E+00 0. -1.
          4   -1    0    0  503    0 -0.00000000000E+00 -0.00000000000E+00 -0.78328974609E+03  0.78328974609E+03  0.00000000000E+00 0. -1.
         23    2    1    2    0    0  0.13651037536E+02  0.73440678919E+02 -0.13790040413E+03  0.18233809053E+03  0.93009535292E+02 0.  0.
         23    2    1    2    0    0 -0.19917580305E+03  0.65369456239E+02 -0.54713225969E+03  0.59373562190E+03  0.96042244843E+02 0.  0.
        -13    1    4    4    0    0 -0.43540024942E+02  0.41638511975E+02 -0.25350223459E+03  0.26056262663E+03  0.00000000000E+00 0.  1.
         13    1    4    4    0    0 -0.15563577811E+03  0.23730944264E+02 -0.29363002510E+03  0.33317299528E+03  0.00000000000E+00 0. -1.
        -13    1    3    3    0    0 -0.88196778871E+01  0.53525406930E+02 -0.14202300072E+03  0.15203055166E+03  0.00000000000E+00 0.  1.
         13    1    3    3    0    0  0.22470715423E+02  0.19915271989E+02  0.41225965900E+01  0.30307538875E+02  0.00000000000E+00 0. -1.
         21    1    1    2  503  502  0.16464894746E+03 -0.14150469555E+03  0.17913634455E+03  0.28146524599E+03  0.00000000000E+00 0. -1.
          4    1    1    2  501    0  0.20875818055E+02  0.26945603952E+01  0.68884351395E+02  0.72028565877E+02  0.00000000000E+00 0. -1.
<scales pt_clust_5="13000.00000" pt_clust_6="13000.00000" pt_clust_7="13000.00000" pt_clust_8="13000.00000" pt_clust_9="226.24674" pt_clust_10="21.04900"></scales>
<clustering>
<clus scale="   21.049">  1 10  2 -1</clus>
<clus scale="   93.010">  7  8 -1 -1</clus>
<clus scale="   96.042">  5  6 -1 -1</clus>
<clus scale="  119.630">  2  7  1 -1</clus>
<clus scale="  226.247">  1  9  2 -1</clus>
<clus scale="   21.049">  1  5  2 -1</clus>
</clustering>
</event>
<event>
10    2  0.3984345E-006  0.2304293E+03  0.7546771E-02  0.1126420E+00
         21   -1    0    0  503  502  0.00000000000E+00  0.00000000000E+00  0.33294313202E+03  0.33294313202E+03  0.00000000000E+00 0.  1.
         -1   -1    0    0    0  501 -0.00000000000E+00 -0.00000000000E+00 -0.26241974087E+03  0.26241974087E+03  0.00000000000E+00 0.  1.
         23    2    1    2    0    0 -0.20772346649E+03  0.95768345635E+01 -0.43989980418E+02  0.23152530782E+03  0.91804659433E+02 0.  0.
         23    2    1    2    0    0  0.20822095228E+03  0.85785923353E+00  0.14668418470E+03  0.27034478671E+03  0.90627549717E+02 0.  0.
        -11    1    4    4    0    0  0.36054860374E+02 -0.28072556872E+02  0.59045529907E+01  0.46074777828E+02  0.00000000000E+00 0. -1.
         11    1    4    4    0    0  0.17216609190E+03  0.28930416105E+02  0.14077963171E+03  0.22427000888E+03  0.00000000000E+00 0.  1.
        -13    1    3    3    0    0 -0.14369506848E+03 -0.18568070452E+02  0.68611595230E+01  0.14505213358E+03  0.00000000000E+00 0.  1.
         13    1    3    3    0    0 -0.64028398005E+02  0.28144905015E+02 -0.50851139941E+02  0.86473174237E+02  0.00000000000E+00 0. -1.
         21    1    1    2  503  501 -0.10104716265E+02 -0.43355935327E+02 -0.38214150879E+02  0.58669956078E+02  0.00000000000E+00 0.  1.
         -1    1    1    2    0  502  0.96072304721E+01  0.32921241530E+02  0.60433377406E+01  0.34822822290E+02  0.00000000000E+00 0.  1.
<scales pt_clust_5="13000.00000" pt_clust_6="13000.00000" pt_clust_7="13000.00000" pt_clust_8="13000.00000" pt_clust_9="43.39723" pt_clust_10="34.29442"></scales>
<clustering>
<clus scale="   34.294">  1 10  2 -1</clus>
<clus scale="   43.397">  2  9  1 -1</clus>
<clus scale="   90.628">  5  6 -1 -1</clus>
<clus scale="   91.805">  7  8 -1 -1</clus>
<clus scale="  229.963">  1  5  2 -1</clus>
<clus scale="   34.294">  1  5  2 -1</clus>
</clustering>
</event>
<event>
10    2  0.3984345E-006  0.2647945E+03  0.7546771E-02  0.1104581E+00
         21   -1    0    0  501  502  0.00000000000E+00  0.00000000000E+00  0.48822389281E+02  0.48822389281E+02  0.00000000000E+00 0.  1.
          1   -1    0    0  503    0 -0.00000000000E+00 -0.00000000000E+00 -0.20977045350E+04  0.20977045350E+04  0.00000000000E+00 0. -1.
         23    2    1    2    0    0 -0.49431109091E+02  0.23060967471E+03 -0.10047926634E+04  0.10366135639E+04  0.96618465078E+02 0.  0.
         23    2    1    2    0    0  0.14045697315E+02 -0.26648680849E+03 -0.70265265149E+03  0.75713093630E+03  0.91181167729E+02 0.  0.
        -11    1    4    4    0    0 -0.30125395442E+01 -0.25478601937E+03 -0.68135825092E+03  0.72744350788E+03  0.00000000000E+00 0.  1.
         11    1    4    4    0    0  0.17058236859E+02 -0.11700789115E+02 -0.21294400576E+02  0.29687428426E+02  0.00000000000E+00 0. -1.
        -13    1    3    3    0    0  0.24434938924E+02  0.21180481282E+02 -0.10827281299E+03  0.11299858875E+03  0.00000000000E+00 0.  1.
         13    1    3    3    0    0 -0.73866048015E+02  0.20942919343E+03 -0.89651985043E+03  0.92361497515E+03  0.00000000000E+00 0. -1.
         21    1    1    2  503  502  0.19042998695E+02 -0.19944518086E+02 -0.71125349035E+02  0.76283909681E+02  0.00000000000E+00 0. -1.
          1    1    1    2  501    0  0.16342413081E+02  0.55821651865E+02 -0.27031148174E+03  0.27649851436E+03  0.00000000000E+00 0. -1.
<scales pt_clust_5="13000.00000" pt_clust_6="13000.00000" pt_clust_7="13000.00000" pt_clust_8="13000.00000" pt_clust_9="27.57571" pt_clust_10="57.26446"></scales>
<clustering>
<clus scale="   27.576">  1  9  2 -1</clus>
<clus scale="   57.264">  1 10  2 -1</clus>
<clus scale="   91.181">  5  6 -1 -1</clus>
<clus scale="   96.618">  7  8 -1 -1</clus>
<clus scale="  262.859">  1  5  2 -1</clus>
<clus scale="   27.576">  1  5  2 -1</clus>
</clustering>
</event>
<event>
10    2  0.3984345E-006  0.9342871E+02  0.7546771E-02  0.1301927E+00
         21   -1    0    0  503  502  0.00000000000E+00  0.00000000000E+00  0.28706258172E+03  0.28706258172E+03  0.00000000000E+00 0.  1.
         -3   -1    0    0    0  501 -0.00000000000E+00 -0.00000000000E+00 -0.41673223544E+03  0.41673223544E+03  0.00000000000E+00 0.  1.
         23    2    1    2    0    0  0.15436141273E+02 -0.27214971732E+02 -0.26926087570E+03  0.28548052606E+03  0.89547654536E+02 0.  0.
         23    2    1    2    0    0  0.34233301918E+01  0.21389369906E+02 -0.93594285026E+02  0.12334829593E+03  0.77367225528E+02 0.  0.
        -11    1    4    4    0    0 -0.22655204280E+01  0.42818966911E+02 -0.21589728844E+02  0.48007425485E+02  0.00000000000E+00 0. -1.
         11    1    4    4    0    0  0.56888506198E+01 -0.21429597005E+02 -0.72004556182E+02  0.75340870450E+02  0.00000000000E+00 0.  1.
        -13    1    3    3    0    0  0.26478599233E+02  0.27278068534E+02 -0.87394838760E+02  0.95305126212E+02  0.00000000000E+00 0. -1.
         13    1    3    3    0    0 -0.11042457960E+02 -0.54493040266E+02 -0.18186603694E+03  0.19017539985E+03  0.00000000000E+00 0.  1.
         21    1    1    2  503  501  0.45540044565E+02 -0.31979714919E+02  0.61753398545E+01  0.55988683210E+02  0.00000000000E+00 0.  1.
         -3    1    1    2    0  502 -0.64399516030E+02  0.37805316745E+02  0.22701016715E+03  0.23897731196E+03  0.00000000000E+00 0.  1.
<scales pt_clust_5="13000.00000" pt_clust_6="13000.00000" pt_clust_7="13000.00000" pt_clust_8="13000.00000" pt_clust_9="55.64708" pt_clust_10="24.54174"></scales>
<clustering>
<clus scale="   55.647">  1  9  2 -1</clus>
<clus scale="   24.542">  1 10  2 -1</clus>
<clus scale="   77.367">  5  6 -1 -1</clus>
<clus scale="   81.828">  1  5  2 -1</clus>
<clus scale="   89.548">  7  8 -1 -1</clus>
<clus scale="   55.647">  1  5  2 -1</clus>
</clustering>
</event>
<event>
10    2  0.3984345E-006  0.1812438E+03  0.7546771E-02  0.1167993E+00
         21   -1    0    0  501  502  0.00000000000E+00  0.00000000000E+00  0.46952422157E+03  0.46952422157E+03  0.00000000000E+00 0.  1.
          2   -1    0    0  503    0 -0.00000000000E+00 -0.00000000000E+00 -0.37341103867E+03  0.37341103867E+03  0.00000000000E+00 0. -1.
         23    2    1    2    0    0  0.59232111137E+02 -0.17340496071E+03 -0.14308126066E+03  0.25409564263E+03  0.10254084583E+03 0.  0.
         23    2    1    2    0    0 -0.10714806108E+03  0.10275458568E+03  0.13047327883E+03  0.21805185272E+03  0.92109294407E+02 0.  0.
        -11    1    3    3    0    0  0.35779806019E+02 -0.16738304002E+03 -0.15137781060E+03  0.22850058675E+03  0.00000000000E+00 0. -1.
         11    1    3    3    0    0  0.23452305119E+02 -0.60219206893E+01  0.82965499432E+01  0.25595055873E+02  0.00000000000E+00 0.  1.
        -13    1    4    4    0    0 -0.95939064050E+00  0.51932561206E+02  0.65477040101E+02  0.83577234486E+02  0.00000000000E+00 0. -1.
         13    1    4    4    0    0 -0.10618867044E+03  0.50822024473E+02  0.64996238724E+02  0.13447461823E+03  0.00000000000E+00 0.  1.
         21    1    1    2  503  502 -0.17303827065E+02  0.35884095887E+02 -0.12209374541E+03  0.12842886528E+03  0.00000000000E+00 0. -1.
          2    1    1    2  501    0  0.65219777006E+02  0.34766279144E+02  0.23081491014E+03  0.24235889961E+03  0.00000000000E+00 0. -1.
<scales pt_clust_5="13000.00000" pt_clust_6="13000.00000" pt_clust_7="13000.00000" pt_clust_8="13000.00000" pt_clust_9="39.83831" pt_clust_10="73.95072"></scales>
<clustering>
<clus scale="   39.838">  2  9  1 -1</clus>
<clus scale="   73.951">  1 10  2 -1</clus>
<clus scale="   92.109">  7  8 -1 -1</clus>
<clus scale="  102.541">  5  6 -1 -1</clus>
<clus scale="  175.553">  1  7  2 -1</clus>
<clus scale="   73.951">  1  5  2 -1</clus>
</clustering>
</event>
<event>
10    2  0.3984345E-006  0.1078349E+03  0.7546771E-02  0.1266141E+00
         -1   -1    0    0    0  501 -0.00000000000E+00  0.00000000000E+00  0.42962151705E+03  0.42962151705E+03  0.00000000000E+00 0.  1.
         21   -1    0    0  503  502  0.00000000000E+00 -0.00000000000E+00 -0.10400572920E+03  0.10400572920E+03  0.00000000000E+00 0.  1.
         23    2    1    2    0    0 -0.66311551579E+01 -0.60189643144E+02  0.28144087484E+03  0.30290669004E+03  0.94216407704E+02 0.  0.
         23    2    1    2    0    0 -0.20972541971E+02  0.32262837401E+02  0.83993441589E+02  0.12941592518E+03  0.90624749749E+02 0.  0.
        -11    1    3    3    0    0  0.41267850117E+02 -0.46372379938E+02  0.16137762426E+03  0.17290509156E+03  0.00000000000E+00 0.  1.
         11    1    3    3    0    0 -0.47899005275E+02 -0.13817263206E+02  0.12006325058E+03  0.13000159848E+03  0.00000000000E+00 0. -1.
        -13    1    4    4    0    0 -0.30843451536E+02 -0.13271439985E+02  0.24366051724E+00  0.33578400683E+02  0.00000000000E+00 0.  1.
         13    1    4    4    0    0  0.98709095652E+01  0.45534277387E+02  0.83749781072E+02  0.95837524501E+02  0.00000000000E+00 0. -1.
         21    1    1    2  503  501  0.21344850077E+02 -0.45400536918E+01  0.22132866779E+02  0.31081803425E+02  0.00000000000E+00 0. -1.
         -1    1    1    2    0  502  0.62588470523E+01  0.32466859434E+02 -0.61951395359E+02  0.70222827591E+02  0.00000000000E+00 0.  1.
<scales pt_clust_5="13000.00000" pt_clust_6="13000.00000" pt_clust_7="13000.00000" pt_clust_8="13000.00000" pt_clust_9="21.82234" pt_clust_10="33.06111"></scales>
<clustering>
<clus scale="   21.822">  1  9  2 -1</clus>
<clus scale="   33.061">  2 10  1 -1</clus>
<clus scale="   90.625">  7  8 -1 -1</clus>
<clus scale="   94.216">  5  6 -1 -1</clus>
<clus scale="  104.711">  2  7  1 -1</clus>
<clus scale="   33.061">  2  5  1 -1</clus>
</clustering>
</event>
<event>
10    2  0.3984345E-006  0.1761583E+03  0.7546771E-02  0.1172166E+00
         21   -1    0    0  501  502  0.00000000000E+00  0.00000000000E+00  0.10701591502E+03  0.10701591502E+03  0.00000000000E+00 0. -1.
          1   -1    0    0  503    0 -0.00000000000E+00 -0.00000000000E+00 -0.98997805941E+03  0.98997805941E+03  0.00000000000E+00 0. -1.
         23    2    1    2    0    0  0.30523305876E+01  0.17019489729E+03 -0.55943226192E+03  0.59188021546E+03  0.91553885731E+02 0.  0.
         23    2    1    2    0    0 -0.26593512769E+02 -0.11468881603E+03 -0.19954409382E+03  0.24745361244E+03  0.86917808795E+02 0.  0.
        -11    1    4    4    0    0 -0.46319006659E+02 -0.81569761855E+02 -0.84961006365E+02  0.12656006096E+03  0.00000000000E+00 0. -1.
         11    1    4    4    0    0  0.19725493890E+02 -0.33119054179E+02 -0.11458308746E+03  0.12089355148E+03  0.00000000000E+00 0.  1.
        -11    1    3    3    0    0 -0.22054421668E+02  0.93007849372E+01 -0.32520323585E+02  0.40379122844E+02  0.00000000000E+00 0.  1.
         11    1    3    3    0    0  0.25106752256E+02  0.16089411235E+03 -0.52691193834E+03  0.55150109262E+03  0.00000000000E+00 0. -1.
         21    1    1    2  503  502  0.27953166032E+02  0.13369020571E+02 -0.17123741516E+03  0.17401828224E+03  0.00000000000E+00 0.  1.
          1    1    1    2  501    0 -0.44119838502E+01 -0.68875101823E+02  0.47251626519E+02  0.83641864286E+02  0.00000000000E+00 0. -1.
<scales pt_clust_5="13000.00000" pt_clust_6="13000.00000" pt_clust_7="13000.00000" pt_clust_8="13000.00000" pt_clust_9="30.98565" pt_clust_10="68.68213"></scales>
<clustering>
<clus scale="   30.986">  2  9  1 -1</clus>
<clus scale="   68.682">  1 10  2 -1</clus>
<clus scale="   86.918">  5  6 -1 -1</clus>
<clus scale="   91.554">  7  8 -1 -1</clus>
<clus scale="  173.794">  1  5  2 -1</clus>
<clus scale="   68.682">  1  5  2 -1</clus>
</clustering>
</event>
<event>
10    2  0.3984345E-006  0.9975482E+02  0.7546771E-02  0.1281811E+00
         21   -1    0    0  503  502  0.00000000000E+00  0.00000000000E+00  0.43897205710E+03  0.43897205710E+03  0.00000000000E+00 0.  1.
         -1   -1    0    0    0  501 -0.00000000000E+00 -0.00000000000E+00 -0.10620952433E+03  0.10620952433E+03  0.00000000000E+00 0.  1.
         23    2    1    2    0    0  0.57654976753E+02 -0.64326747474E+02 -0.40805736427E+01  0.12461581037E+03  0.89724145737E+02 0.  0.
         23    2    1    2    0    0 -0.37636284714E+01 -0.30253279873E+01  0.58393416861E+02  0.10887615372E+03  0.91765506631E+02 0.  0.
        -13    1    3    3    0    0  0.20035439496E+02 -0.54920355572E+01  0.37838736967E+02  0.43166553090E+02  0.00000000000E+00 0. -1.
         13    1    3    3    0    0  0.37619537257E+02 -0.58834711917E+02 -0.41919310610E+02  0.81449257282E+02  0.00000000000E+00 0.  1.
        -13    1    4    4    0    0  0.34744316327E+01  0.43239507219E+02  0.17748207939E+02  0.46869238790E+02  0.00000000000E+00 0. -1.
         13    1    4    4    0    0 -0.72380601040E+01 -0.46264835206E+02  0.40645208922E+02  0.62006914929E+02  0.00000000000E+00 0.  1.
         21    1    1    2  503  501 -0.46866855364E+02  0.93434154093E+01  0.29918799396E+02  0.56382054773E+02  0.00000000000E+00 0. -1.
         -1    1    1    2    0  502 -0.70244929184E+01  0.58008660052E+02  0.24853089016E+03  0.25530756257E+03  0.00000000000E+00 0.  1.
<scales pt_clust_5="13000.00000" pt_clust_6="13000.00000" pt_clust_7="13000.00000" pt_clust_8="13000.00000" pt_clust_9="47.78914" pt_clust_10="58.99898"></scales>
<clustering>
<clus scale="   47.789">  2  9  1 -1</clus>
<clus scale="   58.999">  1 10  2 -1</clus>
<clus scale="   89.724">  5  6 -1 -1</clus>
<clus scale="   91.766">  7  8 -1 -1</clus>
<clus scale="   97.880">  2  5  1 -1</clus>
<clus scale="   58.999">  1  5  2 -1</clus>
</clustering>
</event>
<event>
10    2  0.3984345E-006  0.1031647E+03  0.7546771E-02  0.1275349E+00
         21   -1    0    0  503  502  0.00000000000E+00  0.00000000000E+00  0.17089739172E+03  0.17089739172E+03  0.00000000000E+00 0. -1.
         -3   -1    0    0    0  501 -0.00000000000E+00 -0.00000000000E+00 -0.43713141138E+03  0.43713141138E+03  0.00000000000E+00 0.  1.
         23    2    1    2    0    0  0.58377999636E+02  0.16131398173E+02 -0.12908602999E+03  0.17021082164E+03  0.92953256079E+02 0.  0.
         23    2    1    2    0    0 -0.37504118908E+02 -0.48197965289E+02  0.92042038304E+02  0.14219282931E+03  0.89540276409E+02 0.  0.
        -11    1    3    3    0    0  0.64030553345E+02 -0.10000688702E+02 -0.37657934929E+02  0.74953622990E+02  0.00000000000E+00 0.  1.
         11    1    3    3    0    0 -0.56525537095E+01  0.26132086875E+02 -0.91428095060E+02  0.95257198648E+02  0.00000000000E+00 0. -1.
        -11    1    4    4    0    0  0.19168751814E+02 -0.47910447385E+02  0.40708595721E+02  0.65727024733E+02  0.00000000000E+00 0. -1.
         11    1    4    4    0    0 -0.56672870721E+02 -0.28751790432E+00  0.51333442583E+02  0.76465804578E+02  0.00000000000E+00 0.  1.
         21    1    1    2  503  501 -0.47246309715E+02  0.25194107988E+02 -0.25350736244E+03  0.25910025023E+03  0.00000000000E+00 0.  1.
         -3    1    1    2    0  502  0.26372428987E+02  0.68724591283E+01  0.24317334465E+02  0.36524901924E+02  0.00000000000E+00 0.  1.
<scales pt_clust_5="13000.00000" pt_clust_6="13000.00000" pt_clust_7="13000.00000" pt_clust_8="13000.00000" pt_clust_9="53.14637" pt_clust_10="27.25318"></scales>
<clustering>
<clus scale="   27.253">  1 10  2 -1</clus>
<clus scale="   53.146">  2  9  1 -1</clus>
<clus scale="   89.540">  7  8 -1 -1</clus>
<clus scale="   92.953">  5  6 -1 -1</clus>
<clus scale="  100.101">  1  7  2 -1</clus>
<clus scale="   27.253">  1  5  2 -1</clus>
</clustering>
</event>
<event>
10    2  0.3984345E-006  0.1066274E+03  0.7546771E-02  0.1267782E+00
          3   -1    0    0  503    0 -0.00000000000E+00  0.00000000000E+00  0.73717867400E+03  0.73717867400E+03  0.00000000000E+00 0. -1.
         21   -1    0    0  501  502  0.00000000000E+00 -0.00000000000E+00 -0.57736382958E+02  0.57736382958E+02  0.00000000000E+00 0.  1.
         23    2    1    2    0    0 -0.28438417835E+02  0.51392458040E+02  0.24755261828E+03  0.27100551253E+03  0.93336812940E+02 0.  0.
         23    2    1    2    0    0  0.43146308674E+02  0.20043374496E+02  0.94412404315E+02  0.13973420769E+03  0.91370705900E+02 0.  0.
        -11    1    3    3    0    0 -0.32855112612E+01  0.63385729822E+02  0.22874270593E+03  0.23738527934E+03  0.00000000000E+00 0. -1.
         11    1    3    3    0    0 -0.25152906574E+02 -0.11993271782E+02  0.18809912351E+02  0.33620233190E+02  0.00000000000E+00 0.  1.
        -13    1    4    4    0    0  0.33036309495E+02 -0.33749481877E+02  0.33866947362E+02  0.58115362820E+02  0.00000000000E+00 0. -1.
         13    1    4    4    0    0  0.10109999179E+02  0.53792856374E+02  0.60545456953E+02  0.81618844870E+02  0.00000000000E+00 0.  1.
         21    1    1    2  503  502 -0.64050608179E+02  0.35123923813E+01  0.25274909516E+03  0.26076219513E+03  0.00000000000E+00 0.  1.
          3    1    1    2  501    0  0.49342717340E+02 -0.74948224918E+02  0.84728173291E+02  0.12341314161E+03  0.00000000000E+00 0. -1.
<scales pt_clust_5="13000.00000" pt_clust_6="13000.00000" pt_clust_7="13000.00000" pt_clust_8="13000.00000" pt_clust_9="64.14684" pt_clust_10="82.22977"></scales>
<clustering>
<clus scale="   64.147">  1  9  2 -1</clus>
<clus scale="   82.230">  2 10  1 -1</clus>
<clus scale="   91.371">  7  8 -1 -1</clus>
<clus scale="   93.337">  5  6 -1 -1</clus>
<clus scale="  104.911">  2  7  1 -1</clus>
<clus scale="   82.230">  2  5  1 -1</clus>
</clustering>
</event>
<event>
10    2  0.3984345E-006  0.1335664E+03  0.7546771E-02  0.1222401E+00
         21   -1    0    0  501  502  0.00000000000E+00  0.00000000000E+00  0.18580900999E+03  0.18580900999E+03  0.00000000000E+00 0. -1.
          1   -1    0    0  503    0 -0.00000000000E+00 -0.00000000000E+00 -0.41216028811E+03  0.41216028811E+03  0.00000000000E+00 0. -1.
         23    2    1    2    0    0  0.73202544534E+02  0.41203299410E+02 -0.73265009674E+02  0.14331763851E+03  0.90088065005E+02 0.  0.
         23    2    1    2    0    0 -0.10245197869E+03 -0.54196253966E+02 -0.96014271985E+02  0.17571250693E+03  0.90678017104E+02 0.  0.
        -11    1    4    4    0    0 -0.56358446182E+02 -0.14382084775E+02  0.43343418198E+01  0.58325854795E+02  0.00000000000E+00 0.  1.
         11    1    4    4    0    0 -0.46093532512E+02 -0.39814169191E+02 -0.10034861380E+03  0.11738665214E+03  0.00000000000E+00 0. -1.
        -13    1    3    3    0    0  0.34109037440E+02 -0.13530739909E+02  0.82744798192E+01  0.37616145122E+02  0.00000000000E+00 0.  1.
         13    1    3    3    0    0  0.39093507094E+02  0.54734039319E+02 -0.81539489493E+02  0.10570149339E+03  0.00000000000E+00 0. -1.
         21    1    1    2  503  502  0.11215558640E-01 -0.22133659305E+02 -0.16251615944E+03  0.16401646588E+03  0.00000000000E+00 0.  1.
          1    1    1    2  501    0  0.29238218602E+02  0.35126613862E+02  0.10544416298E+03  0.11492268677E+03  0.00000000000E+00 0. -1.
<scales pt_clust_5="13000.00000" pt_clust_6="13000.00000" pt_clust_7="13000.00000" pt_clust_8="13000.00000" pt_clust_9="22.13366" pt_clust_10="45.37989"></scales>
<clustering>
<clus scale="   22.134">  2  9  1 -1</clus>
<clus scale="   45.380">  1 10  2 -1</clus>
<clus scale="   90.088">  7  8 -1 -1</clus>
<clus scale="   90.678">  5  6 -1 -1</clus>
<clus scale="  133.167">  2  7  1 -1</clus>
<clus scale="   45.380">  1  5  2 -1</clus>
</clustering>
</event>
<event>
10    2  0.3984345E-006  0.1410775E+03  0.7546771E-02  0.1211956E+00
         21   -1    0    0  501  502  0.00000000000E+00  0.00000000000E+00  0.16684660842E+03  0.16684660842E+03  0.00000000000E+00 0. -1.
          1   -1    0    0  503    0 -0.00000000000E+00 -0.00000000000E+00 -0.70862280454E+03  0.70862280454E+03  0.00000000000E+00 0. -1.
         23    2    1    2    0    0 -0.91669058193E+02  0.57875359065E+02 -0.39787589506E+03  0.42227127631E+03  0.90857192952E+02 0.  0.
         23    2    1    2    0    0  0.61941964841E+02 -0.83680143936E+02 -0.23294362237E+03  0.27073603346E+03  0.90532287684E+02 0.  0.
        -11    1    4    4    0    0  0.73834273652E+02 -0.38561921999E+02 -0.10178134739E+03  0.13152172623E+03  0.00000000000E+00 0.  1.
         11    1    4    4    0    0 -0.11892308811E+02 -0.45118221937E+02 -0.13116227498E+03  0.13921430723E+03  0.00000000000E+00 0. -1.
        -11    1    3    3    0    0 -0.23909325064E+01  0.45925742456E+02 -0.84457871722E+02  0.96166639092E+02  0.00000000000E+00 0.  1.
         11    1    3    3    0    0 -0.89278125686E+02  0.11949616609E+02 -0.31341802334E+03  0.32610463722E+03  0.00000000000E+00 0. -1.
         21    1    1    2  503  502 -0.21264885466E+01  0.28890886394E+02 -0.40068141752E+02  0.49443515789E+02  0.00000000000E+00 0. -1.
          1    1    1    2  501    0  0.31853581898E+02 -0.30861015225E+01  0.12911146306E+03  0.13301858741E+03  0.00000000000E+00 0. -1.
<scales pt_clust_5="13000.00000" pt_clust_6="13000.00000" pt_clust_7="13000.00000" pt_clust_8="13000.00000" pt_clust_9="28.96904" pt_clust_10="31.98841"></scales>
<clustering>
<clus scale="   28.969">  2  9  1 -1</clus>
<clus scale="   31.988">  1 10  2 -1</clus>
<clus scale="   90.532">  5  6 -1 -1</clus>
<clus scale="   90.857">  7  8 -1 -1</clus>
<clus scale="  140.868">  1  5  2 -1</clus>
<clus scale="   31.988">  1  5  2 -1</clus>
</clustering>
</event>
<event>
10    2  0.3984345E-006  0.1049825E+03  0.7546771E-02  0.1274947E+00
         21   -1    0    0  501  502  0.00000000000E+00  0.00000000000E+00  0.73522791883E+02  0.73522791883E+02  0.00000000000E+00 0. -1.
          1   -1    0    0  503    0 -0.00000000000E+00 -0.00000000000E+00 -0.95429243769E+03  0.95429243769E+03  0.00000000000E+00 0. -1.
         23    2    1    2    0    0  0.14344497248E+02  0.42783984538E+02 -0.47811375986E+03  0.48688218392E+03  0.80157717774E+02 0.  0.
         23    2    1    2    0    0 -0.14529203054E+02 -0.10836939122E+03 -0.14956612297E+02  0.14304479184E+03  0.91011480182E+02 0.  0.
        -11    1    3    3    0    0  0.20948859888E+02  0.65242264163E+02 -0.36350639758E+03  0.36990851415E+03  0.00000000000E+00 0. -1.
         11    1    3    3    0    0 -0.66043626399E+01 -0.22458279625E+02 -0.11460736228E+03  0.11697366977E+03  0.00000000000E+00 0.  1.
        -13    1    4    4    0    0  0.29141862321E+02 -0.17226940189E+02 -0.24118004573E+02  0.41565535632E+02  0.00000000000E+00 0.  1.
         13    1    4    4    0    0 -0.43671065375E+02 -0.91142451036E+02  0.91613922759E+01  0.10147925621E+03  0.00000000000E+00 0. -1.
         21    1    1    2  503  502 -0.23374588658E+02  0.82028729822E+01 -0.15933594145E+03  0.16125011863E+03  0.00000000000E+00 0. -1.
          1    1    1    2  501    0  0.23559294464E+02  0.57382533704E+02 -0.22836333219E+03  0.23663813518E+03  0.00000000000E+00 0. -1.
<scales pt_clust_5="13000.00000" pt_clust_6="13000.00000" pt_clust_7="13000.00000" pt_clust_8="13000.00000" pt_clust_9="24.77213" pt_clust_10="62.07716"></scales>
<clustering>
<clus scale="   24.772">  2  9  1 -1</clus>
<clus scale="   62.077">  1 10  2 -1</clus>
<clus scale="   80.158">  5  6 -1 -1</clus>
<clus scale="   91.011">  7  8 -1 -1</clus>
<clus scale="   95.726">  2  5  1 -1</clus>
<clus scale="   62.077">  1  5  2 -1</clus>
</clustering>
</event>
<event>
10    2  0.3984345E-006  0.2184165E+03  0.7546771E-02  0.1136289E+00
         21   -1    0    0  501  502  0.00000000000E+00  0.00000000000E+00  0.51084218873E+03  0.51084218873E+03  0.00000000000E+00 0.  1.
         -2   -1    0    0    0  501 -0.00000000000E+00 -0.00000000000E+00 -0.14966329789E+03  0.14966329789E+03  0.00000000000E+00 0.  1.
         23    2    1    2    0    0  0.66477107236E+02  0.14825011691E+03  0.11420536923E+03  0.21835165172E+03  0.90759432017E+02 0.  0.
         23    2    1    2    0    0 -0.15610297335E+03 -0.17207370935E+03  0.12150916642E+03  0.28235719536E+03  0.10480271233E+03 0.  0.
        -13    1    4    4    0    0 -0.85872718623E+02 -0.11310229651E+03  0.16534770784E+02  0.14296731069E+03  0.00000000000E+00 0.  1.
         13    1    4    4    0    0 -0.70230254724E+02 -0.58971412838E+02  0.10497439564E+03  0.13938988468E+03  0.00000000000E+00 0. -1.
        -13    1    3    3    0    0 -0.32402865201E+01  0.98834474794E+02  0.76133674478E+02  0.12480019733E+03  0.00000000000E+00 0.  1.
         13    1    3    3    0    0  0.69717393756E+02  0.49415642113E+02  0.38071694753E+02  0.93551454392E+02  0.00000000000E+00 0. -1.
         21    1    1    2  503  502  0.17009607929E+02  0.19837669464E+02  0.29969899463E+02  0.39762479368E+02  0.00000000000E+00 0. -1.
         -2    1    1    2    0  503  0.72616258183E+02  0.39859229793E+01  0.95494455717E+02  0.12003416017E+03  0.00000000000E+00 0.  1.
<scales pt_clust_5="13000.00000" pt_clust_6="13000.00000" pt_clust_7="13000.00000" pt_clust_8="13000.00000" pt_clust_9="20.70687" pt_clust_10="98.96293"></scales>
<clustering>
<clus scale="   20.707">  9 10 -1 -1</clus>
<clus scale="   90.759">  7  8 -1 -1</clus>
<clus scale="   98.963">  1  9  2 -1</clus>
<clus scale="  104.803">  5  6 -1 -1</clus>
<clus scale="  212.036">  2  7  1 -1</clus>
<clus scale="   98.963">  1  5  2 -1</clus>
</clustering>
</event>
<event>
10    2  0.3984345E-006  0.1407092E+03  0.7546771E-02  0.1213769E+00
          1   -1    0    0  503    0 -0.00000000000E+00  0.00000000000E+00  0.41355873827E+03  0.41355873827E+03  0.00000000000E+00 0. -1.
         21   -1    0    0  501  502  0.00000000000E+00 -0.00000000000E+00 -0.11515972966E+03  0.11515972966E+03  0.00000000000E+00 0.  1.
         23    2    1    2    0    0 -0.93797024605E+02  0.11363407348E+02  0.26535554160E+03  0.29655861181E+03  0.92770889445E+02 0.  0.
         23    2    1    2    0    0  0.97203397054E+02 -0.35533402645E+02  0.18377619146E+02  0.13608590219E+03  0.86432128214E+02 0.  0.
        -11    1    4    4    0    0  0.55461679665E+02 -0.78423738590E+01  0.51453889659E+02  0.76059210488E+02  0.00000000000E+00 0. -1.
         11    1    4    4    0    0  0.41741717390E+02 -0.27691028786E+02 -0.33076270514E+02  0.60026691704E+02  0.00000000000E+00 0.  1.
        -13    1    3    3    0    0 -0.10001027916E+03 -0.14008529310E+02  0.17041198628E+03  0.19808720276E+03  0.00000000000E+00 0. -1.
         13    1    3    3    0    0  0.62132545573E+01  0.25371936658E+02  0.94943555321E+02  0.98471409044E+02  0.00000000000E+00 0.  1.
         21    1    1    2  503  502 -0.19591970214E+02 -0.54670616609E+01  0.45818381713E+02  0.50130411557E+02  0.00000000000E+00 0. -1.
          1    1    1    2  501    0  0.16185597765E+02  0.29637056958E+02 -0.31152533846E+02  0.45943542366E+02  0.00000000000E+00 0. -1.
<scales pt_clust_5="13000.00000" pt_clust_6="13000.00000" pt_clust_7="13000.00000" pt_clust_8="13000.00000" pt_clust_9="20.34045" pt_clust_10="33.48302"></scales>
<clustering>
<clus scale="   20.340">  1  9  2 -1</clus>
<clus scale="   33.483">  2 10  1 -1</clus>
<clus scale="   86.432">  5  6 -1 -1</clus>
<clus scale="   92.771">  7  8 -1 -1</clus>
<clus scale="  136.613">  2  5  1 -1</clus>
<clus scale="   33.483">  2  5  1 -1</clus>
</clustering>
</event>
<event>
10    2  0.3984345E-006  0.1457552E+03  0.7546771E-02  0.1206325E+00
         -1   -1    0    0    0  501 -0.00000000000E+00  0.00000000000E+00  0.74947122844E+03  0.74947122844E+03  0.00000000000E+00 0.  1.
         21   -1    0    0  503  502  0.00000000000E+00 -0.00000000000E+00 -0.89224581729E+02  0.89224581729E+02  0.00000000000E+00 0. -1.
         23    2    1    2    0    0 -0.88407975589E+02 -0.48091997059E+02  0.48010070059E+03  0.49879112334E+03  0.90371962917E+02 0.  0.
         23    2    1    2    0    0  0.80381191604E+02  0.21492460301E+02  0.52767380127E+01  0.12491247591E+03  0.93017314845E+02 0.  0.
        -13    1    3    3    0    0 -0.18873775260E+02 -0.37678730204E+02  0.62930237609E+02  0.75737183127E+02  0.00000000000E+00 0. -1.
         13    1    3    3    0    0 -0.69534200329E+02 -0.10413266854E+02  0.41717046298E+03  0.42305394021E+03  0.00000000000E+00 0.  1.
        -13    1    4    4    0    0 -0.14313676223E+02 -0.16420563116E+02 -0.51334846059E+01  0.22380100185E+02  0.00000000000E+00 0.  1.
         13    1    4    4    0    0  0.94694867827E+02  0.37913023417E+02  0.10410222619E+02  0.10253237573E+03  0.00000000000E+00 0. -1.
         21    1    1    2  503  501 -0.16125251880E+02 -0.17211292575E+02  0.16149518487E+03  0.16320829353E+03  0.00000000000E+00 0.  1.
         -1    1    1    2    0  502  0.24152035865E+02  0.43810829332E+02  0.13374023240E+02  0.51783917395E+02  0.00000000000E+00 0.  1.
<scales pt_clust_5="13000.00000" pt_clust_6="13000.00000" pt_clust_7="13000.00000" pt_clust_8="13000.00000" pt_clust_9="23.58500" pt_clust_10="48.75980"></scales>
<clustering>
<clus scale="   23.585">  1  9  2 -1</clus>
<clus scale="   48.760">  2 10  1 -1</clus>
<clus scale="   90.372">  5  6 -1 -1</clus>
<clus scale="   93.017">  7  8 -1 -1</clus>
<clus scale="  144.081">  1  5  2 -1</clus>
<clus scale="   48.760">  2  5  1 -1</clus>
</clustering>
</event>
<event>
10    2  0.3984345E-006  0.9685439E+02  0.7546771E-02  0.1288916E+00
         21   -1    0    0  501  502  0.00000000000E+00  0.00000000000E+00  0.23163355530E+03  0.23163355530E+03  0.00000000000E+00 0. -1.
          3   -1    0    0  503    0 -0.00000000000E+00 -0.00000000000E+00 -0.28599457796E+03  0.28599457796E+03  0.00000000000E+00 0. -1.
         23    2    1    2    0    0  0.32695677445E+02  0.63975780820E+02 -0.11925063715E+03  0.16547166316E+03  0.89432930133E+02 0.  0.
         23    2    1    2    0    0  0.44444064026E+02  0.90743155569E+01 -0.32132835286E+02  0.10827074910E+03  0.92910806568E+02 0.  0.
        -11    1    3    3    0    0 -0.22952729071E+02 -0.19199055476E+01 -0.49324133963E+02  0.54436972733E+02  0.00000000000E+00 0.  1.
         11    1    3    3    0    0  0.55648406517E+02  0.65895686368E+02 -0.69926503188E+02  0.11103469043E+03  0.00000000000E+00 0. -1.
        -13    1    4    4    0    0 -0.24460785106E+02  0.22374387607E+02 -0.12116848458E+02  0.35295343111E+02  0.00000000000E+00 0.  1.
         13    1    4    4    0    0  0.68904849132E+02 -0.13300072050E+02 -0.20015986827E+02  0.72975405988E+02  0.00000000000E+00 0. -1.
         21    1    1    2  503  502 -0.29467592533E+02 -0.33196433036E+02 -0.60219809150E+02  0.74811547170E+02  0.00000000000E+00 0.  1.
          3    1    1    2  501    0 -0.47672148938E+02 -0.39853663341E+02  0.15724225892E+03  0.16907417383E+03  0.00000000000E+00 0. -1.
<scales pt_clust_5="13000.00000" pt_clust_6="13000.00000" pt_clust_7="13000.00000" pt_clust_8="13000.00000" pt_clust_9="44.38854" pt_clust_10="63.32550"></scales>
<clustering>
<clus scale="   44.389">  2  9  1 -1</clus>
<clus scale="   63.325">  1 10  2 -1</clus>
<clus scale="   89.433">  5  6 -1 -1</clus>
<clus scale="   92.911">  7  8 -1 -1</clus>
<clus scale="   93.523">  2  5  1 -1</clus>
<clus scale="   63.325">  1  5  2 -1</clus>
</clustering>
</event>
<event>
10    2  0.3984345E-006  0.2587781E+03  0.7546771E-02  0.1109169E+00
         21   -1    0    0  503  502  0.00000000000E+00  0.00000000000E+00  0.75894604184E+02  0.75894604184E+02  0.00000000000E+00 0. -1.
         -1   -1    0    0    0  501 -0.00000000000E+00 -0.00000000000E+00 -0.12830689986E+04  0.12830689986E+04  0.00000000000E+00 0.  1.
         23    2    1    2    0    0  0.76325041755E+02 -0.19273502067E+03 -0.53528742224E+03  0.58164653243E+03  0.93849688820E+02 0.  0.
         23    2    1    2    0    0 -0.14063128738E+03  0.23765750909E+03 -0.50595779457E+03  0.58033623641E+03  0.67369182784E+02 0.  0.
        -13    1    3    3    0    0  0.56384959317E+02 -0.19529007308E+03 -0.44618626399E+03  0.49030567859E+03  0.00000000000E+00 0. -1.
         13    1    3    3    0    0  0.19940082438E+02  0.25550524034E+01 -0.89101158246E+02  0.91340853845E+02  0.00000000000E+00 0.  1.
        -13    1    4    4    0    0 -0.50629741074E+02  0.14996437148E+03 -0.29538973439E+03  0.33512352734E+03  0.00000000000E+00 0.  1.
         13    1    4    4    0    0 -0.90001546307E+02  0.87693137606E+02 -0.21056806018E+03  0.24521270907E+03  0.00000000000E+00 0. -1.
         21    1    1    2  503  501  0.40221396773E+02 -0.41105466176E+02 -0.16247375546E+03  0.17235179524E+03  0.00000000000E+00 0.  1.
         -1    1    1    2    0  502  0.24084848853E+02 -0.38170222382E+01 -0.34554220952E+01  0.24629038651E+02  0.00000000000E+00 0.  1.
<scales pt_clust_5="13000.00000" pt_clust_6="13000.00000" pt_clust_7="13000.00000" pt_clust_8="13000.00000" pt_clust_9="59.00065" pt_clust_10="24.38544"></scales>
<clustering>
<clus scale="   24.385">  1 10  2 -1</clus>
<clus scale="   59.001">  2  9  1 -1</clus>
<clus scale="   67.369">  7  8 -1 -1</clus>
<clus scale="   93.850">  5  6 -1 -1</clus>
<clus scale="  250.394">  1  7  2 -1</clus>
<clus scale="   24.385">  1  5  2 -1</clus>
</clustering>
</event>
<event>
10    2  0.3984345E-006  0.9268044E+02  0.7546771E-02  0.1296623E+00
         21   -1    0    0  501  502  0.00000000000E+00  0.00000000000E+00  0.30605261789E+03  0.30605261789E+03  0.00000000000E+00 0.  1.
          3   -1    0    0  503    0 -0.00000000000E+00 -0.00000000000E+00 -0.11142119278E+03  0.11142119278E+03  0.00000000000E+00 0. -1.
         23    2    1    2    0    0  0.15742800013E+02  0.16053233980E+02 -0.12885216271E+02  0.95410180248E+02  0.91823371879E+02 0.  0.
         23    2    1    2    0    0 -0.23005699000E+02  0.11998924012E+02  0.10180017244E+03  0.13968256690E+03  0.92058177384E+02 0.  0.
        -13    1    4    4    0    0  0.19265572026E+02 -0.22543921515E+02  0.71136466589E+02  0.77070017137E+02  0.00000000000E+00 0.  1.
         13    1    4    4    0    0 -0.42271271026E+02  0.34542845528E+02  0.30663705846E+02  0.62612549761E+02  0.00000000000E+00 0. -1.
        -13    1    3    3    0    0  0.46735852906E+02  0.28095314834E+02  0.94655183808E+01  0.55346026964E+02  0.00000000000E+00 0. -1.
         13    1    3    3    0    0 -0.30993052893E+02 -0.12042080854E+02 -0.22350734652E+02  0.40064153284E+02  0.00000000000E+00 0.  1.
         21    1    1    2  503  502 -0.14582148843E+02 -0.19155708937E+02 -0.33459578615E+02  0.41220427592E+02  0.00000000000E+00 0. -1.
          3    1    1    2  501    0  0.21845047831E+02 -0.88964490553E+01  0.13917604756E+03  0.14116063593E+03  0.00000000000E+00 0. -1.
<scales pt_clust_5="13000.00000" pt_clust_6="13000.00000" pt_clust_7="13000.00000" pt_clust_8="13000.00000" pt_clust_9="23.93647" pt_clust_10="23.58713"></scales>
<clustering>
<clus scale="   23.587">  1 10  2 -1</clus>
<clus scale="   23.936">  2  9  1 -1</clus>
<clus scale="   91.823">  7  8 -1 -1</clus>
<clus scale="   92.058">  5  6 -1 -1</clus>
<clus scale="   92.447">  2  7  1 -1</clus>
<clus scale="   23.587">  1  5  2 -1</clus>
</clustering>
</event>
<event>
10    2  0.3984345E-006  0.1049102E+03  0.7546771E-02  0.1270411E+00
         21   -1    0    0  503  502  0.00000000000E+00  0.00000000000E+00  0.17229985468E+03  0.17229985468E+03  0.00000000000E+00 0.  1.
         -2   -1    0    0    0  501 -0.00000000000E+00 -0.00000000000E+00 -0.67412785396E+03  0.67412785396E+03  0.00000000000E+00 0.  1.
         23    2    1    2    0    0  0.52653650415E+02  0.17856063831E+01 -0.42692844401E+03  0.44038818232E+03  0.94330586399E+02 0.  0.
         23    2    1    2    0    0 -0.67523173123E+02 -0.71607551837E+01  0.13313637809E+03  0.17659426354E+03  0.94072224498E+02 0.  0.
        -11    1    4    4    0    0 -0.46162709145E+02 -0.47340294371E+02  0.54268755000E+02  0.85540615827E+02  0.00000000000E+00 0.  1.
         11    1    4    4    0    0 -0.21360463978E+02  0.40179539188E+02  0.78867623088E+02  0.91053647715E+02  0.00000000000E+00 0. -1.
        -13    1    3    3    0    0  0.79111447769E+02  0.81956191086E+01 -0.28592864199E+03  0.29678439590E+03  0.00000000000E+00 0.  1.
         13    1    3    3    0    0 -0.26457797354E+02 -0.64100127256E+01 -0.14099980202E+03  0.14360378642E+03  0.00000000000E+00 0. -1.
         21    1    1    2  503  501 -0.12304644707E+02 -0.21596193559E+02 -0.18069943312E+03  0.18240089087E+03  0.00000000000E+00 0.  1.
         -2    1    1    2    0  502  0.27174167415E+02  0.26971342360E+02 -0.27336500235E+02  0.47044371911E+02  0.00000000000E+00 0.  1.
<scales pt_clust_5="13000.00000" pt_clust_6="13000.00000" pt_clust_7="13000.00000" pt_clust_8="13000.00000" pt_clust_9="24.85558" pt_clust_10="36.48239"></scales>
<clustering>
<clus scale="   24.856">  2  9  1 -1</clus>
<clus scale="   36.482">  1 10  2 -1</clus>
<clus scale="   94.072">  5  6 -1 -1</clus>
<clus scale="   94.331">  7  8 -1 -1</clus>
<clus scale="  104.678">  1  5  2 -1</clus>
<clus scale="   36.482">  1  5  2 -1</clus>
</clustering>
</event>
<event>
10    2  0.3984345E-006  0.1980884E+03  0.7546771E-02  0.1151498E+00
         -1   -1    0    0    0  501 -0.00000000000E+00  0.00000000000E+00  0.67556637008E+03  0.67556637008E+03  0.00000000000E+00 0.  1.
         21   -1    0    0  503  502  0.00000000000E+00 -0.00000000000E+00 -0.47789652037E+03  0.47789652037E+03  0.00000000000E+00 0. -1.
         23    2    1    2    0    0 -0.43041062095E+01 -0.15927181946E+03  0.46854030197E+03  0.50327046847E+03  0.91460986562E+02 0.  0.
         23    2    1    2    0    0  0.10379426003E+03  0.16227027157E+03 -0.23215323460E+03  0.31482198400E+03  0.90071459532E+02 0.  0.
        -11    1    3    3    0    0 -0.10766466428E+02 -0.11785039132E+03  0.43115072220E+03  0.44709683155E+03  0.00000000000E+00 0.  1.
         11    1    3    3    0    0  0.64623602182E+01 -0.41421428147E+02  0.37389579768E+02  0.56173636918E+02  0.00000000000E+00 0. -1.
        -11    1    4    4    0    0 -0.16760862943E+02  0.20053979793E+02 -0.31274624749E+02  0.40757708293E+02  0.00000000000E+00 0.  1.
         11    1    4    4    0    0  0.12055512297E+03  0.14221629178E+03 -0.20087860985E+03  0.27406427571E+03  0.00000000000E+00 0. -1.
         21    1    1    2  503  501 -0.11388571030E+03  0.26278634811E+02  0.12342233355E+03  0.16998115800E+03  0.00000000000E+00 0.  1.
         -1    1    1    2    0  502  0.14395556478E+02 -0.29277086919E+02 -0.16213955121E+03  0.16538927998E+03  0.00000000000E+00 0.  1.
<scales pt_clust_5="13000.00000" pt_clust_6="13000.00000" pt_clust_7="13000.00000" pt_clust_8="13000.00000" pt_clust_9="115.36614" pt_clust_10="32.62484"></scales>
<clustering>
<clus scale="   32.625">  2 10  1 -1</clus>
<clus scale="   90.071">  7  8 -1 -1</clus>
<clus scale="   91.461">  5  6 -1 -1</clus>
<clus scale="  115.366">  1  9  2 -1</clus>
<clus scale="  197.451">  2  7  1 -1</clus>
<clus scale="   32.625">  2  5  1 -1</clus>
</clustering>
</event>
<event>
10    2  0.3984345E-006  0.1313988E+03  0.7546771E-02  0.1227452E+00
         21   -1    0    0  501  502  0.00000000000E+00  0.00000000000E+00  0.33145448688E+03  0.33145448688E+03  0.00000000000E+00 0. -1.
          1   -1    0    0  503    0 -0.00000000000E+00 -0.00000000000E+00 -0.92358892210E+02  0.92358892210E+02  0.00000000000E+00 0. -1.
         23    2    1    2    0    0 -0.87193607000E+01  0.10644400150E+03  0.11355632192E+03  0.17653226159E+03  0.82838689180E+02 0.  0.
         23    2    1    2    0    0  0.29675193601E+01 -0.98003113520E+02  0.12969132880E+03  0.17855326777E+03  0.73810651226E+02 0.  0.
        -11    1    4    4    0    0 -0.13598415709E+02 -0.38525846721E+02  0.10389576396E+03  0.11163999079E+03  0.00000000000E+00 0.  1.
         11    1    4    4    0    0  0.16565935069E+02 -0.59477266800E+02  0.25795564844E+02  0.66913276981E+02  0.00000000000E+00 0. -1.
        -11    1    3    3    0    0 -0.33383456613E+02  0.52561273713E+02  0.19288943360E+02  0.65185934110E+02  0.00000000000E+00 0.  1.
         11    1    3    3    0    0  0.24664095913E+02  0.53882727791E+02  0.94267378565E+02  0.11134632748E+03  0.00000000000E+00 0. -1.
         21    1    1    2  503  502  0.27422405129E+02 -0.64215174272E+01 -0.25680670474E+02  0.38114577593E+02  0.00000000000E+00 0. -1.
          1    1    1    2  501    0 -0.21670563789E+02 -0.20193705566E+01  0.21528614422E+02  0.30613272143E+02  0.00000000000E+00 0. -1.
<scales pt_clust_5="13000.00000" pt_clust_6="13000.00000" pt_clust_7="13000.00000" pt_clust_8="13000.00000" pt_clust_9="27.74442" pt_clust_10="21.76445"></scales>
<clustering>
<clus scale="   21.764">  1 10  2 -1</clus>
<clus scale="   27.744">  2  9  1 -1</clus>
<clus scale="   73.811">  5  6 -1 -1</clus>
<clus scale="   82.839">  7  8 -1 -1</clus>
<clus scale="  125.902">  1  5  2 -1</clus>
<clus scale="   21.764">  1  5  2 -1</clus>
</clustering>
</event>
<event>
10    2  0.3984345E-006  0.3719050E+03  0.7546771E-02  0.1054024E+00
          1   -1    0    0  503    0 -0.00000000000E+00  0.00000000000E+00  0.15571645645E+04  0.15571645645E+04  0.00000000000E+00 0. -1.
         21   -1    0    0  501  502  0.00000000000E+00 -0.00000000000E+00 -0.15090014554E+03  0.15090014554E+03  0.00000000000E+00 0. -1.
         23    2    1    2    0    0  0.54896416149E+02  0.33446224074E+03  0.11310861473E+04  0.11846445667E+04  0.95646588177E+02 0.  0.
         23    2    1    2    0    0 -0.55807978262E+02 -0.34388858058E+03  0.19067081988E+03  0.40795640922E+03  0.93269416100E+02 0.  0.
        -13    1    3    3    0    0  0.40268753300E+02  0.23256181934E+03  0.92000837153E+03  0.94980101915E+03  0.00000000000E+00 0. -1.
         13    1    3    3    0    0  0.14627662849E+02  0.10190042140E+03  0.21107777577E+03  0.23484354755E+03  0.00000000000E+00 0.  1.
        -13    1    4    4    0    0 -0.37938509622E+02 -0.17028146546E+03  0.14679894517E+03  0.22800227695E+03  0.00000000000E+00 0. -1.
         13    1    4    4    0    0 -0.17869468640E+02 -0.17360711512E+03  0.43871874705E+02  0.17995413227E+03  0.00000000000E+00 0.  1.
         21    1    1    2  503  502 -0.17343284100E+02  0.36742224424E+02  0.66682883191E+02  0.78085769957E+02  0.00000000000E+00 0.  1.
          1    1    1    2  501    0  0.18254846212E+02 -0.27315884583E+02  0.17824568630E+02  0.37377964199E+02  0.00000000000E+00 0. -1.
<scales pt_clust_5="13000.00000" pt_clust_6="13000.00000" pt_clust_7="13000.00000" pt_clust_8="13000.00000" pt_clust_9="39.31750" pt_clust_10="32.85418"></scales>
<clustering>
<clus scale="   32.854">  2 10  1 -1</clus>
<clus scale="   39.317">  1  9  2 -1</clus>
<clus scale="   93.269">  7  8 -1 -1</clus>
<clus scale="   95.647">  5  6 -1 -1</clus>
<clus scale="  371.301">  2  7  1 -1</clus>
<clus scale="   32.854">  2  5  1 -1</clus>
</clustering>
</event>
<event>
10    2  0.3984345E-006  0.1936224E+03  0.7546771E-02  0.1155385E+00
          2   -1    0    0  503    0 -0.00000000000E+00  0.00000000000E+00  0.12540656433E+04  0.12540656433E+04  0.00000000000E+00 0. -1.
         21   -1    0    0  501  502  0.00000000000E+00 -0.00000000000E+00 -0.16661796867E+03  0.16661796867E+03  0.00000000000E+00 0. -1.
         23    2    1    2    0    0  0.10240537687E+03  0.67839488097E+02  0.40889021838E+03  0.43663796711E+03  0.91501072539E+02 0.  0.
         23    2    1    2    0    0 -0.23584201901E+03 -0.55000714024E+02  0.72748858220E+03  0.77234923757E+03  0.92936381898E+02 0.  0.
        -11    1    3    3    0    0  0.18851766757E+02  0.65016081211E+02  0.14959133346E+03  0.16419514905E+03  0.00000000000E+00 0.  1.
         11    1    3    3    0    0  0.83553610111E+02  0.28234068863E+01  0.25929888492E+03  0.27244281806E+03  0.00000000000E+00 0. -1.
        -13    1    4    4    0    0 -0.79123723330E+02 -0.58328451025E+02  0.21462339768E+03  0.23606349702E+03  0.00000000000E+00 0.  1.
         13    1    4    4    0    0 -0.15671829568E+03  0.33277370017E+01  0.51286518451E+03  0.53628574055E+03  0.00000000000E+00 0. -1.
         21    1    1    2  503  502  0.18500090856E+01  0.28378577509E+02  0.38916248333E+02  0.48200006010E+02  0.00000000000E+00 0. -1.
          2    1    1    2  501    0  0.13158663306E+03 -0.41217351582E+02 -0.87847374257E+02  0.16349640129E+03  0.00000000000E+00 0. -1.
<scales pt_clust_5="13000.00000" pt_clust_6="13000.00000" pt_clust_7="13000.00000" pt_clust_8="13000.00000" pt_clust_9="28.43881" pt_clust_10="137.68376"></scales>
<clustering>
<clus scale="   28.439">  1  9  2 -1</clus>
<clus scale="   91.501">  5  6 -1 -1</clus>
<clus scale="   92.936">  7  8 -1 -1</clus>
<clus scale="  137.684">  2 10  1 -1</clus>
<clus scale="  192.938">  1  5  2 -1</clus>
<clus scale="  137.684">  2  5  1 -1</clus>
</clustering>
</event>
<event>
10    2  0.3984345E-006  0.1309016E+03  0.7546771E-02  0.1235984E+00
          2   -1    0    0  503    0 -0.00000000000E+00  0.00000000000E+00  0.37261582993E+02  0.37261582993E+02  0.00000000000E+00 0. -1.
         21   -1    0    0  501  502  0.00000000000E+00 -0.00000000000E+00 -0.97342905529E+03  0.97342905529E+03  0.00000000000E+00 0. -1.
         23    2    1    2    0    0 -0.84654996777E+00  0.41414139974E+02 -0.30184919383E+03  0.31903981490E+03  0.94644704231E+02 0.  0.
         23    2    1    2    0    0 -0.85337841798E+02  0.12989552623E+02 -0.30785154071E+03  0.33160745775E+03  0.87975332892E+02 0.  0.
        -13    1    4    4    0    0 -0.66216185347E+02 -0.30378292857E+02 -0.22053604314E+03  0.23225755145E+03  0.00000000000E+00 0. -1.
         13    1    4    4    0    0 -0.19121656451E+02  0.43367845480E+02 -0.87315497570E+02  0.99349906306E+02  0.00000000000E+00 0.  1.
        -13    1    3    3    0    0 -0.22901993807E+02  0.62628737394E+02 -0.25086206410E+03  0.25957394952E+03  0.00000000000E+00 0. -1.
         13    1    3    3    0    0  0.22055443839E+02 -0.21214597419E+02 -0.50987129729E+02  0.59465865373E+02  0.00000000000E+00 0.  1.
         21    1    1    2  503  502  0.44849457080E+01  0.30355792480E+02 -0.40649917694E+02  0.50931372292E+02  0.00000000000E+00 0. -1.
          2    1    1    2  501    0  0.81699446057E+02 -0.84759485077E+02 -0.28581682006E+03  0.30911199334E+03  0.00000000000E+00 0. -1.
<scales pt_clust_5="13000.00000" pt_clust_6="13000.00000" pt_clust_7="13000.00000" pt_clust_8="13000.00000" pt_clust_9="30.68532" pt_clust_10="96.93085"></scales>
<clustering>
<clus scale="   30.685">  1  9  2 -1</clus>
<clus scale="   87.975">  5  6 -1 -1</clus>
<clus scale="   94.645">  7  8 -1 -1</clus>
<clus scale="  106.825">  1  7  2 -1</clus>
<clus scale="   96.931">  2 10  1 -1</clus>
<clus scale="   96.931">  2  5  1 -1</clus>
</clustering>
</event>
<event>
10    2  0.3984345E-006  0.1267275E+03  0.7546771E-02  0.1235016E+00
         21   -1    0    0  501  502  0.00000000000E+00  0.00000000000E+00  0.14686173656E+03  0.14686173656E+03  0.00000000000E+00 0. -1.
          1   -1    0    0  503    0 -0.00000000000E+00 -0.00000000000E+00 -0.53531995356E+03  0.53531995356E+03  0.00000000000E+00 0. -1.
         23    2    1    2    0    0 -0.59311337352E+02 -0.50368938539E+02 -0.34324508839E+03  0.36376071703E+03  0.91922814584E+02 0.  0.
         23    2    1    2    0    0  0.62787977093E+02  0.88925907991E+02  0.73066810483E+02  0.15491921949E+03  0.82529137840E+02 0.  0.
        -11    1    4    4    0    0  0.43354791267E+02  0.10273801769E+03  0.51736236299E+02  0.12292833828E+03  0.00000000000E+00 0. -1.
         11    1    4    4    0    0  0.19433185826E+02 -0.13812109699E+02  0.21330574184E+02  0.31990881211E+02  0.00000000000E+00 0.  1.
        -11    1    3    3    0    0 -0.38229724294E+02  0.64626124896E+01 -0.44915323547E+02  0.59335179018E+02  0.00000000000E+00 0.  1.
         11    1    3    3    0    0 -0.21081613058E+02 -0.56831551029E+02 -0.29832976484E+03  0.30442553801E+03  0.00000000000E+00 0. -1.
         21    1    1    2  503  502  0.13484952638E+02 -0.22792159635E+02 -0.13329695988E+03  0.13590219278E+03  0.00000000000E+00 0.  1.
          1    1    1    2  501    0 -0.16961592379E+02 -0.15764809817E+02  0.15017020788E+02  0.27599560829E+02  0.00000000000E+00 0. -1.
<scales pt_clust_5="13000.00000" pt_clust_6="13000.00000" pt_clust_7="13000.00000" pt_clust_8="13000.00000" pt_clust_9="26.53477" pt_clust_10="23.15653"></scales>
<clustering>
<clus scale="   23.157">  1 10  2 -1</clus>
<clus scale="   26.535">  2  9  1 -1</clus>
<clus scale="   82.529">  5  6 -1 -1</clus>
<clus scale="   91.923">  7  8 -1 -1</clus>
<clus scale="  120.088">  1  5  2 -1</clus>
<clus scale="   23.157">  1  5  2 -1</clus>
</clustering>
</event>
<event>
10    2  0.3984345E-006  0.1335414E+03  0.7546771E-02  0.1222520E+00
         21   -1    0    0  501  502  0.00000000000E+00  0.00000000000E+00  0.30570941028E+03  0.30570941028E+03  0.00000000000E+00 0.  1.
          1   -1    0    0  503    0 -0.00000000000E+00 -0.00000000000E+00 -0.24606711382E+03  0.24606711382E+03  0.00000000000E+00 0. -1.
         23    2    1    2    0    0  0.49990380542E+02 -0.52741666110E+02 -0.17618384755E+03  0.21216021741E+03  0.93222788110E+02 0.  0.
         23    2    1    2    0    0 -0.84817779202E+02  0.85581557126E+02  0.18386516812E+03  0.23842631130E+03  0.92317101780E+02 0.  0.
        -11    1    3    3    0    0 -0.22272649529E+02  0.65306514166E+01 -0.50082059233E+02  0.55199030625E+02  0.00000000000E+00 0.  1.
         11    1    3    3    0    0  0.72263030071E+02 -0.59272317527E+02 -0.12610178832E+03  0.15696118679E+03  0.00000000000E+00 0. -1.
        -13    1    4    4    0    0 -0.44545767874E+02  0.97832989006E+02  0.14922020059E+03  0.18390836696E+03  0.00000000000E+00 0.  1.
         13    1    4    4    0    0 -0.40272011328E+02 -0.12251431880E+02  0.34644967531E+02  0.54517944337E+02  0.00000000000E+00 0. -1.
         21    1    1    2  503  502  0.29810513652E+02 -0.36849862440E+00 -0.96749651626E+01  0.31343379944E+02  0.00000000000E+00 0. -1.
          1    1    1    2  501    0  0.50168850081E+01 -0.32471392392E+02  0.61635941053E+02  0.69846615441E+02  0.00000000000E+00 0. -1.
<scales pt_clust_5="13000.00000" pt_clust_6="13000.00000" pt_clust_7="13000.00000" pt_clust_8="13000.00000" pt_clust_9="29.81279" pt_clust_10="32.95049"></scales>
<clustering>
<clus scale="   29.813">  2  9  1 -1</clus>
<clus scale="   32.950">  1 10  2 -1</clus>
<clus scale="   92.317">  7  8 -1 -1</clus>
<clus scale="   93.223">  5  6 -1 -1</clus>
<clus scale="  132.911">  1  7  2 -1</clus>
<clus scale="   32.950">  1  5  2 -1</clus>
</clustering>
</event>
<event>
10    2  0.3984345E-006  0.1711003E+03  0.7546771E-02  0.1177161E+00
          1   -1    0    0  503    0 -0.00000000000E+00  0.00000000000E+00  0.19583810734E+03  0.19583810734E+03  0.00000000000E+00 0. -1.
         21   -1    0    0  501  502  0.00000000000E+00 -0.00000000000E+00 -0.49002066954E+03  0.49002066954E+03  0.00000000000E+00 0. -1.
         23    2    1    2    0    0  0.71468807600E+02 -0.14058086237E+03 -0.17613428087E+03  0.25501101254E+03  0.95585366507E+02 0.  0.
         23    2    1    2    0    0  0.41270057885E+02  0.14323678687E+03 -0.17448093227E+03  0.24739356940E+03  0.92412053678E+02 0.  0.
        -11    1    4    4    0    0 -0.25695498097E+02  0.72830257368E+02 -0.64354113350E+02  0.10052838861E+03  0.00000000000E+00 0. -1.
         11    1    4    4    0    0  0.66965555983E+02  0.70406529502E+02 -0.11012681892E+03  0.14686518080E+03  0.00000000000E+00 0.  1.
        -13    1    3    3    0    0  0.30215459564E+02 -0.11492888949E+03 -0.69089260222E+02  0.13745890118E+03  0.00000000000E+00 0.  1.
         13    1    3    3    0    0  0.41253348036E+02 -0.25651972880E+02 -0.10704502065E+03  0.11755211135E+03  0.00000000000E+00 0. -1.
         21    1    1    2  503  502 -0.21130162738E+02  0.29133559010E+02  0.76399700945E+02  0.84452130479E+02  0.00000000000E+00 0. -1.
          1    1    1    2  501    0 -0.91608702747E+02 -0.31789483507E+02 -0.19967049998E+02  0.99002064455E+02  0.00000000000E+00 0. -1.
<scales pt_clust_5="13000.00000" pt_clust_6="13000.00000" pt_clust_7="13000.00000" pt_clust_8="13000.00000" pt_clust_9="35.98955" pt_clust_10="101.22227"></scales>
<clustering>
<clus scale="   35.990">  1  9  2 -1</clus>
<clus scale="   92.412">  5  6 -1 -1</clus>
<clus scale="   95.585">  7  8 -1 -1</clus>
<clus scale="  101.222">  2 10  1 -1</clus>
<clus scale="  169.348">  2  5  1 -1</clus>
<clus scale="  101.222">  2  5  1 -1</clus>
</clustering>
</event>
<event>
10    2  0.3984345E-006  0.9978287E+02  0.7546771E-02  0.1281750E+00
          2   -1    0    0  503    0 -0.00000000000E+00  0.00000000000E+00  0.18194948420E+03  0.18194948420E+03  0.00000000000E+00 0. -1.
         21   -1    0    0  501  502  0.00000000000E+00 -0.00000000000E+00 -0.10483439451E+03  0.10483439451E+03  0.00000000000E+00 0.  1.
         23    2    1    2    0    0  0.17408757914E+02 -0.15631603737E+02  0.85243630251E+02  0.12847856773E+03  0.93235475967E+02 0.  0.
         23    2    1    2    0    0 -0.11978611371E+02  0.53161850964E+02 -0.69758130892E+01  0.10649457199E+03  0.91229174974E+02 0.  0.
        -13    1    4    4    0    0 -0.19772597642E+02 -0.53408749941E+01  0.30385313396E+02  0.36643523758E+02  0.00000000000E+00 0. -1.
         13    1    4    4    0    0  0.77939862712E+01  0.58502725958E+02 -0.37361126485E+02  0.69851048230E+02  0.00000000000E+00 0.  1.
        -13    1    3    3    0    0 -0.11131898641E+02 -0.43902869117E+02  0.74002999391E+02  0.86763039382E+02  0.00000000000E+00 0. -1.
         13    1    3    3    0    0  0.28540656555E+02  0.28271265380E+02  0.11240630861E+02  0.41715528343E+02  0.00000000000E+00 0.  1.
         21    1    1    2  503  502 -0.12587731483E+02 -0.17276985106E+02  0.13973729408E+02  0.25538408560E+02  0.00000000000E+00 0. -1.
          2    1    1    2  501    0  0.71575849400E+01 -0.20253262122E+02 -0.15126456881E+02  0.26272330436E+02  0.00000000000E+00 0. -1.
<scales pt_clust_5="13000.00000" pt_clust_6="13000.00000" pt_clust_7="13000.00000" pt_clust_8="13000.00000" pt_clust_9="21.37628" pt_clust_10="21.90479"></scales>
<clustering>
<clus scale="   21.376">  1  9  2 -1</clus>
<clus scale="   21.905">  2 10  1 -1</clus>
<clus scale="   91.229">  5  6 -1 -1</clus>
<clus scale="   93.235">  7  8 -1 -1</clus>
<clus scale="   97.911">  2  5  1 -1</clus>
<clus scale="   21.905">  2  5  1 -1</clus>
</clustering>
</event>
<event>
10    2  0.3984345E-006  0.1621080E+03  0.7546771E-02  0.1193424E+00
         21   -1    0    0  503  502  0.00000000000E+00  0.00000000000E+00  0.26386473685E+03  0.26386473685E+03  0.00000000000E+00 0.  1.
         -1   -1    0    0    0  501 -0.00000000000E+00 -0.00000000000E+00 -0.29723644106E+03  0.29723644106E+03  0.00000000000E+00 0.  1.
         23    2    1    2    0    0  0.16032554544E+02  0.99196210333E+02  0.11044441507E+03  0.17604410157E+03  0.93255701847E+02 0.  0.
         23    2    1    2    0    0 -0.87767067358E+02  0.66591495877E+01 -0.71746331076E+02  0.16064782018E+03  0.11363443017E+03 0.  0.
        -11    1    4    4    0    0 -0.11304412917E+01 -0.39457517256E+02 -0.43016569992E+02  0.58383206998E+02  0.00000000000E+00 0. -1.
         11    1    4    4    0    0 -0.86636626066E+02  0.46116666843E+02 -0.28729761083E+02  0.10226461318E+03  0.00000000000E+00 0.  1.
        -11    1    3    3    0    0  0.53465613284E+02  0.58551637077E+02  0.81340872350E+02  0.11359226876E+03  0.00000000000E+00 0.  1.
         11    1    3    3    0    0 -0.37433058740E+02  0.40644573256E+02  0.29103542724E+02  0.62451832806E+02  0.00000000000E+00 0. -1.
         21    1    1    2  503  501 -0.13358236497E+02  0.16197686011E+02 -0.72647586824E+02  0.75620628044E+02  0.00000000000E+00 0.  1.
         -1    1    1    2    0  502  0.85092749311E+02 -0.12205304593E+03  0.57779862077E+00  0.14878862812E+03  0.00000000000E+00 0.  1.
<scales pt_clust_5="13000.00000" pt_clust_6="13000.00000" pt_clust_7="13000.00000" pt_clust_8="13000.00000" pt_clust_9="20.99542" pt_clust_10="115.61241"></scales>
<clustering>
<clus scale="   20.995">  2  9  1 -1</clus>
<clus scale="   93.256">  7  8 -1 -1</clus>
<clus scale="  113.634">  5  6 -1 -1</clus>
<clus scale="  138.609">  2  7  1 -1</clus>
<clus scale="  115.612">  1 10  2 -1</clus>
<clus scale="  115.612">  1  5  2 -1</clus>
</clustering>
</event>
<event>
10    2  0.3984345E-006  0.1902502E+03  0.7546771E-02  0.1187850E+00
          3   -1    0    0  503    0 -0.00000000000E+00  0.00000000000E+00  0.22561587519E+03  0.22561587519E+03  0.00000000000E+00 0. -1.
         21   -1    0    0  501  502  0.00000000000E+00 -0.00000000000E+00 -0.58495748483E+03  0.58495748483E+03  0.00000000000E+00 0. -1.
         23    2    1    2    0    0 -0.10738457779E+01 -0.29306071841E+02 -0.12806084565E+02  0.97815419288E+02  0.92433010646E+02 0.  0.
         23    2    1    2    0    0  0.24346988531E+03  0.64846492688E+02 -0.10726038617E+03  0.28836088061E+03  0.90357923613E+02 0.  0.
        -11    1    4    4    0    0  0.15961485615E+03 -0.52801544220E+00 -0.80262376964E+02  0.17865953728E+03  0.00000000000E+00 0.  1.
         11    1    4    4    0    0  0.83855029156E+02  0.65374508130E+02 -0.26998009209E+02  0.10970134333E+03  0.00000000000E+00 0. -1.
        -13    1    3    3    0    0 -0.31405445304E+02  0.14145123224E+01  0.25205861054E+02  0.40294395036E+02  0.00000000000E+00 0.  1.
         13    1    3    3    0    0  0.30331599527E+02 -0.30720584164E+02 -0.38011945619E+02  0.57521024251E+02  0.00000000000E+00 0. -1.
         21    1    1    2  503  502 -0.12804219826E+03 -0.21728935507E+02  0.28443415631E+02  0.13295104011E+03  0.00000000000E+00 0. -1.
          3    1    1    2  501    0 -0.11435384126E+03 -0.13811485339E+02 -0.26771855453E+03  0.29144602001E+03  0.00000000000E+00 0. -1.
<scales pt_clust_5="13000.00000" pt_clust_6="13000.00000" pt_clust_7="13000.00000" pt_clust_8="13000.00000" pt_clust_9="167.42343" pt_clust_10="115.49688"></scales>
<clustering>
<clus scale="   90.358">  5  6 -1 -1</clus>
<clus scale="   92.433">  7  8 -1 -1</clus>
<clus scale="   96.974">  1  7  2 -1</clus>
<clus scale="  115.497">  2 10  1 -1</clus>
<clus scale="  167.423">  1  9  2 -1</clus>
<clus scale="  115.497">  2  5  1 -1</clus>
</clustering>
</event>
<event>
10    2  0.3984345E-006  0.1118458E+03  0.7546771E-02  0.1257697E+00
         -3   -1    0    0    0  501 -0.00000000000E+00  0.00000000000E+00  0.27962714396E+03  0.27962714396E+03  0.00000000000E+00 0.  1.
         21   -1    0    0  503  502  0.00000000000E+00 -0.00000000000E+00 -0.19650272421E+03  0.19650272421E+03  0.00000000000E+00 0.  1.
         23    2    1    2    0    0 -0.59684007069E+02  0.10432572263E+02  0.20735677710E+02  0.11158943352E+03  0.91384977320E+02 0.  0.
         23    2    1    2    0    0  0.71286541571E+02  0.42199777041E+02  0.57468631957E+01  0.12246921989E+03  0.90017171656E+02 0.  0.
        -11    1    4    4    0    0  0.30183408930E+02 -0.20040972867E+02  0.26685713364E+02  0.44997845125E+02  0.00000000000E+00 0. -1.
         11    1    4    4    0    0  0.41103132641E+02  0.62240749908E+02 -0.20938850169E+02  0.77471374768E+02  0.00000000000E+00 0.  1.
        -13    1    3    3    0    0 -0.28079973639E+02  0.38465103447E+02  0.42710723751E+02  0.63970735701E+02  0.00000000000E+00 0.  1.
         13    1    3    3    0    0 -0.31604033431E+02 -0.28032531184E+02 -0.21975046041E+02  0.47618697821E+02  0.00000000000E+00 0. -1.
         21    1    1    2  503  501  0.78097847603E+01  0.49367673129E+02  0.11326624359E+03  0.12380388453E+03  0.00000000000E+00 0.  1.
         -3    1    1    2    0  502 -0.19412319262E+02 -0.10200002243E+03 -0.56624364750E+02  0.11826733023E+03  0.00000000000E+00 0.  1.
<scales pt_clust_5="13000.00000" pt_clust_6="13000.00000" pt_clust_7="13000.00000" pt_clust_8="13000.00000" pt_clust_9="49.98160" pt_clust_10="94.27306"></scales>
<clustering>
<clus scale="   49.982">  1  9  2 -1</clus>
<clus scale="   90.017">  5  6 -1 -1</clus>
<clus scale="   91.385">  7  8 -1 -1</clus>
<clus scale="   94.273">  2 10  1 -1</clus>
<clus scale="  110.731">  2  5  1 -1</clus>
<clus scale="   94.273">  2  5  1 -1</clus>
</clustering>
</event>
<event>
10    2  0.3984345E-006  0.1001328E+03  0.7546771E-02  0.1283092E+00
         -1   -1    0    0    0  501 -0.00000000000E+00  0.00000000000E+00  0.17614140217E+03  0.17614140217E+03  0.00000000000E+00 0.  1.
         21   -1    0    0  503  502  0.00000000000E+00 -0.00000000000E+00 -0.12557142419E+03  0.12557142419E+03  0.00000000000E+00 0. -1.
         23    2    1    2    0    0  0.28410752906E+02  0.17676911366E+02  0.97336023401E+02  0.13859181176E+03  0.92810262140E+02 0.  0.
         23    2    1    2    0    0 -0.23944598869E+02  0.84979722660E+01 -0.38866339477E+02  0.10897142615E+03  0.98583061558E+02 0.  0.
        -11    1    4    4    0    0  0.37260514634E+02  0.92315234028E+01 -0.41721678338E+01  0.38613131958E+02  0.00000000000E+00 0.  1.
         11    1    4    4    0    0 -0.61205113504E+02 -0.73355113677E+00 -0.34694171643E+02  0.70358294197E+02  0.00000000000E+00 0. -1.
        -11    1    3    3    0    0 -0.31680354927E+02 -0.60136204202E+01  0.45520471377E+02  0.55784602116E+02  0.00000000000E+00 0. -1.
         11    1    3    3    0    0  0.60091107833E+02  0.23690531787E+02  0.51815552024E+02  0.82807209641E+02  0.00000000000E+00 0.  1.
         21    1    1    2  503  501 -0.21176364282E+02 -0.10996813170E+02  0.94639727345E+01  0.25669730891E+02  0.00000000000E+00 0. -1.
         -1    1    1    2    0  502  0.16710210246E+02 -0.15178070463E+02 -0.17363678683E+02  0.28479857563E+02  0.00000000000E+00 0.  1.
<scales pt_clust_5="13000.00000" pt_clust_6="13000.00000" pt_clust_7="13000.00000" pt_clust_8="13000.00000" pt_clust_9="23.30298" pt_clust_10="22.57443"></scales>
<clustering>
<clus scale="   22.574">  2 10  1 -1</clus>
<clus scale="   23.303">  1  9  2 -1</clus>
<clus scale="   92.810">  7  8 -1 -1</clus>
<clus scale="   94.455">  1  7  2 -1</clus>
<clus scale="   98.583">  5  6 -1 -1</clus>
<clus scale="   22.574">  2  5  1 -1</clus>
</clustering>
</event>
<event>
10    2  0.3984345E-006  0.1228460E+03  0.7546771E-02  0.1239188E+00
         21   -1    0    0  501  502  0.00000000000E+00  0.00000000000E+00  0.37868518374E+02  0.37868518374E+02  0.00000000000E+00 0. -1.
          2   -1    0    0  503    0 -0.00000000000E+00 -0.00000000000E+00 -0.76077396549E+03  0.76077396549E+03  0.00000000000E+00 0. -1.
         23    2    1    2    0    0  0.23193027233E+02  0.54313255983E+02 -0.25642359781E+03  0.27939518940E+03  0.93918922798E+02 0.  0.
         23    2    1    2    0    0 -0.68620510452E+02 -0.76716486051E+02 -0.20407046280E+03  0.24622771352E+03  0.91592245464E+02 0.  0.
        -11    1    4    4    0    0 -0.73872896145E+02 -0.45039616175E+02 -0.79204278239E+02  0.11729914536E+03  0.00000000000E+00 0. -1.
         11    1    4    4    0    0  0.52523856931E+01 -0.31676869876E+02 -0.12486618456E+03  0.12892856816E+03  0.00000000000E+00 0.  1.
        -13    1    3    3    0    0  0.47639222465E+02  0.67603498847E+02 -0.20189950088E+03  0.21818143145E+03  0.00000000000E+00 0. -1.
         13    1    3    3    0    0 -0.24446195232E+02 -0.13290242864E+02 -0.54524096931E+02  0.61213757954E+02  0.00000000000E+00 0.  1.
         21    1    1    2  503  502  0.98020748990E+01  0.25114738877E+02 -0.19376861767E+03  0.19563513993E+03  0.00000000000E+00 0. -1.
          2    1    1    2  501    0  0.35625408320E+02 -0.27115088088E+01 -0.68642768828E+02  0.77384441010E+02  0.00000000000E+00 0. -1.
<scales pt_clust_5="13000.00000" pt_clust_6="13000.00000" pt_clust_7="13000.00000" pt_clust_8="13000.00000" pt_clust_9="26.95980" pt_clust_10="36.89350"></scales>
<clustering>
<clus scale="   26.960">  2  9  1 -1</clus>
<clus scale="   36.894">  1 10  2 -1</clus>
<clus scale="   91.592">  5  6 -1 -1</clus>
<clus scale="   93.919">  7  8 -1 -1</clus>
<clus scale="  121.076">  1  5  2 -1</clus>
<clus scale="   36.894">  1  5  2 -1</clus>
</clustering>
</event>
<event>
10    2  0.3984345E-006  0.1668097E+03  0.7546771E-02  0.1181844E+00
         21   -1    0    0  501  502  0.00000000000E+00  0.00000000000E+00  0.53641943582E+02  0.53641943582E+02  0.00000000000E+00 0.  1.
          1   -1    0    0  503    0 -0.00000000000E+00 -0.00000000000E+00 -0.11827703252E+04  0.11827703252E+04  0.00000000000E+00 0. -1.
         23    2    1    2    0    0  0.98625813747E+02  0.56637463294E+02 -0.33117375565E+03  0.36134439865E+03  0.89212468939E+02 0.  0.
         23    2    1    2    0    0 -0.10921101024E+03 -0.14817297405E+03 -0.44312005704E+03  0.48884468375E+03  0.93442307791E+02 0.  0.
        -11    1    3    3    0    0  0.21389630660E+02 -0.15070521269E+02 -0.14559175729E+03  0.14792429382E+03  0.00000000000E+00 0.  1.
         11    1    3    3    0    0  0.77236183087E+02  0.71707984563E+02 -0.18558199836E+03  0.21342010482E+03  0.00000000000E+00 0. -1.
        -13    1    4    4    0    0 -0.29389686358E+02 -0.10335665294E+03 -0.30283682720E+03  0.32133548711E+03  0.00000000000E+00 0. -1.
         13    1    4    4    0    0 -0.79821323878E+02 -0.44816321110E+02 -0.14028322984E+03  0.16750919664E+03  0.00000000000E+00 0.  1.
         21    1    1    2  503  502 -0.35234294915E+02  0.27317732763E+02 -0.25556609125E+03  0.25942579104E+03  0.00000000000E+00 0.  1.
          1    1    1    2  501    0  0.45819491404E+02  0.64217777993E+02 -0.99268477630E+02  0.12679739530E+03  0.00000000000E+00 0. -1.
<scales pt_clust_5="13000.00000" pt_clust_6="13000.00000" pt_clust_7="13000.00000" pt_clust_8="13000.00000" pt_clust_9="44.58379" pt_clust_10="79.29177"></scales>
<clustering>
<clus scale="   44.584">  2  9  1 -1</clus>
<clus scale="   79.292">  1 10  2 -1</clus>
<clus scale="   89.212">  5  6 -1 -1</clus>
<clus scale="   93.442">  7  8 -1 -1</clus>
<clus scale="  164.478">  2  5  1 -1</clus>
<clus scale="   79.292">  1  5  2 -1</clus>
</clustering>
</event>
<event>
10    2  0.3984345E-006  0.1166251E+03  0.7546771E-02  0.1248782E+00
         -3   -1    0    0    0  501 -0.00000000000E+00  0.00000000000E+00  0.30060027358E+03  0.30060027358E+03  0.00000000000E+00 0.  1.
         21   -1    0    0  503  502  0.00000000000E+00 -0.00000000000E+00 -0.11562893894E+03  0.11562893894E+03  0.00000000000E+00 0. -1.
         23    2    1    2    0    0  0.67941179385E+02 -0.63749460641E+02  0.16659622743E+03  0.21173786285E+03  0.91643995884E+02 0.  0.
         23    2    1    2    0    0 -0.17548417814E+02  0.69100317482E+02 -0.37031359804E+02  0.12189787081E+03  0.91678615032E+02 0.  0.
        -11    1    4    4    0    0  0.24475802331E+02  0.34026635504E+02  0.16770928291E+02  0.45145773437E+02  0.00000000000E+00 0.  1.
         11    1    4    4    0    0 -0.42024220145E+02  0.35073681978E+02 -0.53802288095E+02  0.76752097369E+02  0.00000000000E+00 0. -1.
        -11    1    3    3    0    0  0.53492462423E+02 -0.87686711543E+02  0.12986273748E+03  0.16557395177E+03  0.00000000000E+00 0.  1.
         11    1    3    3    0    0  0.14448716962E+02  0.23937250902E+02  0.36733489948E+02  0.46163911082E+02  0.00000000000E+00 0. -1.
         21    1    1    2  503  501 -0.31668864125E+02  0.78171319554E+01  0.48926607070E+02  0.58803379039E+02  0.00000000000E+00 0. -1.
         -3    1    1    2    0  502 -0.18723897447E+02 -0.13167988797E+02  0.64798599455E+01  0.23790099821E+02  0.00000000000E+00 0.  1.
<scales pt_clust_5="13000.00000" pt_clust_6="13000.00000" pt_clust_7="13000.00000" pt_clust_8="13000.00000" pt_clust_9="33.32244" pt_clust_10="22.89062"></scales>
<clustering>
<clus scale="   22.891">  2 10  1 -1</clus>
<clus scale="   33.322">  1  9  2 -1</clus>
<clus scale="   91.644">  7  8 -1 -1</clus>
<clus scale="   91.679">  5  6 -1 -1</clus>
<clus scale="  116.598">  1  7  2 -1</clus>
<clus scale="   22.891">  2  5  1 -1</clus>
</clustering>
</event>
<event>
10    2  0.3984345E-006  0.9748821E+02  0.7546771E-02  0.1287437E+00
          1   -1    0    0  503    0 -0.00000000000E+00  0.00000000000E+00  0.71317463310E+02  0.71317463310E+02  0.00000000000E+00 0. -1.
         21   -1    0    0  501  502  0.00000000000E+00 -0.00000000000E+00 -0.60060613490E+03  0.60060613490E+03  0.00000000000E+00 0. -1.
         23    2    1    2    0    0  0.57662453482E+02 -0.22135287602E+02 -0.83065531922E+02  0.13843665200E+03  0.91923307849E+02 0.  0.
         23    2    1    2    0    0  0.20497098811E+02 -0.39183550440E+02 -0.22182261658E+03  0.24289508363E+03  0.88528338612E+02 0.  0.
        -11    1    4    4    0    0 -0.20164268399E+02  0.10455976531E+02 -0.12291578623E+03  0.12499686264E+03  0.00000000000E+00 0.  1.
         11    1    4    4    0    0  0.40661367211E+02 -0.49639526971E+02 -0.98906830355E+02  0.11789822099E+03  0.00000000000E+00 0. -1.
        -11    1    3    3    0    0  0.33880725119E+02 -0.57539364764E+02 -0.60883912836E+02  0.90363338110E+02  0.00000000000E+00 0. -1.
         11    1    3    3    0    0  0.23781728363E+02  0.35404077162E+02 -0.22181619086E+02  0.48073313895E+02  0.00000000000E+00 0.  1.
         21    1    1    2  503  502 -0.88961008687E+01  0.64928480783E+02 -0.11317420035E+02  0.66505129304E+02  0.00000000000E+00 0. -1.
          1    1    1    2  501    0 -0.69263451425E+02 -0.36096427407E+01 -0.21308310305E+03  0.22408673327E+03  0.00000000000E+00 0. -1.
<scales pt_clust_5="13000.00000" pt_clust_6="13000.00000" pt_clust_7="13000.00000" pt_clust_8="13000.00000" pt_clust_9="65.53509" pt_clust_10="70.53045"></scales>
<clustering>
<clus scale="   65.535">  1  9  2 -1</clus>
<clus scale="   70.530">  2 10  1 -1</clus>
<clus scale="   88.528">  5  6 -1 -1</clus>
<clus scale="   91.923">  7  8 -1 -1</clus>
<clus scale="   94.294">  2  5  1 -1</clus>
<clus scale="   70.530">  2  5  1 -1</clus>
</clustering>
</event>
<event>
10    2  0.3984345E-006  0.1172438E+03  0.7546771E-02  0.1247966E+00
         21   -1    0    0  501  502  0.00000000000E+00  0.00000000000E+00  0.15384033755E+03  0.15384033755E+03  0.00000000000E+00 0.  1.
          1   -1    0    0  503    0 -0.00000000000E+00 -0.00000000000E+00 -0.42836995275E+03  0.42836995275E+03  0.00000000000E+00 0. -1.
         23    2    1    2    0    0 -0.30906540230E+02 -0.61851506082E+02 -0.16892348758E+03  0.20422508885E+03  0.91607419053E+02 0.  0.
         23    2    1    2    0    0 -0.12863280443E+02  0.14553313254E+03  0.14502804436E+02  0.17265421588E+03  0.90850373002E+02 0.  0.
        -13    1    3    3    0    0  0.23583668329E+02 -0.49545626491E+02 -0.56912494380E+02  0.79056881628E+02  0.00000000000E+00 0. -1.
         13    1    3    3    0    0 -0.54490208559E+02 -0.12305879592E+02 -0.11201099320E+03  0.12516820722E+03  0.00000000000E+00 0.  1.
        -13    1    4    4    0    0 -0.35337224221E+02  0.14052820169E+03  0.25514121638E+02  0.14713213548E+03  0.00000000000E+00 0.  1.
         13    1    4    4    0    0  0.22473943779E+02  0.50049308488E+01 -0.11011317203E+02  0.25522080407E+02  0.00000000000E+00 0. -1.
         21    1    1    2  503  502  0.26335873874E+02  0.60304221460E+01 -0.11013216017E+03  0.11339769375E+03  0.00000000000E+00 0. -1.
          1    1    1    2  501    0  0.17433946798E+02 -0.89712048607E+02 -0.99767718802E+01  0.91933291812E+02  0.00000000000E+00 0. -1.
<scales pt_clust_5="13000.00000" pt_clust_6="13000.00000" pt_clust_7="13000.00000" pt_clust_8="13000.00000" pt_clust_9="27.01748" pt_clust_10="91.34961"></scales>
<clustering>
<clus scale="   27.017">  2  9  1 -1</clus>
<clus scale="   90.850">  7  8 -1 -1</clus>
<clus scale="   91.350">  1 10  2 -1</clus>
<clus scale="   91.607">  5  6 -1 -1</clus>
<clus scale="  116.653">  1  7  2 -1</clus>
<clus scale="   91.350">  1  5  2 -1</clus>
</clustering>
</event>
<event>
10    2  0.3984345E-006  0.1009714E+03  0.7546771E-02  0.1284395E+00
         21   -1    0    0  501  502  0.00000000000E+00  0.00000000000E+00  0.67854343729E+03  0.67854343729E+03  0.00000000000E+00 0.  1.
          3   -1    0    0  503    0 -0.00000000000E+00 -0.00000000000E+00 -0.54559200345E+02  0.54559200345E+02  0.00000000000E+00 0. -1.
         23    2    1    2    0    0 -0.85816401784E+01  0.68938134102E+01  0.69700710045E+02  0.11378291051E+03  0.89259131368E+02 0.  0.
         23    2    1    2    0    0 -0.40082711210E+02 -0.11148956584E+02  0.34776321059E+03  0.36435484426E+03  0.10042051049E+03 0.  0.
        -11    1    4    4    0    0 -0.28071063179E+02  0.43307440899E+02  0.13899708085E+03  0.14826903760E+03  0.00000000000E+00 0.  1.
         11    1    4    4    0    0 -0.12011648032E+02 -0.54456397483E+02  0.20876612974E+03  0.21608580667E+03  0.00000000000E+00 0. -1.
        -13    1    3    3    0    0 -0.38735508065E+02  0.31670708294E+02  0.46922661022E+02  0.68594529419E+02  0.00000000000E+00 0.  1.
         13    1    3    3    0    0  0.30153867886E+02 -0.24776894884E+02  0.22778049023E+02  0.45188381094E+02  0.00000000000E+00 0. -1.
         21    1    1    2  503  502  0.16994383691E+02 -0.10618342073E+02 -0.18480644685E+02  0.27259722915E+02  0.00000000000E+00 0. -1.
          3    1    1    2  501    0  0.31669967698E+02  0.14873485247E+02  0.22500096099E+03  0.22770515994E+03  0.00000000000E+00 0. -1.
<scales pt_clust_5="13000.00000" pt_clust_6="13000.00000" pt_clust_7="13000.00000" pt_clust_8="13000.00000" pt_clust_9="20.03892" pt_clust_10="35.45969"></scales>
<clustering>
<clus scale="   20.039">  2  9  1 -1</clus>
<clus scale="   35.460">  1 10  2 -1</clus>
<clus scale="   89.259">  7  8 -1 -1</clus>
<clus scale="   89.878">  2  7  1 -1</clus>
<clus scale="  100.421">  5  6 -1 -1</clus>
<clus scale="   35.460">  1  5  2 -1</clus>
</clustering>
</event>
<event>
10    2  0.3984345E-006  0.1035453E+03  0.7546771E-02  0.1273850E+00
         21   -1    0    0  503  502  0.00000000000E+00  0.00000000000E+00  0.15579810526E+03  0.15579810526E+03  0.00000000000E+00 0.  1.
         -1   -1    0    0    0  501 -0.00000000000E+00 -0.00000000000E+00 -0.20643094748E+03  0.20643094748E+03  0.00000000000E+00 0.  1.
         23    2    1    2    0    0  0.50116870039E+01  0.67191120845E+02 -0.98375392732E+02  0.15038426943E+03  0.91640312471E+02 0.  0.
         23    2    1    2    0    0 -0.52839364995E+02 -0.42304109737E+02  0.58698089420E+02  0.12682753243E+03  0.89767037867E+02 0.  0.
        -11    1    3    3    0    0 -0.32542981395E+02  0.26136620493E+02 -0.54758968636E+01  0.42096959692E+02  0.00000000000E+00 0. -1.
         11    1    3    3    0    0  0.37554668399E+02  0.41054500352E+02 -0.92899495869E+02  0.10828730974E+03  0.00000000000E+00 0.  1.
        -13    1    4    4    0    0 -0.14834484812E+01 -0.58491858772E+02  0.28342336669E+02  0.65013738624E+02  0.00000000000E+00 0.  1.
         13    1    4    4    0    0 -0.51355916513E+02  0.16187749036E+02  0.30355752751E+02  0.61813793807E+02  0.00000000000E+00 0. -1.
         21    1    1    2  503  501  0.49461281464E+01 -0.33787773506E+02 -0.20994963512E+02  0.40085737052E+02  0.00000000000E+00 0.  1.
         -1    1    1    2    0  502  0.42881549844E+02  0.89007623974E+01  0.10039424598E+02  0.44931513825E+02  0.00000000000E+00 0.  1.
<scales pt_clust_5="13000.00000" pt_clust_6="13000.00000" pt_clust_7="13000.00000" pt_clust_8="13000.00000" pt_clust_9="34.14788" pt_clust_10="43.72573"></scales>
<clustering>
<clus scale="   34.148">  2  9  1 -1</clus>
<clus scale="   43.726">  1 10  2 -1</clus>
<clus scale="   89.767">  7  8 -1 -1</clus>
<clus scale="   91.640">  5  6 -1 -1</clus>
<clus scale="  101.891">  1  7  2 -1</clus>
<clus scale="   43.726">  1  5  2 -1</clus>
</clustering>
</event>
<event>
10    2  0.3984345E-006  0.1958344E+03  0.7546771E-02  0.1170750E+00
          2   -1    0    0  503    0 -0.00000000000E+00  0.00000000000E+00  0.16275214760E+04  0.16275214760E+04  0.00000000000E+00 0.  1.
         21   -1    0    0  501  502  0.00000000000E+00 -0.00000000000E+00 -0.61739059713E+02  0.61739059713E+02  0.00000000000E+00 0.  1.
         23    2    1    2    0    0 -0.85096859456E+02 -0.10502412972E+02  0.31227894226E+03  0.33721795842E+03  0.94053376005E+02 0.  0.
         23    2    1    2    0    0  0.15862091705E+03  0.83633329166E+02  0.46260939177E+03  0.50540928796E+03  0.96311836923E+02 0.  0.
        -11    1    4    4    0    0  0.60431389819E+02  0.80645695654E+01  0.65788057955E+02  0.89694251361E+02  0.00000000000E+00 0. -1.
         11    1    4    4    0    0  0.98189527228E+02  0.75568759600E+02  0.39682133382E+03  0.41571503660E+03  0.00000000000E+00 0.  1.
        -11    1    3    3    0    0 -0.81494342143E+02 -0.38919829261E+02  0.27928825705E+03  0.29352684960E+03  0.00000000000E+00 0. -1.
         11    1    3    3    0    0 -0.36025173132E+01  0.28417416289E+02  0.32990685204E+02  0.43691108818E+02  0.00000000000E+00 0.  1.
         21    1    1    2  503  502 -0.15019448452E+02  0.10533159069E+03  0.38436256884E+03  0.39881689051E+03  0.00000000000E+00 0.  1.
          2    1    1    2  501    0 -0.58504609138E+02 -0.17846250688E+03  0.40653151347E+03  0.44781639887E+03  0.00000000000E+00 0.  1.
<scales pt_clust_5="13000.00000" pt_clust_6="13000.00000" pt_clust_7="13000.00000" pt_clust_8="13000.00000" pt_clust_9="106.39703" pt_clust_10="170.51438"></scales>
<clustering>
<clus scale="   94.053">  7  8 -1 -1</clus>
<clus scale="   96.312">  5  6 -1 -1</clus>
<clus scale="  106.397">  1  9  2 -1</clus>
<clus scale="  130.651">  1  7  2 -1</clus>
<clus scale="  170.514">  2 10  1 -1</clus>
<clus scale="  170.514">  2  5  1 -1</clus>
</clustering>
</event>
<event>
10    2  0.3984345E-006  0.1606058E+03  0.7546771E-02  0.1208791E+00
          2   -1    0    0  503    0 -0.00000000000E+00  0.00000000000E+00  0.63974603300E+03  0.63974603300E+03  0.00000000000E+00 0. -1.
         21   -1    0    0  501  502  0.00000000000E+00 -0.00000000000E+00 -0.19758884513E+03  0.19758884513E+03  0.00000000000E+00 0. -1.
         23    2    1    2    0    0 -0.21780986831E+02 -0.13508702152E+02  0.98825955730E+02  0.13522471864E+03  0.88669377943E+02 0.  0.
         23    2    1    2    0    0  0.93529501540E+02 -0.77739351859E+02 -0.29050057768E+02  0.15472173087E+03  0.91124824615E+02 0.  0.
        -11    1    3    3    0    0 -0.24259195294E+02  0.21795309847E+02  0.26216385547E+01  0.32717229045E+02  0.00000000000E+00 0. -1.
         11    1    3    3    0    0  0.24782084632E+01 -0.35304011999E+02  0.96204317175E+02  0.10250748960E+03  0.00000000000E+00 0.  1.
        -13    1    4    4    0    0  0.36190858687E+02  0.91691736694E+01  0.16817389148E+02  0.40947241373E+02  0.00000000000E+00 0.  1.
         13    1    4    4    0    0  0.57338642854E+02 -0.86908525528E+02 -0.45867446916E+02  0.11377448950E+03  0.00000000000E+00 0. -1.
         21    1    1    2  503  502 -0.21653833504E+02 -0.55450906197E+02  0.38712254703E+03  0.39167276893E+03  0.00000000000E+00 0. -1.
          2    1    1    2  501    0 -0.50094681206E+02  0.14669896021E+03 -0.14741257128E+02  0.15571565969E+03  0.00000000000E+00 0. -1.
<scales pt_clust_5="13000.00000" pt_clust_6="13000.00000" pt_clust_7="13000.00000" pt_clust_8="13000.00000" pt_clust_9="59.52891" pt_clust_10="132.25163"></scales>
<clustering>
<clus scale="   59.529">  1  9  2 -1</clus>
<clus scale="   88.669">  5  6 -1 -1</clus>
<clus scale="   91.125">  7  8 -1 -1</clus>
<clus scale="  102.151">  1  5  2 -1</clus>
<clus scale="  132.252">  2 10  1 -1</clus>
<clus scale="  132.252">  2  5  1 -1</clus>
</clustering>
</event>
<event>
10    2  0.3984345E-006  0.1333054E+03  0.7546771E-02  0.1224331E+00
         -3   -1    0    0    0  501 -0.00000000000E+00  0.00000000000E+00  0.70061056964E+03  0.70061056964E+03  0.00000000000E+00 0.  1.
         21   -1    0    0  503  502  0.00000000000E+00 -0.00000000000E+00 -0.65232073675E+02  0.65232073675E+02  0.00000000000E+00 0. -1.
         23    2    1    2    0    0  0.72305209006E+02  0.21149053480E+02  0.37272453260E+03  0.39067189002E+03  0.89585840035E+02 0.  0.
         23    2    1    2    0    0 -0.11336516377E+03 -0.18026500341E+02  0.16959723666E+03  0.22623580894E+03  0.96139500159E+02 0.  0.
        -11    1    3    3    0    0  0.38013460995E+02  0.50011872104E+02  0.13688797375E+03  0.15061383710E+03  0.00000000000E+00 0. -1.
         11    1    3    3    0    0  0.34291748011E+02 -0.28862818624E+02  0.23583655885E+03  0.24005805292E+03  0.00000000000E+00 0.  1.
        -13    1    4    4    0    0 -0.38719937051E+02  0.54757246121E+01  0.13521874560E+03  0.14075981759E+03  0.00000000000E+00 0.  1.
         13    1    4    4    0    0 -0.74645226721E+02 -0.23502224954E+02  0.34378491064E+02  0.85475991353E+02  0.00000000000E+00 0. -1.
         21    1    1    2  503  501  0.18279584614E+02 -0.91090080242E+01  0.11496639114E+03  0.11676638358E+03  0.00000000000E+00 0. -1.
         -3    1    1    2    0  502  0.22780370152E+02  0.59864548854E+01 -0.21909664447E+02  0.32168560778E+02  0.00000000000E+00 0.  1.
<scales pt_clust_5="13000.00000" pt_clust_6="13000.00000" pt_clust_7="13000.00000" pt_clust_8="13000.00000" pt_clust_9="20.42345" pt_clust_10="23.68890"></scales>
<clustering>
<clus scale="   20.423">  1  9  2 -1</clus>
<clus scale="   23.689">  2 10  1 -1</clus>
<clus scale="   89.586">  5  6 -1 -1</clus>
<clus scale="   96.140">  7  8 -1 -1</clus>
<clus scale="  128.659">  1  5  2 -1</clus>
<clus scale="   23.689">  2  5  1 -1</clus>
</clustering>
</event>
<event>
10    2  0.3984345E-006  0.2004317E+03  0.7546771E-02  0.1149410E+00
          3   -1    0    0  503    0 -0.00000000000E+00  0.00000000000E+00  0.33820784184E+03  0.33820784184E+03  0.00000000000E+00 0. -1.
         21   -1    0    0  501  502  0.00000000000E+00 -0.00000000000E+00 -0.21162400054E+03  0.21162400054E+03  0.00000000000E+00 0. -1.
         23    2    1    2    0    0 -0.14715275126E+03 -0.54771554696E+02  0.59069490183E+02  0.19104978563E+03  0.91416412707E+02 0.  0.
         23    2    1    2    0    0  0.17403643933E+03  0.11099323962E+03  0.75843449578E+02  0.23801609705E+03  0.91056313083E+02 0.  0.
        -11    1    3    3    0    0 -0.99511844892E+02  0.10286607349E+02  0.22669301595E+02  0.10257835444E+03  0.00000000000E+00 0. -1.
         11    1    3    3    0    0 -0.47640906371E+02 -0.65058162045E+02  0.36400188587E+02  0.88471431195E+02  0.00000000000E+00 0.  1.
        -13    1    4    4    0    0  0.21703695475E+02 -0.83133534476E+01  0.32117309658E+02  0.39644467741E+02  0.00000000000E+00 0.  1.
         13    1    4    4    0    0  0.15233274385E+03  0.11930659307E+03  0.43726139920E+02  0.19837162931E+03  0.00000000000E+00 0. -1.
         21    1    1    2  503  502  0.18846416720E+02 -0.34754152707E+02  0.36064579924E+02  0.53513479411E+02  0.00000000000E+00 0. -1.
          3    1    1    2  501    0 -0.45730104788E+02 -0.21467532222E+02 -0.44393678386E+02  0.67252480284E+02  0.00000000000E+00 0. -1.
<scales pt_clust_5="13000.00000" pt_clust_6="13000.00000" pt_clust_7="13000.00000" pt_clust_8="13000.00000" pt_clust_9="39.53528" pt_clust_10="50.45246"></scales>
<clustering>
<clus scale="   39.535">  1  9  2 -1</clus>
<clus scale="   50.452">  2 10  1 -1</clus>
<clus scale="   91.056">  7  8 -1 -1</clus>
<clus scale="   91.416">  5  6 -1 -1</clus>
<clus scale="  200.268">  2  7  1 -1</clus>
<clus scale="   50.452">  2  5  1 -1</clus>
</clustering>
</event>
<event>
10    2  0.3984345E-006  0.9612559E+02  0.7546771E-02  0.1289319E+00
         21   -1    0    0  501  502  0.00000000000E+00  0.00000000000E+00  0.31681264415E+02  0.31681264415E+02  0.00000000000E+00 0. -1.
          1   -1    0    0  503    0 -0.00000000000E+00 -0.00000000000E+00 -0.10221650843E+04  0.10221650843E+04  0.00000000000E+00 0. -1.
         23    2    1    2    0    0 -0.35085032012E+02  0.26800545933E+02 -0.55220994766E+03  0.56160780821E+03  0.92294502627E+02 0.  0.
         23    2    1    2    0    0 -0.12732545885E+02 -0.16734957474E+02 -0.34299508353E+03  0.35613416712E+03  0.93507973665E+02 0.  0.
        -13    1    3    3    0    0  0.23022792257E+02  0.36739295366E+02 -0.23219404118E+03  0.23620731900E+03  0.00000000000E+00 0.  1.
         13    1    3    3    0    0 -0.58107824270E+02 -0.99387494336E+01 -0.32001590648E+03  0.32540048921E+03  0.00000000000E+00 0. -1.
        -13    1    4    4    0    0 -0.17622238066E+02  0.37177255924E+02 -0.12922134111E+03  0.13561285570E+03  0.00000000000E+00 0.  1.
         13    1    4    4    0    0  0.48896921808E+01 -0.53912213399E+02 -0.21377374241E+03  0.22052131141E+03  0.00000000000E+00 0. -1.
         21    1    1    2  503  502  0.21502132091E+02 -0.16305931023E+02 -0.10419069863E+03  0.10762865210E+03  0.00000000000E+00 0. -1.
          1    1    1    2  501    0  0.26315445807E+02  0.62403425649E+01  0.89119099457E+01  0.28475721276E+02  0.00000000000E+00 0. -1.
<scales pt_clust_5="13000.00000" pt_clust_6="13000.00000" pt_clust_7="13000.00000" pt_clust_8="13000.00000" pt_clust_9="26.98565" pt_clust_10="27.22933"></scales>
<clustering>
<clus scale="   26.986">  2  9  1 -1</clus>
<clus scale="   27.229">  1 10  2 -1</clus>
<clus scale="   92.295">  5  6 -1 -1</clus>
<clus scale="   93.508">  7  8 -1 -1</clus>
<clus scale="   94.946">  2  5  1 -1</clus>
<clus scale="   27.229">  1  5  2 -1</clus>
</clustering>
</event>
<event>
10    2  0.3984345E-006  0.1084948E+03  0.7546771E-02  0.1265274E+00
          2   -1    0    0  503    0 -0.00000000000E+00  0.00000000000E+00  0.66750572952E+03  0.66750572952E+03  0.00000000000E+00 0. -1.
         21   -1    0    0  501  502  0.00000000000E+00 -0.00000000000E+00 -0.40022533984E+02  0.40022533984E+02  0.00000000000E+00 0. -1.
         23    2    1    2    0    0 -0.14419643053E+02  0.27562288800E+02  0.21705538578E+03  0.23881185770E+03  0.94606854998E+02 0.  0.
         23    2    1    2    0    0  0.31624216707E+02 -0.71286999745E+02  0.12836404379E+03  0.17513504573E+03  0.90072354753E+02 0.  0.
        -11    1    3    3    0    0  0.31924030411E+02  0.27926587243E+02  0.15881802940E+03  0.16438431938E+03  0.00000000000E+00 0. -1.
         11    1    3    3    0    0 -0.46343673464E+02 -0.36429844310E+00  0.58237356377E+02  0.74427538326E+02  0.00000000000E+00 0.  1.
        -11    1    4    4    0    0 -0.20567197516E+02 -0.60696506689E+02  0.54823085069E+02  0.84336505704E+02  0.00000000000E+00 0. -1.
         11    1    4    4    0    0  0.52191414223E+02 -0.10590493056E+02  0.73540958718E+02  0.90798540027E+02  0.00000000000E+00 0.  1.
         21    1    1    2  503  502 -0.33904234722E+02  0.15793566324E+02  0.73245581533E+02  0.82242623276E+02  0.00000000000E+00 0. -1.
          2    1    1    2  501    0  0.16699661068E+02  0.27931144621E+02  0.20881818444E+03  0.21133873680E+03  0.00000000000E+00 0. -1.
<scales pt_clust_5="13000.00000" pt_clust_6="13000.00000" pt_clust_7="13000.00000" pt_clust_8="13000.00000" pt_clust_9="37.20444" pt_clust_10="32.54272"></scales>
<clustering>
<clus scale="   32.543">  2 10  1 -1</clus>
<clus scale="   37.204">  1  9  2 -1</clus>
<clus scale="   90.072">  7  8 -1 -1</clus>
<clus scale="   94.607">  5  6 -1 -1</clus>
<clus scale="  104.564">  2  7  1 -1</clus>
<clus scale="   32.543">  2  5  1 -1</clus>
</clustering>
</event>
<event>
10    2  0.3984345E-006  0.1152594E+03  0.7546771E-02  0.1253302E+00
          4   -1    0    0  503    0 -0.00000000000E+00  0.00000000000E+00  0.39661829034E+03  0.39661829034E+03  0.00000000000E+00 0. -1.
         21   -1    0    0  501  502  0.00000000000E+00 -0.00000000000E+00 -0.17920833481E+03  0.17920833481E+03  0.00000000000E+00 0. -1.
         23    2    1    2    0    0  0.81473524329E+02  0.91457654714E+01  0.23206321433E+03  0.26408685342E+03  0.95744193101E+02 0.  0.
         23    2    1    2    0    0 -0.20132063454E+02 -0.88789052430E+02  0.19160524647E+02  0.12931231893E+03  0.89809544658E+02 0.  0.
        -11    1    3    3    0    0  0.32385809277E+02  0.46091752969E+02  0.64611335955E+02  0.85719980566E+02  0.00000000000E+00 0.  1.
         11    1    3    3    0    0  0.49087715052E+02 -0.36945987498E+02  0.16745187838E+03  0.17836687286E+03  0.00000000000E+00 0. -1.
        -13    1    4    4    0    0  0.30750627309E+02 -0.39539086696E+02  0.28904982070E+02  0.57831120040E+02  0.00000000000E+00 0.  1.
         13    1    4    4    0    0 -0.50882690763E+02 -0.49249965734E+02 -0.97444574227E+01  0.71481198888E+02  0.00000000000E+00 0. -1.
         21    1    1    2  503  502 -0.26663979762E+02  0.15169801631E+02  0.57631832823E+02  0.65287968668E+02  0.00000000000E+00 0.  1.
          4    1    1    2  501    0 -0.34677481113E+02  0.64473485328E+02 -0.91445616277E+02  0.11713948413E+03  0.00000000000E+00 0. -1.
<scales pt_clust_5="13000.00000" pt_clust_6="13000.00000" pt_clust_7="13000.00000" pt_clust_8="13000.00000" pt_clust_9="30.67720" pt_clust_10="74.20650"></scales>
<clustering>
<clus scale="   30.677">  1  9  2 -1</clus>
<clus scale="   74.206">  2 10  1 -1</clus>
<clus scale="   89.810">  7  8 -1 -1</clus>
<clus scale="   95.744">  5  6 -1 -1</clus>
<clus scale="  110.379">  2  7  1 -1</clus>
<clus scale="   74.206">  2  5  1 -1</clus>
</clustering>
</event>
<event>
10    2  0.3984345E-006  0.1535477E+03  0.7546771E-02  0.1197468E+00
          2   -1    0    0  503    0 -0.00000000000E+00  0.00000000000E+00  0.74428064861E+03  0.74428064861E+03  0.00000000000E+00 0. -1.
         21   -1    0    0  501  502  0.00000000000E+00 -0.00000000000E+00 -0.11093311720E+03  0.11093311720E+03  0.00000000000E+00 0.  1.
         23    2    1    2    0    0  0.55357429850E+02  0.11670745877E+03  0.49563377715E+03  0.51899461785E+03  0.83770497975E+02 0.  0.
         23    2    1    2    0    0 -0.19180805734E+02 -0.62560397010E+02 -0.28516916154E+02  0.11576621940E+03  0.91142177205E+02 0.  0.
        -11    1    3    3    0    0  0.46715503833E+02  0.41852354976E+02  0.11517747671E+03  0.13114804252E+03  0.00000000000E+00 0.  1.
         11    1    3    3    0    0  0.86419260171E+01  0.74855103792E+02  0.38045630045E+03  0.38784657533E+03  0.00000000000E+00 0. -1.
        -13    1    4    4    0    0 -0.22578794314E+02 -0.48209484070E+01  0.27047602577E+02  0.35561444028E+02  0.00000000000E+00 0. -1.
         13    1    4    4    0    0  0.33979885802E+01 -0.57739448603E+02 -0.55564518730E+02  0.80204775376E+02  0.00000000000E+00 0.  1.
         21    1    1    2  503  502  0.27874448571E+02 -0.75674002385E+01  0.13034133347E+03  0.13350323456E+03  0.00000000000E+00 0.  1.
          2    1    1    2  501    0 -0.64051072687E+02 -0.46579661519E+02  0.35889336945E+02  0.86949693995E+02  0.00000000000E+00 0. -1.
<scales pt_clust_5="13000.00000" pt_clust_6="13000.00000" pt_clust_7="13000.00000" pt_clust_8="13000.00000" pt_clust_9="28.88339" pt_clust_10="77.41549"></scales>
<clustering>
<clus scale="   28.883">  1  9  2 -1</clus>
<clus scale="   77.415">  2 10  1 -1</clus>
<clus scale="   83.770">  5  6 -1 -1</clus>
<clus scale="   91.142">  7  8 -1 -1</clus>
<clus scale="  149.290">  1  5  2 -1</clus>
<clus scale="   77.415">  2  5  1 -1</clus>
</clustering>
</event>
<event>
10    2  0.4424357E-006  0.1188476E+03  0.7546771E-02  0.1247352E+00
         -4   -1    0    0    0  501 -0.00000000000E+00  0.00000000000E+00  0.58229316219E+03  0.58229316219E+03  0.00000000000E+00 0.  1.
         21   -1    0    0  503  502  0.00000000000E+00 -0.00000000000E+00 -0.15559831705E+03  0.15559831705E+03  0.00000000000E+00 0.  1.
         23    2    1    2    0    0  0.82353442379E+02  0.31835471951E+01  0.35904520240E+03  0.38090488121E+03  0.96865095455E+02 0.  0.
         23    2    1    2    0    0 -0.45531896583E+02  0.47857151860E+01  0.10373063907E+03  0.14480892003E+03  0.90075086247E+02 0.  0.
        -11    1    4    4    0    0 -0.68067299323E+01 -0.34460551901E+02  0.10792655872E+02  0.36747008456E+02  0.00000000000E+00 0.  1.
         11    1    4    4    0    0 -0.38725166650E+02  0.39246267087E+02  0.92937983195E+02  0.10806191157E+03  0.00000000000E+00 0. -1.
        -11    1    3    3    0    0  0.10449623524E+03  0.54325029605E+01  0.30528991059E+03  0.32272419305E+03  0.00000000000E+00 0.  1.
         11    1    3    3    0    0 -0.22142792861E+02 -0.22489557654E+01  0.53755291804E+02  0.58180688159E+02  0.00000000000E+00 0. -1.
         21    1    1    2  503  501 -0.93455971087E+00 -0.32055730849E+02  0.81137279106E+02  0.87245064863E+02  0.00000000000E+00 0. -1.
         -4    1    1    2    0  502 -0.35886986086E+02  0.24086468468E+02 -0.11721827543E+03  0.12493261315E+03  0.00000000000E+00 0.  1.
<scales pt_clust_5="13000.00000" pt_clust_6="13000.00000" pt_clust_7="13000.00000" pt_clust_8="13000.00000" pt_clust_9="32.06935" pt_clust_10="43.08894"></scales>
<clustering>
<clus scale="   32.069">  1  9  2 -1</clus>
<clus scale="   43.089">  2 10  1 -1</clus>
<clus scale="   90.075">  5  6 -1 -1</clus>
<clus scale="   96.865">  7  8 -1 -1</clus>
<clus scale="  113.382">  2  5  1 -1</clus>
<clus scale="   43.089">  2  5  1 -1</clus>
</clustering>
</event>
<event>
10    2  0.3984345E-006  0.1730646E+03  0.7546771E-02  0.1174759E+00
         -4   -1    0    0    0  501 -0.00000000000E+00  0.00000000000E+00  0.27028870278E+03  0.27028870278E+03  0.00000000000E+00 0.  1.
         21   -1    0    0  503  502  0.00000000000E+00 -0.00000000000E+00 -0.23415321224E+03  0.23415321224E+03  0.00000000000E+00 0. -1.
         23    2    1    2    0    0 -0.12393705267E+03  0.80888250074E+02  0.10757090260E+03  0.20470005323E+03  0.91800384969E+02 0.  0.
         23    2    1    2    0    0  0.11962526946E+03 -0.29856062017E+02 -0.77472795280E+02  0.17186258780E+03  0.91285954802E+02 0.  0.
        -13    1    3    3    0    0 -0.23658886346E+01  0.41852650681E+02  0.77556044460E+01  0.42630871424E+02  0.00000000000E+00 0.  1.
         13    1    3    3    0    0 -0.12157116403E+03  0.39035599394E+02  0.99815298158E+02  0.16206918180E+03  0.00000000000E+00 0. -1.
        -13    1    4    4    0    0  0.51279957559E+02 -0.13689514519E+02  0.15548323217E+02  0.55306303528E+02  0.00000000000E+00 0.  1.
         13    1    4    4    0    0  0.68345311898E+02 -0.16166547498E+02 -0.93021118497E+02  0.11655628427E+03  0.00000000000E+00 0. -1.
         21    1    1    2  503  501 -0.17912879405E+02  0.92302165859E+01  0.47384670309E+02  0.51491505388E+02  0.00000000000E+00 0. -1.
         -4    1    1    2    0  502  0.22224662614E+02 -0.60262404644E+02 -0.41347287100E+02  0.76387768604E+02  0.00000000000E+00 0.  1.
<scales pt_clust_5="13000.00000" pt_clust_6="13000.00000" pt_clust_7="13000.00000" pt_clust_8="13000.00000" pt_clust_9="20.15113" pt_clust_10="63.06054"></scales>
<clustering>
<clus scale="   20.151">  1  9  2 -1</clus>
<clus scale="   63.061">  2 10  1 -1</clus>
<clus scale="   91.286">  7  8 -1 -1</clus>
<clus scale="   91.800">  5  6 -1 -1</clus>
<clus scale="  172.792">  2  7  1 -1</clus>
<clus scale="   63.061">  2  5  1 -1</clus>
</clustering>
</event>
<event>
10    2  0.3984345E-006  0.9411807E+02  0.7546771E-02  0.1293901E+00
         21   -1    0    0  501  502  0.00000000000E+00  0.00000000000E+00  0.29656027011E+02  0.29656027011E+02  0.00000000000E+00 0.  1.
          1   -1    0    0  503    0 -0.00000000000E+00 -0.00000000000E+00 -0.76011817461E+03  0.76011817461E+03  0.00000000000E+00 0. -1.
         23    2    1    2    0    0 -0.86307618401E+01  0.22512016406E+02 -0.40723498301E+03  0.41806688007E+03  0.91423759983E+02 0.  0.
         23    2    1    2    0    0 -0.10810102633E+02 -0.38278886432E+02 -0.14833077563E+03  0.17806158889E+03  0.90120913080E+02 0.  0.
        -11    1    3    3    0    0  0.40720132085E+02  0.18919144926E+02 -0.18135545851E+03  0.18683111501E+03  0.00000000000E+00 0.  1.
         11    1    3    3    0    0 -0.49350893925E+02  0.35928714806E+01 -0.22587952450E+03  0.23123576507E+03  0.00000000000E+00 0. -1.
        -13    1    4    4    0    0  0.29197979763E+02  0.11831288415E+02 -0.70498288719E+02  0.77217291588E+02  0.00000000000E+00 0.  1.
         13    1    4    4    0    0 -0.40008082395E+02 -0.50110174847E+02 -0.77832486909E+02  0.10084429730E+03  0.00000000000E+00 0. -1.
         21    1    1    2  503  502 -0.14017666858E+02 -0.16003680048E+02 -0.12028876365E+03  0.12215563606E+03  0.00000000000E+00 0. -1.
          1    1    1    2  501    0  0.33458531331E+02  0.31770550073E+02 -0.54607625304E+02  0.71490096602E+02  0.00000000000E+00 0. -1.
<scales pt_clust_5="13000.00000" pt_clust_6="13000.00000" pt_clust_7="13000.00000" pt_clust_8="13000.00000" pt_clust_9="21.27470" pt_clust_10="44.04918"></scales>
<clustering>
<clus scale="   21.275">  2  9  1 -1</clus>
<clus scale="   44.049">  1 10  2 -1</clus>
<clus scale="   90.121">  7  8 -1 -1</clus>
<clus scale="   91.424">  5  6 -1 -1</clus>
<clus scale="   92.853">  1  7  2 -1</clus>
<clus scale="   44.049">  1  5  2 -1</clus>
</clustering>
</event>
<event>
10    2  0.3984345E-006  0.1678979E+03  0.7546771E-02  0.1192735E+00
         -2   -1    0    0    0  501 -0.00000000000E+00  0.00000000000E+00  0.48658092671E+03  0.48658092671E+03  0.00000000000E+00 0.  1.
         21   -1    0    0  503  502  0.00000000000E+00 -0.00000000000E+00 -0.38670500615E+03  0.38670500615E+03  0.00000000000E+00 0.  1.
         23    2    1    2    0    0 -0.21160748319E+02 -0.84363461094E+02  0.13266404384E+03  0.18825032345E+03  0.10135810236E+03 0.  0.
         23    2    1    2    0    0 -0.14516760665E+03  0.85485370621E+02 -0.68071954773E+01  0.19172738020E+03  0.91277969956E+02 0.  0.
        -13    1    4    4    0    0 -0.36017749420E+02  0.77003628750E+01 -0.39251193346E+02  0.53825923501E+02  0.00000000000E+00 0. -1.
         13    1    4    4    0    0 -0.10914985723E+03  0.77785007746E+02  0.32443997868E+02  0.13790145670E+03  0.00000000000E+00 0.  1.
        -13    1    3    3    0    0 -0.16832729451E+02  0.11314673734E+02 -0.46747347685E+01  0.20813835966E+02  0.00000000000E+00 0.  1.
         13    1    3    3    0    0 -0.43280188676E+01 -0.95678134828E+02  0.13733877860E+03  0.16743648748E+03  0.00000000000E+00 0. -1.
         21    1    1    2  503  501  0.29405802056E+02  0.14371454917E+02  0.21404918637E+03  0.21653705017E+03  0.00000000000E+00 0.  1.
         -2    1    1    2    0  502  0.13692255291E+03 -0.15493364444E+02 -0.24003011417E+03  0.27677117904E+03  0.00000000000E+00 0.  1.
<scales pt_clust_5="13000.00000" pt_clust_6="13000.00000" pt_clust_7="13000.00000" pt_clust_8="13000.00000" pt_clust_9="32.72980" pt_clust_10="140.91852"></scales>
<clustering>
<clus scale="   32.730">  1  9  2 -1</clus>
<clus scale="   91.278">  5  6 -1 -1</clus>
<clus scale="  101.358">  7  8 -1 -1</clus>
<clus scale="  126.661">  1  7  2 -1</clus>
<clus scale="  140.919">  2 10  1 -1</clus>
<clus scale="  140.919">  2  5  1 -1</clus>
</clustering>
</event>
<event>
10    2  0.3984345E-006  0.1379072E+03  0.7546771E-02  0.1216616E+00
         21   -1    0    0  503  502  0.00000000000E+00  0.00000000000E+00  0.35104150265E+03  0.35104150265E+03  0.00000000000E+00 0.  1.
         -1   -1    0    0    0  501 -0.00000000000E+00 -0.00000000000E+00 -0.19815208190E+03  0.19815208190E+03  0.00000000000E+00 0.  1.
         23    2    1    2    0    0 -0.13753255056E+03 -0.12487828041E+02 -0.98242065867E+02  0.19215367767E+03  0.90555971769E+02 0.  0.
         23    2    1    2    0    0  0.62068865064E+02  0.14082954310E+01  0.20853920845E+03  0.23492712384E+03  0.88586820394E+02 0.  0.
        -11    1    3    3    0    0 -0.10213768212E+02  0.25893222532E+02 -0.35516179246E+02  0.45124040405E+02  0.00000000000E+00 0. -1.
         11    1    3    3    0    0 -0.12731878235E+03 -0.38381050573E+02 -0.62725886620E+02  0.14702963726E+03  0.00000000000E+00 0.  1.
        -13    1    4    4    0    0  0.44452750317E+02 -0.22278433382E+02  0.39980033278E+02  0.63802654064E+02  0.00000000000E+00 0. -1.
         13    1    4    4    0    0  0.17616114747E+02  0.23686728813E+02  0.16855917517E+03  0.17112446978E+03  0.00000000000E+00 0.  1.
         21    1    1    2  503  501  0.29427657471E+02  0.23050659899E+02 -0.20862714231E+02  0.42808559788E+02  0.00000000000E+00 0. -1.
         -1    1    1    2    0  502  0.46036028024E+02 -0.11971127289E+02  0.63454992404E+02  0.79304223253E+02  0.00000000000E+00 0.  1.
<scales pt_clust_5="13000.00000" pt_clust_6="13000.00000" pt_clust_7="13000.00000" pt_clust_8="13000.00000" pt_clust_9="37.38074" pt_clust_10="48.66827"></scales>
<clustering>
<clus scale="   37.381">  2  9  1 -1</clus>
<clus scale="   48.668">  1 10  2 -1</clus>
<clus scale="   88.587">  7  8 -1 -1</clus>
<clus scale="   90.556">  5  6 -1 -1</clus>
<clus scale="  136.622">  1  7  2 -1</clus>
<clus scale="   48.668">  1  5  2 -1</clus>
</clustering>
</event>
<event>
10    2  0.3984345E-006  0.1813952E+03  0.7546771E-02  0.1166505E+00
          3   -1    0    0  503    0 -0.00000000000E+00  0.00000000000E+00  0.36421279056E+03  0.36421279056E+03  0.00000000000E+00 0. -1.
         21   -1    0    0  501  502  0.00000000000E+00 -0.00000000000E+00 -0.31394321278E+03  0.31394321278E+03  0.00000000000E+00 0. -1.
         23    2    1    2    0    0  0.19125467426E+03 -0.44470617641E+02  0.22431377673E+03  0.31191111825E+03  0.91738154550E+02 0.  0.
         23    2    1    2    0    0 -0.93046911205E+02  0.42718609984E+02 -0.31121253503E+02  0.14070624860E+03  0.91362512295E+02 0.  0.
        -13    1    4    4    0    0 -0.75928397828E+02 -0.80659239867E+01 -0.40293224379E+02  0.86334956173E+02  0.00000000000E+00 0.  1.
         13    1    4    4    0    0 -0.17118513377E+02  0.50784533971E+02  0.91719708759E+01  0.54371292431E+02  0.00000000000E+00 0. -1.
        -13    1    3    3    0    0  0.14609084247E+03 -0.28069963343E+02  0.21731326013E+03  0.26335434328E+03  0.00000000000E+00 0. -1.
         13    1    3    3    0    0  0.45163831786E+02 -0.16400654298E+02  0.70005165988E+01  0.48556774972E+02  0.00000000000E+00 0.  1.
         21    1    1    2  503  502 -0.23135779066E+02 -0.10615382798E+02  0.28365695170E+02  0.38112508281E+02  0.00000000000E+00 0. -1.
          3    1    1    2  501    0 -0.75071983984E+02  0.12367390455E+02 -0.17128864063E+03  0.18742612820E+03  0.00000000000E+00 0. -1.
<scales pt_clust_5="13000.00000" pt_clust_6="13000.00000" pt_clust_7="13000.00000" pt_clust_8="13000.00000" pt_clust_9="25.45487" pt_clust_10="76.59911"></scales>
<clustering>
<clus scale="   25.455">  1  9  2 -1</clus>
<clus scale="   76.599">  2 10  1 -1</clus>
<clus scale="   91.363">  5  6 -1 -1</clus>
<clus scale="   91.738">  7  8 -1 -1</clus>
<clus scale="  181.206">  2  5  1 -1</clus>
<clus scale="   76.599">  2  5  1 -1</clus>
</clustering>
</event>
<event>
10    2  0.3984345E-006  0.1583901E+03  0.7546771E-02  0.1190669E+00
         21   -1    0    0  503  502  0.00000000000E+00  0.00000000000E+00  0.12219849012E+03  0.12219849012E+03  0.00000000000E+00 0.  1.
         -1   -1    0    0    0  501 -0.00000000000E+00 -0.00000000000E+00 -0.58106971205E+03  0.58106971205E+03  0.00000000000E+00 0.  1.
         23    2    1    2    0    0  0.67727959367E+02 -0.12246721751E+03 -0.24916164618E+03  0.30012579974E+03  0.91698821700E+02 0.  0.
         23    2    1    2    0    0 -0.96865340489E+02  0.83944193221E+02 -0.20403004042E+03  0.25750586435E+03  0.90837718043E+02 0.  0.
        -13    1    4    4    0    0 -0.96294479081E+02  0.58917178424E+02 -0.10099152451E+03  0.15146995952E+03  0.00000000000E+00 0.  1.
         13    1    4    4    0    0 -0.57086140757E+00  0.25027014798E+02 -0.10303851591E+03  0.10603590483E+03  0.00000000000E+00 0. -1.
        -13    1    3    3    0    0  0.58654141724E+02 -0.23878412992E+02 -0.13431084150E+03  0.14849205060E+03  0.00000000000E+00 0. -1.
         13    1    3    3    0    0  0.90738176430E+01 -0.98588804518E+02 -0.11485080468E+03  0.15163374914E+03  0.00000000000E+00 0.  1.
         21    1    1    2  503  501 -0.23657368475E+02  0.22923623291E+02 -0.59904439756E+02  0.68364504609E+02  0.00000000000E+00 0.  1.
         -1    1    1    2    0  502  0.52794749596E+02  0.15599400997E+02  0.54224904421E+02  0.77272033465E+02  0.00000000000E+00 0.  1.
<scales pt_clust_5="13000.00000" pt_clust_6="13000.00000" pt_clust_7="13000.00000" pt_clust_8="13000.00000" pt_clust_9="32.94182" pt_clust_10="54.69391"></scales>
<clustering>
<clus scale="   32.942">  2  9  1 -1</clus>
<clus scale="   54.694">  1 10  2 -1</clus>
<clus scale="   90.838">  5  6 -1 -1</clus>
<clus scale="   91.699">  7  8 -1 -1</clus>
<clus scale="  157.893">  1  5  2 -1</clus>
<clus scale="   54.694">  1  5  2 -1</clus>
</clustering>
</event>
<event>
10    2  0.3984345E-006  0.1017387E+03  0.7546771E-02  0.1277444E+00
         21   -1    0    0  501  502  0.00000000000E+00  0.00000000000E+00  0.17822696120E+03  0.17822696120E+03  0.00000000000E+00 0. -1.
          1   -1    0    0  503    0 -0.00000000000E+00 -0.00000000000E+00 -0.27916294836E+03  0.27916294836E+03  0.00000000000E+00 0. -1.
         23    2    1    2    0    0  0.49349971998E+01 -0.23448063921E+02 -0.14919807701E+03  0.17724120500E+03  0.92629437383E+02 0.  0.
         23    2    1    2    0    0 -0.21225162341E+02  0.69271991246E+02  0.41375969781E+01  0.11639968337E+03  0.91009067090E+02 0.  0.
        -11    1    3    3    0    0  0.37899995165E+02 -0.38887933635E+02 -0.60122950982E+02  0.81015123592E+02  0.00000000000E+00 0.  1.
         11    1    3    3    0    0 -0.32964997965E+02  0.15439869713E+02 -0.89075126024E+02  0.96226081412E+02  0.00000000000E+00 0. -1.
        -13    1    4    4    0    0 -0.45553030344E+02  0.31172000216E+02 -0.27061075665E+02  0.61474173335E+02  0.00000000000E+00 0.  1.
         13    1    4    4    0    0  0.24327868003E+02  0.38099991030E+02  0.31198672643E+02  0.54925510037E+02  0.00000000000E+00 0. -1.
         21    1    1    2  503  502 -0.11636586580E+02 -0.16333225455E+02 -0.53971692689E+02  0.57577148355E+02  0.00000000000E+00 0. -1.
          1    1    1    2  501    0  0.27926751722E+02 -0.29490701870E+02  0.98096185554E+02  0.10617187282E+03  0.00000000000E+00 0. -1.
<scales pt_clust_5="13000.00000" pt_clust_6="13000.00000" pt_clust_7="13000.00000" pt_clust_8="13000.00000" pt_clust_9="20.05454" pt_clust_10="40.68662"></scales>
<clustering>
<clus scale="   20.055">  2  9  1 -1</clus>
<clus scale="   40.687">  1 10  2 -1</clus>
<clus scale="   91.009">  7  8 -1 -1</clus>
<clus scale="   92.629">  5  6 -1 -1</clus>
<clus scale="  100.266">  1  7  2 -1</clus>
<clus scale="   40.687">  1  5  2 -1</clus>
</clustering>
</event>
<event>
10    2  0.3984345E-006  0.1058208E+03  0.7546771E-02  0.1271196E+00
         -1   -1    0    0    0  501 -0.00000000000E+00  0.00000000000E+00  0.68137589615E+02  0.68137589615E+02  0.00000000000E+00 0.  1.
         21   -1    0    0  503  502  0.00000000000E+00 -0.00000000000E+00 -0.42764854505E+03  0.42764854505E+03  0.00000000000E+00 0.  1.
         23    2    1    2    0    0  0.56244255711E+02 -0.42505806346E+02 -0.15769349322E+03  0.19724580554E+03  0.95228725303E+02 0.  0.
         23    2    1    2    0    0 -0.23887110578E+02  0.96852315800E+01 -0.15738814696E+03  0.18275380624E+03  0.89238596631E+02 0.  0.
        -13    1    3    3    0    0 -0.56129332988E+01  0.19866304269E+02 -0.70555968721E+02  0.73514078839E+02  0.00000000000E+00 0. -1.
         13    1    3    3    0    0  0.61857189010E+02 -0.62372110614E+02 -0.87137524503E+02  0.12373172670E+03  0.00000000000E+00 0.  1.
        -13    1    4    4    0    0  0.27734921442E+02  0.26671170093E+02 -0.68591308309E+02  0.78646962796E+02  0.00000000000E+00 0. -1.
         13    1    4    4    0    0 -0.51622032021E+02 -0.16985938513E+02 -0.88796838652E+02  0.10410684344E+03  0.00000000000E+00 0.  1.
         21    1    1    2  503  501 -0.15464071036E+02  0.19299536882E+02  0.29651035968E+02  0.38610795781E+02  0.00000000000E+00 0.  1.
         -1    1    1    2    0  502 -0.16893074097E+02  0.13521037884E+02 -0.74080351218E+02  0.77175727107E+02  0.00000000000E+00 0.  1.
<scales pt_clust_5="13000.00000" pt_clust_6="13000.00000" pt_clust_7="13000.00000" pt_clust_8="13000.00000" pt_clust_9="24.99953" pt_clust_10="21.63780"></scales>
<clustering>
<clus scale="   21.638">  2 10  1 -1</clus>
<clus scale="   25.000">  1  9  2 -1</clus>
<clus scale="   89.239">  7  8 -1 -1</clus>
<clus scale="   95.229">  5  6 -1 -1</clus>
<clus scale="  100.464">  2  7  1 -1</clus>
<clus scale="   21.638">  2  5  1 -1</clus>
</clustering>
</event>
<event>
10    2  0.3984345E-006  0.1080934E+03  0.7546771E-02  0.1265622E+00
          1   -1    0    0  503    0 -0.00000000000E+00  0.00000000000E+00  0.99396500174E+03  0.99396500174E+03  0.00000000000E+00 0. -1.
         21   -1    0    0  501  502  0.00000000000E+00 -0.00000000000E+00 -0.74253806338E+02  0.74253806338E+02  0.00000000000E+00 0.  1.
         23    2    1    2    0    0 -0.21776135689E+02  0.39284260551E+02  0.46364841592E+03  0.47440810783E+03  0.89865154399E+02 0.  0.
         23    2    1    2    0    0  0.61818102715E+02 -0.25933123186E+02 -0.31678395589E+01  0.11504497077E+03  0.93441454344E+02 0.  0.
        -11    1    3    3    0    0 -0.10160205364E+02 -0.29009588338E+02  0.16407600823E+03  0.16693029224E+03  0.00000000000E+00 0. -1.
         11    1    3    3    0    0 -0.11615930325E+02  0.68293848889E+02  0.29957240768E+03  0.30747781559E+03  0.00000000000E+00 0.  1.
        -11    1    4    4    0    0  0.63439745673E+02  0.73887067247E+01  0.27678852745E+02  0.69608284043E+02  0.00000000000E+00 0.  1.
         11    1    4    4    0    0 -0.16216429572E+01 -0.33321829911E+02 -0.30846692304E+02  0.45436686725E+02  0.00000000000E+00 0. -1.
         21    1    1    2  503  502 -0.36616595096E+02 -0.40303071284E+02  0.44457278774E+03  0.44789516206E+03  0.00000000000E+00 0. -1.
          1    1    1    2  501    0 -0.34253719306E+01  0.26951933919E+02  0.14657831297E+02  0.30870567425E+02  0.00000000000E+00 0. -1.
<scales pt_clust_5="13000.00000" pt_clust_6="13000.00000" pt_clust_7="13000.00000" pt_clust_8="13000.00000" pt_clust_9="54.01221" pt_clust_10="27.16873"></scales>
<clustering>
<clus scale="   27.169">  2 10  1 -1</clus>
<clus scale="   54.012">  1  9  2 -1</clus>
<clus scale="   89.865">  5  6 -1 -1</clus>
<clus scale="   93.441">  7  8 -1 -1</clus>
<clus scale="  105.017">  1  5  2 -1</clus>
<clus scale="   27.169">  2  5  1 -1</clus>
</clustering>
</event>
<event>
10    2  0.3984345E-006  0.1308934E+03  0.7546771E-02  0.1227509E+00
         21   -1    0    0  503  502  0.00000000000E+00  0.00000000000E+00  0.31697715995E+03  0.31697715995E+03  0.00000000000E+00 0. -1.
         -2   -1    0    0    0  501 -0.00000000000E+00 -0.00000000000E+00 -0.18640407497E+03  0.18640407497E+03  0.00000000000E+00 0.  1.
         23    2    1    2    0    0 -0.57537655804E+02 -0.68671223025E+02  0.18890137255E+02  0.12806074913E+03  0.89534348020E+02 0.  0.
         23    2    1    2    0    0  0.81379606026E+02  0.50544788159E+02  0.81937954735E+01  0.13494509051E+03  0.94686975246E+02 0.  0.
        -13    1    4    4    0    0  0.47622518797E+02  0.73932366523E+02 -0.12722498904E+02  0.88858095268E+02  0.00000000000E+00 0.  1.
         13    1    4    4    0    0  0.33757087229E+02 -0.23387578364E+02  0.20916294377E+02  0.46086995242E+02  0.00000000000E+00 0. -1.
        -13    1    3    3    0    0 -0.23145771274E+02  0.18300207180E+02  0.17938621788E+02  0.34531412689E+02  0.00000000000E+00 0.  1.
         13    1    3    3    0    0 -0.34391884530E+02 -0.86971430205E+02  0.95151546697E+00  0.93529336441E+02  0.00000000000E+00 0. -1.
         21    1    1    2  503  501  0.77956267860E+01  0.35350524540E+02 -0.61574282375E+02  0.71427051124E+02  0.00000000000E+00 0.  1.
         -2    1    1    2    0  502 -0.31637577008E+02 -0.17224089674E+02  0.16506343463E+03  0.16894834416E+03  0.00000000000E+00 0.  1.
<scales pt_clust_5="13000.00000" pt_clust_6="13000.00000" pt_clust_7="13000.00000" pt_clust_8="13000.00000" pt_clust_9="35.43482" pt_clust_10="36.02229"></scales>
<clustering>
<clus scale="   36.022">  1 10  2 -1</clus>
<clus scale="   35.435">  2  9  1 -1</clus>
<clus scale="   89.534">  7  8 -1 -1</clus>
<clus scale="   94.687">  5  6 -1 -1</clus>
<clus scale="  127.216">  2  7  1 -1</clus>
<clus scale="   36.022">  1  5  2 -1</clus>
</clustering>
</event>
<event>
10    2  0.3984345E-006  0.2143240E+03  0.7546771E-02  0.1162614E+00
         -2   -1    0    0    0  501 -0.00000000000E+00  0.00000000000E+00  0.58584119979E+03  0.58584119979E+03  0.00000000000E+00 0.  1.
         21   -1    0    0  503  502  0.00000000000E+00 -0.00000000000E+00 -0.34338282473E+03  0.34338282473E+03  0.00000000000E+00 0. -1.
         23    2    1    2    0    0 -0.46936224432E+02 -0.50363997625E+02  0.54008613982E+02  0.12675629338E+03  0.91709792855E+02 0.  0.
         23    2    1    2    0    0  0.10259982160E+03  0.29658195663E+03  0.29950368594E+03  0.44297241944E+03  0.89635518071E+02 0.  0.
        -11    1    4    4    0    0  0.87277749497E+02  0.27719085115E+03  0.23446971054E+03  0.37340088200E+03  0.00000000000E+00 0. -1.
         11    1    4    4    0    0  0.15322072104E+02  0.19391105482E+02  0.65033975394E+02  0.69571537434E+02  0.00000000000E+00 0.  1.
        -13    1    3    3    0    0 -0.56186306851E+02  0.64067049726E+01  0.20277553448E+02  0.60076002863E+02  0.00000000000E+00 0. -1.
         13    1    3    3    0    0  0.92500824189E+01 -0.56770702597E+02  0.33731060534E+02  0.66680290513E+02  0.00000000000E+00 0.  1.
         21    1    1    2  503  501  0.35845408708E+02 -0.88444833064E+02  0.57274605608E+02  0.11130032466E+03  0.00000000000E+00 0. -1.
         -2    1    1    2    0  502 -0.91509005878E+02 -0.15777312594E+03 -0.16832853047E+03  0.24819498705E+03  0.00000000000E+00 0.  1.
<scales pt_clust_5="13000.00000" pt_clust_6="13000.00000" pt_clust_7="13000.00000" pt_clust_8="13000.00000" pt_clust_9="95.43260" pt_clust_10="194.67984"></scales>
<clustering>
<clus scale="   89.636">  5  6 -1 -1</clus>
<clus scale="   91.710">  7  8 -1 -1</clus>
<clus scale="   95.433">  1  9  2 -1</clus>
<clus scale="  120.187">  1  7  2 -1</clus>
<clus scale="  194.680">  2 10  1 -1</clus>
<clus scale="  194.680">  2  5  1 -1</clus>
</clustering>
</event>
<event>
10    2  0.3984345E-006  0.1573162E+03  0.7546771E-02  0.1191883E+00
          2   -1    0    0  503    0 -0.00000000000E+00  0.00000000000E+00  0.67978982158E+03  0.67978982158E+03  0.00000000000E+00 0. -1.
         21   -1    0    0  501  502  0.00000000000E+00 -0.00000000000E+00 -0.14843935528E+03  0.14843935528E+03  0.00000000000E+00 0. -1.
         23    2    1    2    0    0 -0.84139493660E+02  0.16736427971E+03  0.37917619982E+03  0.43259885770E+03  0.90977605254E+02 0.  0.
         23    2    1    2    0    0  0.68486261547E+02 -0.93022552276E+02  0.40435176284E+02  0.15206176169E+03  0.90245291486E+02 0.  0.
        -11    1    4    4    0    0  0.46699964350E+01 -0.53230474389E+02 -0.18465748351E+02  0.56535618265E+02  0.00000000000E+00 0. -1.
         11    1    4    4    0    0  0.63816265113E+02 -0.39792077887E+02  0.58900924635E+02  0.95526143429E+02  0.00000000000E+00 0.  1.
        -13    1    3    3    0    0 -0.96201840651E+02  0.14193274358E+03  0.26992419418E+03  0.31977924956E+03  0.00000000000E+00 0. -1.
         13    1    3    3    0    0  0.12062346991E+02  0.25431536130E+02  0.10925200564E+03  0.11281960814E+03  0.00000000000E+00 0.  1.
         21    1    1    2  503  502  0.41474834172E+02 -0.61148414029E+02  0.16619185796E+03  0.18187639776E+03  0.00000000000E+00 0.  1.
          2    1    1    2  501    0 -0.25821602059E+02 -0.13193313406E+02 -0.54452767773E+02  0.61692159710E+02  0.00000000000E+00 0. -1.
<scales pt_clust_5="13000.00000" pt_clust_6="13000.00000" pt_clust_7="13000.00000" pt_clust_8="13000.00000" pt_clust_9="73.61907" pt_clust_10="28.99687"></scales>
<clustering>
<clus scale="   28.997">  2 10  1 -1</clus>
<clus scale="   73.619">  1  9  2 -1</clus>
<clus scale="   90.245">  5  6 -1 -1</clus>
<clus scale="   90.978">  7  8 -1 -1</clus>
<clus scale="  156.894">  2  5  1 -1</clus>
<clus scale="   28.997">  2  5  1 -1</clus>
</clustering>
</event>
<event>
10    2  0.3984345E-006  0.2125048E+03  0.7546771E-02  0.1139984E+00
         21   -1    0    0  501  502  0.00000000000E+00  0.00000000000E+00  0.17879620463E+03  0.17879620463E+03  0.00000000000E+00 0. -1.
          2   -1    0    0  503    0 -0.00000000000E+00 -0.00000000000E+00 -0.75353907833E+03  0.75353907833E+03  0.00000000000E+00 0. -1.
         23    2    1    2    0    0 -0.76871625334E+02 -0.15644087636E+03 -0.34250179407E+03  0.39388930522E+03  0.86361514841E+02 0.  0.
         23    2    1    2    0    0  0.65736278658E+02  0.21119992380E+03 -0.31524958090E+03  0.39572785154E+03  0.91058047901E+02 0.  0.
        -11    1    4    4    0    0  0.57625911610E+02  0.17408263495E+03 -0.18674103937E+03  0.26172070087E+03  0.00000000000E+00 0. -1.
         11    1    4    4    0    0  0.81103670478E+01  0.37117288844E+02 -0.12850854153E+03  0.13400715067E+03  0.00000000000E+00 0.  1.
        -13    1    3    3    0    0 -0.30522082536E+02 -0.13392935873E+03 -0.28686698124E+03  0.31805869832E+03  0.00000000000E+00 0.  1.
         13    1    3    3    0    0 -0.46349542799E+02 -0.22511517633E+02 -0.55634812831E+02  0.75830606898E+02  0.00000000000E+00 0. -1.
         21    1    1    2  503  502 -0.20897294603E+01 -0.27597582412E+02 -0.20788366028E+02  0.34614298871E+02  0.00000000000E+00 0. -1.
          2    1    1    2  501    0  0.13225076137E+02 -0.27161465022E+02  0.10379686730E+03  0.10810382732E+03  0.00000000000E+00 0. -1.
<scales pt_clust_5="13000.00000" pt_clust_6="13000.00000" pt_clust_7="13000.00000" pt_clust_8="13000.00000" pt_clust_9="27.67659" pt_clust_10="45.75732"></scales>
<clustering>
<clus scale="   27.677">  1  9  2 -1</clus>
<clus scale="   45.757">  1 10  2 -1</clus>
<clus scale="   86.362">  7  8 -1 -1</clus>
<clus scale="   91.058">  5  6 -1 -1</clus>
<clus scale="  210.535">  2  7  1 -1</clus>
<clus scale="   27.677">  1  5  2 -1</clus>
</clustering>
</event>
<event>
10    2  0.3984345E-006  0.1047649E+03  0.7546771E-02  0.1270603E+00
         21   -1    0    0  501  502  0.00000000000E+00  0.00000000000E+00  0.12312233958E+03  0.12312233958E+03  0.00000000000E+00 0. -1.
          1   -1    0    0  503    0 -0.00000000000E+00 -0.00000000000E+00 -0.39181212361E+03  0.39181212361E+03  0.00000000000E+00 0. -1.
         23    2    1    2    0    0 -0.28592697504E+02  0.34619234067E+02 -0.23360181010E+03  0.25528279636E+03  0.92647000586E+02 0.  0.
         23    2    1    2    0    0  0.50872020867E+02 -0.80626876782E+01 -0.65567758275E+02  0.12460913563E+03  0.92603111818E+02 0.  0.
        -11    1    3    3    0    0  0.23986006982E+02  0.14917818990E+02 -0.20483058943E+02  0.34891625901E+02  0.00000000000E+00 0.  1.
         11    1    3    3    0    0 -0.52578704486E+02  0.19701415077E+02 -0.21311875116E+03  0.22039117046E+03  0.00000000000E+00 0. -1.
        -13    1    4    4    0    0  0.76355720001E+02 -0.16514149874E+02 -0.41047406649E+02  0.88248528121E+02  0.00000000000E+00 0.  1.
         13    1    4    4    0    0 -0.25483699134E+02  0.84514621957E+01 -0.24520351626E+02  0.36360607512E+02  0.00000000000E+00 0. -1.
         21    1    1    2  503  502  0.41858629497E+01  0.23089219352E+02 -0.39077260178E+02  0.45581419042E+02  0.00000000000E+00 0. -1.
          1    1    1    2  501    0 -0.26465186313E+02 -0.49645765740E+02  0.69557044536E+02  0.89461112150E+02  0.00000000000E+00 0. -1.
<scales pt_clust_5="13000.00000" pt_clust_6="13000.00000" pt_clust_7="13000.00000" pt_clust_8="13000.00000" pt_clust_9="23.46558" pt_clust_10="55.62339"></scales>
<clustering>
<clus scale="   23.466">  2  9  1 -1</clus>
<clus scale="   55.623">  1 10  2 -1</clus>
<clus scale="   92.603">  7  8 -1 -1</clus>
<clus scale="   92.647">  5  6 -1 -1</clus>
<clus scale="  104.726">  1  7  2 -1</clus>
<clus scale="   55.623">  1  5  2 -1</clus>
</clustering>
</event>
<event>
10    2  0.3984345E-006  0.1081864E+03  0.7546771E-02  0.1264601E+00
          1   -1    0    0  503    0 -0.00000000000E+00  0.00000000000E+00  0.63718252582E+03  0.63718252582E+03  0.00000000000E+00 0. -1.
         21   -1    0    0  501  502  0.00000000000E+00 -0.00000000000E+00 -0.79691673512E+02  0.79691673512E+02  0.00000000000E+00 0.  1.
         23    2    1    2    0    0 -0.83668628820E+01  0.41090009362E+02  0.10993007114E+03  0.15014431272E+03  0.93275403173E+02 0.  0.
         23    2    1    2    0    0  0.58955149108E+02 -0.46298942370E+02  0.54313971709E+02  0.13031931688E+03  0.91726850797E+02 0.  0.
        -11    1    4    4    0    0  0.23906431671E+02 -0.55964413903E+02 -0.46645034631E+01  0.61035159469E+02  0.00000000000E+00 0.  1.
         11    1    4    4    0    0  0.35048717437E+02  0.96654715336E+01  0.58978475173E+02  0.69284157407E+02  0.00000000000E+00 0. -1.
        -13    1    3    3    0    0  0.31218337685E+02  0.12936236849E+02  0.45372036609E+01  0.34095704256E+02  0.00000000000E+00 0.  1.
         13    1    3    3    0    0 -0.39585200567E+02  0.28153772514E+02  0.10539286748E+03  0.11604860846E+03  0.00000000000E+00 0. -1.
         21    1    1    2  503  502 -0.64581382366E+02 -0.31727609866E+02  0.39021777414E+03  0.39679630471E+03  0.00000000000E+00 0. -1.
          1    1    1    2  501    0  0.13993096140E+02  0.36936542873E+02  0.30290353220E+01  0.39614265032E+02  0.00000000000E+00 0. -1.
<scales pt_clust_5="13000.00000" pt_clust_6="13000.00000" pt_clust_7="13000.00000" pt_clust_8="13000.00000" pt_clust_9="70.42362" pt_clust_10="39.49829"></scales>
<clustering>
<clus scale="   39.498">  2 10  1 -1</clus>
<clus scale="   70.424">  1  9  2 -1</clus>
<clus scale="   91.727">  5  6 -1 -1</clus>
<clus scale="   93.275">  7  8 -1 -1</clus>
<clus scale="  106.854">  2  5  1 -1</clus>
<clus scale="   39.498">  2  5  1 -1</clus>
</clustering>
</event>
<event>
10    2  0.3984345E-006  0.2273607E+03  0.7546771E-02  0.1161036E+00
         21   -1    0    0  501  502  0.00000000000E+00  0.00000000000E+00  0.25913960112E+03  0.25913960112E+03  0.00000000000E+00 0. -1.
          1   -1    0    0  503    0 -0.00000000000E+00 -0.00000000000E+00 -0.71824715644E+03  0.71824715644E+03  0.00000000000E+00 0. -1.
         23    2    1    2    0    0 -0.37472628557E+02  0.25655998527E+01 -0.28857846202E+03  0.30665793717E+03  0.96699438967E+02 0.  0.
         23    2    1    2    0    0 -0.80382670807E+02  0.19904985705E+03 -0.23167885906E+03  0.32872558560E+03  0.91121882858E+02 0.  0.
        -11    1    4    4    0    0 -0.32083169315E+02  0.17706957395E+02 -0.77950142592E+02  0.86134144354E+02  0.00000000000E+00 0.  1.
         11    1    4    4    0    0 -0.48299501491E+02  0.18134289965E+03 -0.15372871647E+03  0.24259144125E+03  0.00000000000E+00 0. -1.
        -13    1    3    3    0    0 -0.36355298149E+02  0.42082139671E+02 -0.22516905052E+03  0.23193472249E+03  0.00000000000E+00 0.  1.
         13    1    3    3    0    0 -0.11173304076E+01 -0.39516539818E+02 -0.63409411495E+02  0.74723214683E+02  0.00000000000E+00 0. -1.
         21    1    1    2  503  502 -0.31329610250E+00 -0.30551661225E+02 -0.83374203979E+02  0.88796171355E+02  0.00000000000E+00 0. -1.
          1    1    1    2  501    0  0.11816859547E+03 -0.17106379568E+03  0.14452396974E+03  0.25320706344E+03  0.00000000000E+00 0. -1.
<scales pt_clust_5="13000.00000" pt_clust_6="13000.00000" pt_clust_7="13000.00000" pt_clust_8="13000.00000" pt_clust_9="30.55327" pt_clust_10="208.30189"></scales>
<clustering>
<clus scale="   30.553">  2  9  1 -1</clus>
<clus scale="   91.122">  5  6 -1 -1</clus>
<clus scale="   96.699">  7  8 -1 -1</clus>
<clus scale="  104.430">  2  7  1 -1</clus>
<clus scale="  208.302">  1 10  2 -1</clus>
<clus scale="  208.302">  1  5  2 -1</clus>
</clustering>
</event>
<event>
10    2  0.3984345E-006  0.1151340E+03  0.7546771E-02  0.1251494E+00
         21   -1    0    0  503  502  0.00000000000E+00  0.00000000000E+00  0.41120513571E+03  0.41120513571E+03  0.00000000000E+00 0. -1.
         -1   -1    0    0    0  501 -0.00000000000E+00 -0.00000000000E+00 -0.65258362366E+02  0.65258362366E+02  0.00000000000E+00 0.  1.
         23    2    1    2    0    0 -0.54344389747E+02  0.40956165936E+02  0.61352435008E+02  0.12921214526E+03  0.91109477973E+02 0.  0.
         23    2    1    2    0    0  0.48433855554E+02 -0.38405623228E+02  0.14792165692E+03  0.18460665500E+03  0.91531252717E+02 0.  0.
        -11    1    3    3    0    0  0.40244070083E+01  0.30043203949E+02  0.62888283975E+02  0.69812077871E+02  0.00000000000E+00 0.  1.
         11    1    3    3    0    0 -0.58368796755E+02  0.10912961987E+02 -0.15358489668E+01  0.59400067391E+02  0.00000000000E+00 0. -1.
        -11    1    4    4    0    0  0.48718799055E+02  0.73690089882E+01  0.28986943979E+02  0.57167006184E+02  0.00000000000E+00 0.  1.
         11    1    4    4    0    0 -0.28494350111E+00 -0.45774632216E+02  0.11893471294E+03  0.12743964881E+03  0.00000000000E+00 0. -1.
         21    1    1    2  503  501 -0.11939307082E+02  0.16415457803E+02 -0.30405774685E+01  0.20524605230E+02  0.00000000000E+00 0.  1.
         -1    1    1    2    0  502  0.17849841276E+02 -0.18966000511E+02  0.13971325888E+03  0.14212009259E+03  0.00000000000E+00 0.  1.
<scales pt_clust_5="13000.00000" pt_clust_6="13000.00000" pt_clust_7="13000.00000" pt_clust_8="13000.00000" pt_clust_9="20.29814" pt_clust_10="25.59160"></scales>
<clustering>
<clus scale="   20.298">  2  9  1 -1</clus>
<clus scale="   25.592">  1 10  2 -1</clus>
<clus scale="   91.109">  5  6 -1 -1</clus>
<clus scale="   91.531">  7  8 -1 -1</clus>
<clus scale="  114.799">  2  5  1 -1</clus>
<clus scale="   25.592">  1  5  2 -1</clus>
</clustering>
</event>
<event>
10    2  0.3984345E-006  0.1269196E+03  0.7546771E-02  0.1233374E+00
         21   -1    0    0  501  502  0.00000000000E+00  0.00000000000E+00  0.19125199067E+03  0.19125199067E+03  0.00000000000E+00 0.  1.
          3   -1    0    0  503    0 -0.00000000000E+00 -0.00000000000E+00 -0.20812020559E+03  0.20812020559E+03  0.00000000000E+00 0. -1.
         23    2    1    2    0    0  0.43740264355E+02 -0.11678188956E+03 -0.86898420581E+02  0.17510213813E+03  0.86937925123E+02 0.  0.
         23    2    1    2    0    0 -0.17711116415E+02  0.37486848237E+02  0.10565744043E+02  0.10105023820E+03  0.91545443673E+02 0.  0.
        -11    1    4    4    0    0  0.25909562437E+02 -0.10943309669E+02 -0.13972947013E+02  0.31405488381E+02  0.00000000000E+00 0. -1.
         11    1    4    4    0    0 -0.43620678852E+02  0.48430157906E+02  0.24538691056E+02  0.69644749817E+02  0.00000000000E+00 0.  1.
        -13    1    3    3    0    0  0.21940661420E+01 -0.51267295036E+02  0.86370194078E+01  0.52036021857E+02  0.00000000000E+00 0.  1.
         13    1    3    3    0    0  0.41546198213E+02 -0.65514594524E+02 -0.95535439989E+02  0.12306611628E+03  0.00000000000E+00 0. -1.
         21    1    1    2  503  502 -0.44678362770E+02  0.35914928180E+02  0.17200524753E+02  0.59848945001E+02  0.00000000000E+00 0. -1.
          3    1    1    2  501    0  0.18649214830E+02  0.43380113142E+02  0.42263936858E+02  0.63370874925E+02  0.00000000000E+00 0. -1.
<scales pt_clust_5="13000.00000" pt_clust_6="13000.00000" pt_clust_7="13000.00000" pt_clust_8="13000.00000" pt_clust_9="62.14583" pt_clust_10="47.21893"></scales>
<clustering>
<clus scale="   47.219">  1 10  2 -1</clus>
<clus scale="   62.146">  1  9  2 -1</clus>
<clus scale="   86.938">  7  8 -1 -1</clus>
<clus scale="   91.545">  5  6 -1 -1</clus>
<clus scale="  123.637">  2  7  1 -1</clus>
<clus scale="   47.219">  1  5  2 -1</clus>
</clustering>
</event>
<event>
10    2  0.3984345E-006  0.1134525E+03  0.7546771E-02  0.1256499E+00
          1   -1    0    0  503    0 -0.00000000000E+00  0.00000000000E+00  0.52874591409E+03  0.52874591409E+03  0.00000000000E+00 0. -1.
         21   -1    0    0  501  502  0.00000000000E+00 -0.00000000000E+00 -0.82140582309E+02  0.82140582309E+02  0.00000000000E+00 0.  1.
         23    2    1    2    0    0 -0.38803021786E+02 -0.13493315854E+02  0.39899622543E+03  0.41253066641E+03  0.96414826412E+02 0.  0.
         23    2    1    2    0    0  0.53789934792E+02  0.22530266389E+02 -0.22980743299E+02  0.11024813448E+03  0.90694909477E+02 0.  0.
        -11    1    4    4    0    0 -0.81648544196E+01 -0.24084970342E+02  0.81403328323E+01  0.26702353130E+02  0.00000000000E+00 0. -1.
         11    1    4    4    0    0  0.61954789212E+02  0.46615236730E+02 -0.31121076132E+02  0.83545781350E+02  0.00000000000E+00 0.  1.
        -11    1    3    3    0    0 -0.54690206382E+02  0.25837503008E+02  0.19477803301E+03  0.20395361575E+03  0.00000000000E+00 0.  1.
         11    1    3    3    0    0  0.15887184596E+02 -0.39330818863E+02  0.20421819242E+03  0.20857705066E+03  0.00000000000E+00 0. -1.
         21    1    1    2  503  502 -0.25132081919E+02  0.93921268947E+01  0.57176127220E+02  0.63158080347E+02  0.00000000000E+00 0.  1.
          1    1    1    2  501    0  0.10145168913E+02 -0.18429077429E+02  0.13413722429E+02  0.24949615159E+02  0.00000000000E+00 0. -1.
<scales pt_clust_5="13000.00000" pt_clust_6="13000.00000" pt_clust_7="13000.00000" pt_clust_8="13000.00000" pt_clust_9="26.21039" pt_clust_10="21.03700"></scales>
<clustering>
<clus scale="   21.037">  2 10  1 -1</clus>
<clus scale="   26.210">  1  9  2 -1</clus>
<clus scale="   90.695">  5  6 -1 -1</clus>
<clus scale="   96.415">  7  8 -1 -1</clus>
<clus scale="  108.633">  2  5  1 -1</clus>
<clus scale="   21.037">  2  5  1 -1</clus>
</clustering>
</event>
<event>
10    2  0.3984345E-006  0.1281373E+03  0.7546771E-02  0.1230454E+00
          3   -1    0    0  503    0 -0.00000000000E+00  0.00000000000E+00  0.87070675496E+03  0.87070675496E+03  0.00000000000E+00 0. -1.
         21   -1    0    0  501  502  0.00000000000E+00 -0.00000000000E+00 -0.10000633086E+03  0.10000633086E+03  0.00000000000E+00 0. -1.
         23    2    1    2    0    0 -0.83670530305E+02 -0.91241837322E+02  0.30460148275E+03  0.34163921866E+03  0.92787186159E+02 0.  0.
         23    2    1    2    0    0 -0.79951134785E+02  0.86125009963E+02  0.23105509490E+03  0.27507316444E+03  0.92027645956E+02 0.  0.
        -11    1    3    3    0    0 -0.32215849340E+02 -0.83788868324E+02  0.12003387391E+03  0.14988851287E+03  0.00000000000E+00 0.  1.
         11    1    3    3    0    0 -0.51454680964E+02 -0.74529689979E+01  0.18456760884E+03  0.19175070579E+03  0.00000000000E+00 0. -1.
        -11    1    4    4    0    0  0.53109422540E+01  0.59509065366E+02  0.99562952686E+02  0.11611337785E+03  0.00000000000E+00 0.  1.
         11    1    4    4    0    0 -0.85262077039E+02  0.26615944597E+02  0.13149214221E+03  0.15895978659E+03  0.00000000000E+00 0. -1.
         21    1    1    2  503  502  0.95761481554E+02  0.54669301846E+01  0.26350010979E+03  0.28041479372E+03  0.00000000000E+00 0.  1.
          3    1    1    2  501    0  0.67860183536E+02 -0.35010282537E+00 -0.28456263330E+02  0.73585909006E+02  0.00000000000E+00 0. -1.
<scales pt_clust_5="13000.00000" pt_clust_6="13000.00000" pt_clust_7="13000.00000" pt_clust_8="13000.00000" pt_clust_9="107.61349" pt_clust_10="67.86109"></scales>
<clustering>
<clus scale="   67.861">  2 10  1 -1</clus>
<clus scale="   92.028">  7  8 -1 -1</clus>
<clus scale="   92.787">  5  6 -1 -1</clus>
<clus scale="  107.613">  1  9  2 -1</clus>
<clus scale="  127.588">  2  7  1 -1</clus>
<clus scale="   67.861">  2  5  1 -1</clus>
</clustering>
</event>
<event>
10    2  0.3984345E-006  0.1072348E+03  0.7546771E-02  0.1266437E+00
         -1   -1    0    0    0  501 -0.00000000000E+00  0.00000000000E+00  0.65928119908E+03  0.65928119908E+03  0.00000000000E+00 0.  1.
         21   -1    0    0  503  502  0.00000000000E+00 -0.00000000000E+00 -0.59864181637E+02  0.59864181637E+02  0.00000000000E+00 0.  1.
         23    2    1    2    0    0  0.13291372945E+02 -0.44156870710E+02  0.24608720950E+03  0.26573996500E+03  0.89063598014E+02 0.  0.
         23    2    1    2    0    0  0.34414675053E+02  0.69158582878E+02  0.25577218197E+03  0.28215266950E+03  0.90683186936E+02 0.  0.
        -13    1    3    3    0    0  0.37211619203E+02  0.20435449411E+01  0.47081652899E+02  0.60046338101E+02  0.00000000000E+00 0.  1.
         13    1    3    3    0    0 -0.23920246258E+02 -0.46200415651E+02  0.19900555660E+03  0.20569362690E+03  0.00000000000E+00 0. -1.
        -13    1    4    4    0    0 -0.18853628366E+02 -0.10681163595E+02  0.31790007061E+02  0.38472731996E+02  0.00000000000E+00 0. -1.
         13    1    4    4    0    0  0.53268303419E+02  0.79839746473E+02  0.22398217491E+03  0.24367993751E+03  0.00000000000E+00 0.  1.
         21    1    1    2  503  501 -0.35797109552E+01 -0.26398247273E+02  0.11916067592E+03  0.12210220504E+03  0.00000000000E+00 0.  1.
         -1    1    1    2    0  502 -0.44126337043E+02  0.13965351049E+01 -0.21603049948E+02  0.49150541178E+02  0.00000000000E+00 0.  1.
<scales pt_clust_5="13000.00000" pt_clust_6="13000.00000" pt_clust_7="13000.00000" pt_clust_8="13000.00000" pt_clust_9="26.63985" pt_clust_10="44.22376"></scales>
<clustering>
<clus scale="   26.640">  1  9  2 -1</clus>
<clus scale="   44.224">  2 10  1 -1</clus>
<clus scale="   89.064">  5  6 -1 -1</clus>
<clus scale="   90.683">  7  8 -1 -1</clus>
<clus scale="  105.869">  1  5  2 -1</clus>
<clus scale="   44.224">  2  5  1 -1</clus>
</clustering>
</event>
<event>
10    2  0.3984345E-006  0.1155032E+03  0.7546771E-02  0.1250843E+00
          2   -1    0    0  503    0 -0.00000000000E+00  0.00000000000E+00  0.73893518886E+03  0.73893518886E+03  0.00000000000E+00 0. -1.
         21   -1    0    0  501  502  0.00000000000E+00 -0.00000000000E+00 -0.30078799518E+03  0.30078799518E+03  0.00000000000E+00 0. -1.
         23    2    1    2    0    0  0.23693088548E+02 -0.36956506422E+02  0.12001653910E+03  0.15637837124E+03  0.90128128358E+02 0.  0.
         23    2    1    2    0    0 -0.84842447816E+02  0.74081304327E+01  0.21198292352E+02  0.12608915018E+03  0.90531678693E+02 0.  0.
        -11    1    4    4    0    0  0.78899305552E+01  0.28179678708E+02  0.51817570074E+01  0.29718612046E+02  0.00000000000E+00 0. -1.
         11    1    4    4    0    0 -0.92732378372E+02 -0.20771548275E+02  0.16016535345E+02  0.96370538136E+02  0.00000000000E+00 0.  1.
        -11    1    3    3    0    0  0.57225030048E+02 -0.16734947090E+02  0.59011349637E+02  0.83887435913E+02  0.00000000000E+00 0. -1.
         11    1    3    3    0    0 -0.33531941500E+02 -0.20221559333E+02  0.61005189467E+02  0.72490935326E+02  0.00000000000E+00 0.  1.
         21    1    1    2  503  502  0.84747106983E+02  0.11965757131E+02  0.52265825918E+03  0.52961958741E+03  0.00000000000E+00 0. -1.
          2    1    1    2  501    0 -0.23597747714E+02  0.17582618859E+02 -0.22572589695E+03  0.22763607521E+03  0.00000000000E+00 0. -1.
<scales pt_clust_5="13000.00000" pt_clust_6="13000.00000" pt_clust_7="13000.00000" pt_clust_8="13000.00000" pt_clust_9="84.61127" pt_clust_10="29.42792"></scales>
<clustering>
<clus scale="   29.428">  2 10  1 -1</clus>
<clus scale="   84.611">  1  9  2 -1</clus>
<clus scale="   90.128">  7  8 -1 -1</clus>
<clus scale="   90.532">  5  6 -1 -1</clus>
<clus scale="  115.187">  1  7  2 -1</clus>
<clus scale="   29.428">  2  5  1 -1</clus>
</clustering>
</event>
<event>
10    2  0.3984345E-006  0.1315132E+03  0.7546771E-02  0.1225923E+00
         21   -1    0    0  503  502  0.00000000000E+00  0.00000000000E+00  0.89732805917E+03  0.89732805917E+03  0.00000000000E+00 0.  1.
         -1   -1    0    0    0  501 -0.00000000000E+00 -0.00000000000E+00 -0.46714361872E+02  0.46714361872E+02  0.00000000000E+00 0.  1.
         23    2    1    2    0    0 -0.66571277950E+02 -0.10163080189E+02  0.10661206305E+03  0.16022973260E+03  0.98855510599E+02 0.  0.
         23    2    1    2    0    0  0.72322392721E+02  0.11850507194E+02  0.51380694622E+03  0.52787117132E+03  0.96329811147E+02 0.  0.
        -13    1    4    4    0    0  0.68878879286E+02  0.48370609924E+02  0.37113293104E+03  0.38055705015E+03  0.00000000000E+00 0. -1.
         13    1    4    4    0    0  0.34435134353E+01 -0.36520102731E+02  0.14267401518E+03  0.14731412117E+03  0.00000000000E+00 0.  1.
        -13    1    3    3    0    0 -0.54135460638E+02 -0.52429387399E+02  0.62837987677E+02  0.98122889566E+02  0.00000000000E+00 0. -1.
         13    1    3    3    0    0 -0.12435817312E+02  0.42266307210E+02  0.43774075371E+02  0.62106843036E+02  0.00000000000E+00 0.  1.
         21    1    1    2  503  501 -0.33586197913E+02 -0.20064455246E+02  0.21585673887E+02  0.44682842028E+02  0.00000000000E+00 0. -1.
         -1    1    1    2    0  502  0.27835083141E+02  0.18377028242E+02  0.20860901414E+03  0.21125867509E+03  0.00000000000E+00 0.  1.
<scales pt_clust_5="13000.00000" pt_clust_6="13000.00000" pt_clust_7="13000.00000" pt_clust_8="13000.00000" pt_clust_9="37.51701" pt_clust_10="33.35427"></scales>
<clustering>
<clus scale="   33.354">  1 10  2 -1</clus>
<clus scale="   37.517">  2  9  1 -1</clus>
<clus scale="   96.330">  5  6 -1 -1</clus>
<clus scale="   98.856">  7  8 -1 -1</clus>
<clus scale="  129.625">  1  5  2 -1</clus>
<clus scale="   33.354">  1  5  2 -1</clus>
</clustering>
</event>
<event>
10    2  0.3984345E-006  0.9811837E+02  0.7546771E-02  0.1288368E+00
          1   -1    0    0  503    0 -0.00000000000E+00  0.00000000000E+00  0.37289847761E+03  0.37289847761E+03  0.00000000000E+00 0. -1.
         21   -1    0    0  501  502  0.00000000000E+00 -0.00000000000E+00 -0.28386023002E+03  0.28386023002E+03  0.00000000000E+00 0. -1.
         23    2    1    2    0    0 -0.31680097427E+02  0.28106778984E+02  0.24861818475E+03  0.26605979989E+03  0.84753735796E+02 0.  0.
         23    2    1    2    0    0 -0.76683165161E+01 -0.55321683291E+02 -0.14128638891E+03  0.17785190515E+03  0.92467100941E+02 0.  0.
        -11    1    4    4    0    0  0.26177891926E+02  0.14483497515E+02 -0.47523351475E+02  0.56156234395E+02  0.00000000000E+00 0.  1.
         11    1    4    4    0    0 -0.33846208442E+02 -0.69805180806E+02 -0.93763037432E+02  0.12169567076E+03  0.00000000000E+00 0. -1.
        -13    1    3    3    0    0 -0.10658511057E+02 -0.26260535012E+02  0.37275793449E+02  0.46826320956E+02  0.00000000000E+00 0. -1.
         13    1    3    3    0    0 -0.21021586371E+02  0.54367313996E+02  0.21134239130E+03  0.21923347893E+03  0.00000000000E+00 0.  1.
         21    1    1    2  503  502  0.39263110522E+02  0.26931063021E+01  0.91892431605E+02  0.99965312262E+02  0.00000000000E+00 0. -1.
          1    1    1    2  501    0  0.85303421207E-01  0.24521798006E+02 -0.11018597985E+03  0.11288169032E+03  0.00000000000E+00 0. -1.
<scales pt_clust_5="13000.00000" pt_clust_6="13000.00000" pt_clust_7="13000.00000" pt_clust_8="13000.00000" pt_clust_9="39.40083" pt_clust_10="24.52195"></scales>
<clustering>
<clus scale="   24.522">  2 10  1 -1</clus>
<clus scale="   39.401">  1  9  2 -1</clus>
<clus scale="   84.754">  7  8 -1 -1</clus>
<clus scale="   90.886">  1  7  2 -1</clus>
<clus scale="   92.467">  5  6 -1 -1</clus>
<clus scale="   24.522">  2  5  1 -1</clus>
</clustering>
</event>
<event>
10    2  0.3984345E-006  0.1116764E+03  0.7546771E-02  0.1258045E+00
          1   -1    0    0  503    0 -0.00000000000E+00  0.00000000000E+00  0.36677274367E+03  0.36677274367E+03  0.00000000000E+00 0. -1.
         21   -1    0    0  501  502  0.00000000000E+00 -0.00000000000E+00 -0.15917600823E+03  0.15917600823E+03  0.00000000000E+00 0.  1.
         23    2    1    2    0    0  0.37940611618E+01  0.10400288591E+03  0.14049721002E+03  0.19714198408E+03  0.91074149390E+02 0.  0.
         23    2    1    2    0    0  0.66316803024E+02 -0.13353687713E+02 -0.20254550712E+02  0.11407840333E+03  0.89595736184E+02 0.  0.
        -11    1    3    3    0    0 -0.30613698478E+02  0.58699868710E+02  0.11929026009E+03  0.13642961289E+03  0.00000000000E+00 0. -1.
         11    1    3    3    0    0  0.34407759640E+02  0.45303017198E+02  0.21206949934E+02  0.60712371195E+02  0.00000000000E+00 0.  1.
        -11    1    4    4    0    0  0.76642189278E+02  0.14680143601E+02 -0.28515684472E+02  0.83082345023E+02  0.00000000000E+00 0.  1.
         11    1    4    4    0    0 -0.10325386255E+02 -0.28033831314E+02  0.82611337602E+01  0.30996058305E+02  0.00000000000E+00 0. -1.
         21    1    1    2  503  502 -0.57306977712E+02 -0.61533934128E+02  0.13404355296E+03  0.15823460062E+03  0.00000000000E+00 0. -1.
          1    1    1    2  501    0 -0.12803886474E+02 -0.29115264068E+02 -0.46689476821E+02  0.56493763872E+02  0.00000000000E+00 0. -1.
<scales pt_clust_5="13000.00000" pt_clust_6="13000.00000" pt_clust_7="13000.00000" pt_clust_8="13000.00000" pt_clust_9="87.47079" pt_clust_10="31.80626"></scales>
<clustering>
<clus scale="   31.806">  2 10  1 -1</clus>
<clus scale="   87.471">  1  9  2 -1</clus>
<clus scale="   89.596">  7  8 -1 -1</clus>
<clus scale="   91.074">  5  6 -1 -1</clus>
<clus scale="  110.474">  2  7  1 -1</clus>
<clus scale="   31.806">  2  5  1 -1</clus>
</clustering>
</event>
<event>
10    2  0.3984345E-006  0.1109956E+03  0.7546771E-02  0.1259007E+00
          2   -1    0    0  503    0 -0.00000000000E+00  0.00000000000E+00  0.10058703787E+04  0.10058703787E+04  0.00000000000E+00 0. -1.
         21   -1    0    0  501  502  0.00000000000E+00 -0.00000000000E+00 -0.35398366226E+02  0.35398366226E+02  0.00000000000E+00 0.  1.
         23    2    1    2    0    0  0.67306748764E+02  0.21068432825E+02  0.48578681656E+03  0.49945264147E+03  0.92141373111E+02 0.  0.
         23    2    1    2    0    0 -0.45037258294E+02 -0.21982429764E+02  0.27327182244E+03  0.29248732320E+03  0.91431741982E+02 0.  0.
        -11    1    4    4    0    0 -0.48643431163E+02 -0.44949777246E+02  0.25337007596E+03  0.26188367888E+03  0.00000000000E+00 0.  1.
         11    1    4    4    0    0  0.36061728691E+01  0.22967347482E+02  0.19901746478E+02  0.30603644325E+02  0.00000000000E+00 0. -1.
        -13    1    3    3    0    0 -0.21417905661E+02  0.14930400536E+02  0.13986420515E+03  0.14228014417E+03  0.00000000000E+00 0.  1.
         13    1    3    3    0    0  0.88724654426E+02  0.61380322887E+01  0.34592261141E+03  0.35717249730E+03  0.00000000000E+00 0. -1.
         21    1    1    2  503  502 -0.16242599849E+02 -0.59146824312E+02  0.15505565942E+03  0.16674659335E+03  0.00000000000E+00 0.  1.
          2    1    1    2  501    0 -0.60268906210E+01  0.60060821251E+02  0.56357714055E+02  0.82582186901E+02  0.00000000000E+00 0. -1.
<scales pt_clust_5="13000.00000" pt_clust_6="13000.00000" pt_clust_7="13000.00000" pt_clust_8="13000.00000" pt_clust_9="46.91117" pt_clust_10="60.36245"></scales>
<clustering>
<clus scale="   60.362">  2 10  1 -1</clus>
<clus scale="   46.911">  2  9  1 -1</clus>
<clus scale="   91.432">  5  6 -1 -1</clus>
<clus scale="   92.141">  7  8 -1 -1</clus>
<clus scale="  110.407">  2  5  1 -1</clus>
<clus scale="   60.362">  2  5  1 -1</clus>
</clustering>
</event>
<event>
10    2  0.3984345E-006  0.2104829E+03  0.7546771E-02  0.1173948E+00
         21   -1    0    0  501  502  0.00000000000E+00  0.00000000000E+00  0.89159004571E+02  0.89159004571E+02  0.00000000000E+00 0. -1.
          1   -1    0    0  503    0 -0.00000000000E+00 -0.00000000000E+00 -0.85545203882E+03  0.85545203882E+03  0.00000000000E+00 0. -1.
         23    2    1    2    0    0  0.69915547415E+01 -0.27970204251E+02 -0.12337829626E+03  0.15885287111E+03  0.95816577418E+02 0.  0.
         23    2    1    2    0    0 -0.14013696685E+02  0.17924875574E+03 -0.30575017633E+03  0.36587567480E+03  0.89751540117E+02 0.  0.
        -11    1    4    4    0    0 -0.87953010691E+01  0.45781756399E+02 -0.20549814030E+02  0.50947241305E+02  0.00000000000E+00 0.  1.
         11    1    4    4    0    0 -0.52183956160E+01  0.13346699934E+03 -0.28520036230E+03  0.31492843349E+03  0.00000000000E+00 0. -1.
        -11    1    3    3    0    0 -0.44194031913E+02 -0.14627906821E+02 -0.49046933768E+02  0.67621666844E+02  0.00000000000E+00 0. -1.
         11    1    3    3    0    0  0.51185586654E+02 -0.13342297430E+02 -0.74331362492E+02  0.91231204265E+02  0.00000000000E+00 0.  1.
         21    1    1    2  503  502 -0.13402348539E+02  0.47012810707E+02 -0.89294285222E+02  0.10180027844E+03  0.00000000000E+00 0.  1.
          1    1    1    2  501    0  0.20424490483E+02 -0.19829136219E+03 -0.24787027643E+03  0.31808221904E+03  0.00000000000E+00 0. -1.
<scales pt_clust_5="13000.00000" pt_clust_6="13000.00000" pt_clust_7="13000.00000" pt_clust_8="13000.00000" pt_clust_9="48.88586" pt_clust_10="190.38837"></scales>
<clustering>
<clus scale="   48.886">  2  9  1 -1</clus>
<clus scale="   89.752">  5  6 -1 -1</clus>
<clus scale="   95.817">  7  8 -1 -1</clus>
<clus scale="   97.833">  2  7  1 -1</clus>
<clus scale="  190.388">  1 10  2 -1</clus>
<clus scale="  190.388">  1  5  2 -1</clus>
</clustering>
</event>
<event>
10    2  0.3984345E-006  0.1053313E+03  0.7546771E-02  0.1269797E+00
         21   -1    0    0  501  502  0.00000000000E+00  0.00000000000E+00  0.21348686053E+03  0.21348686053E+03  0.00000000000E+00 0.  1.
          3   -1    0    0  503    0 -0.00000000000E+00 -0.00000000000E+00 -0.15540013151E+03  0.15540013151E+03  0.00000000000E+00 0. -1.
         23    2    1    2    0    0  0.14186767691E+02 -0.62543525198E+02 -0.46115828566E+01  0.11251327760E+03  0.92331002471E+02 0.  0.
         23    2    1    2    0    0  0.61658563235E+02  0.31946481922E+02  0.11159928047E+02  0.11546226131E+03  0.91567645301E+02 0.  0.
        -11    1    3    3    0    0 -0.36252186370E+02 -0.27018626601E+02 -0.19195674296E+02  0.49119253981E+02  0.00000000000E+00 0. -1.
         11    1    3    3    0    0  0.50438954060E+02 -0.35524898597E+02  0.14584091439E+02  0.63394023615E+02  0.00000000000E+00 0.  1.
        -13    1    4    4    0    0  0.41095450417E+02  0.50565726810E+02 -0.25084077853E+02  0.69820768648E+02  0.00000000000E+00 0.  1.
         13    1    4    4    0    0  0.20563112818E+02 -0.18619244888E+02  0.36244005900E+02  0.45641492665E+02  0.00000000000E+00 0. -1.
         21    1    1    2  503  502 -0.21520710861E+02  0.33517385271E+02 -0.24985917014E+02  0.47019699706E+02  0.00000000000E+00 0. -1.
          3    1    1    2  501    0 -0.54324620065E+02 -0.29203419955E+01  0.76524300839E+02  0.93891753426E+02  0.00000000000E+00 0. -1.
<scales pt_clust_5="13000.00000" pt_clust_6="13000.00000" pt_clust_7="13000.00000" pt_clust_8="13000.00000" pt_clust_9="39.83160" pt_clust_10="55.89190"></scales>
<clustering>
<clus scale="   39.832">  2  9  1 -1</clus>
<clus scale="   55.892">  1 10  2 -1</clus>
<clus scale="   91.568">  7  8 -1 -1</clus>
<clus scale="   92.331">  5  6 -1 -1</clus>
<clus scale="  104.663">  1  7  2 -1</clus>
<clus scale="   55.892">  1  5  2 -1</clus>
</clustering>
</event>
<event>
10    2  0.3984345E-006  0.1845267E+03  0.7546771E-02  0.1163541E+00
         21   -1    0    0  503  502  0.00000000000E+00  0.00000000000E+00  0.35425656882E+03  0.35425656882E+03  0.00000000000E+00 0. -1.
          2   -1    0    0  502    0 -0.00000000000E+00 -0.00000000000E+00 -0.25991787054E+03  0.25991787054E+03  0.00000000000E+00 0. -1.
         23    2    1    2    0    0 -0.13017946495E+03  0.15308927020E+03 -0.86794464631E+02  0.23740253347E+03  0.91889423019E+02 0.  0.
         23    2    1    2    0    0  0.31033137732E+02 -0.11130417096E+03  0.38525900991E+02  0.15232491298E+03  0.91471088091E+02 0.  0.
        -11    1    3    3    0    0 -0.84814342955E+01  0.75181031340E+02 -0.20276547024E+02  0.78327904098E+02  0.00000000000E+00 0.  1.
         11    1    3    3    0    0 -0.12169803065E+03  0.77908238856E+02 -0.66517917607E+02  0.15907462937E+03  0.00000000000E+00 0. -1.
        -11    1    4    4    0    0  0.54757530786E+02 -0.49929999282E+02 -0.36068699867E+01  0.74191653959E+02  0.00000000000E+00 0. -1.
         11    1    4    4    0    0 -0.23724393054E+02 -0.61374171674E+02  0.42132770978E+02  0.78133259018E+02  0.00000000000E+00 0.  1.
         21    1    1    2  503  501  0.32014008132E+02  0.48733332716E+02  0.31867954716E+02  0.66448483595E+02  0.00000000000E+00 0. -1.
          2    1    1    2  501    0  0.67132319084E+02 -0.90518431955E+02  0.11073930720E+03  0.15799850932E+03  0.00000000000E+00 0. -1.
<scales pt_clust_5="13000.00000" pt_clust_6="13000.00000" pt_clust_7="13000.00000" pt_clust_8="13000.00000" pt_clust_9="58.30810" pt_clust_10="106.61741"></scales>
<clustering>
<clus scale="   58.308">  1  9  2 -1</clus>
<clus scale="   91.471">  7  8 -1 -1</clus>
<clus scale="   91.889">  5  6 -1 -1</clus>
<clus scale="  106.617">  1 10  2 -1</clus>
<clus scale="  184.319">  1  7  2 -1</clus>
<clus scale="   58.308">  1  5  2 -1</clus>
</clustering>
</event>
<event>
10    2  0.3984345E-006  0.1308207E+03  0.7546771E-02  0.1226445E+00
         21   -1    0    0  501  502  0.00000000000E+00  0.00000000000E+00  0.25225605600E+03  0.25225605600E+03  0.00000000000E+00 0.  1.
          2   -1    0    0  503    0 -0.00000000000E+00 -0.00000000000E+00 -0.33234002962E+03  0.33234002962E+03  0.00000000000E+00 0. -1.
         23    2    1    2    0    0  0.73786438329E+02 -0.67315646078E+02 -0.17923661995E+03  0.22210078675E+03  0.85012698219E+02 0.  0.
         23    2    1    2    0    0 -0.56205865317E+02  0.60115755590E+02  0.13602885885E+03  0.18068397460E+03  0.85847800627E+02 0.  0.
        -11    1    4    4    0    0 -0.33465163717E+02  0.52614722118E+02  0.25129550664E+02  0.67228866439E+02  0.00000000000E+00 0. -1.
         11    1    4    4    0    0 -0.22740701600E+02  0.75010334715E+01  0.11089930819E+03  0.11345510817E+03  0.00000000000E+00 0.  1.
        -13    1    3    3    0    0  0.21568258557E+02 -0.12546241565E+02  0.26578909698E+01  0.25093073526E+02  0.00000000000E+00 0.  1.
         13    1    3    3    0    0  0.52218179772E+02 -0.54769404513E+02 -0.18189451092E+03  0.19700771323E+03  0.00000000000E+00 0. -1.
         21    1    1    2  503  502  0.14115925166E+02  0.15604293283E+02 -0.10453132970E+03  0.10662810230E+03  0.00000000000E+00 0. -1.
          2    1    1    2  501    0 -0.31696498178E+02 -0.84044027940E+01  0.67655117180E+02  0.75183221956E+02  0.00000000000E+00 0. -1.
<scales pt_clust_5="13000.00000" pt_clust_6="13000.00000" pt_clust_7="13000.00000" pt_clust_8="13000.00000" pt_clust_9="21.04170" pt_clust_10="32.49948"></scales>
<clustering>
<clus scale="   21.042">  2  9  1 -1</clus>
<clus scale="   32.499">  1 10  2 -1</clus>
<clus scale="   85.013">  7  8 -1 -1</clus>
<clus scale="   85.848">  5  6 -1 -1</clus>
<clus scale="  130.274">  2  7  1 -1</clus>
<clus scale="   32.499">  1  5  2 -1</clus>
</clustering>
</event>
<event>
10    2  0.3984345E-006  0.1392525E+03  0.7546771E-02  0.1214511E+00
         21   -1    0    0  501  502  0.00000000000E+00  0.00000000000E+00  0.58928697710E+02  0.58928697710E+02  0.00000000000E+00 0. -1.
          2   -1    0    0  503    0 -0.00000000000E+00 -0.00000000000E+00 -0.72171399526E+03  0.72171399526E+03  0.00000000000E+00 0. -1.
         23    2    1    2    0    0 -0.94860657706E+02  0.53710271847E+02 -0.28496600482E+03  0.31847317537E+03  0.91302803055E+02 0.  0.
         23    2    1    2    0    0  0.10932510894E+03  0.95249105256E+01 -0.23001402850E+03  0.27097380291E+03  0.92074128782E+02 0.  0.
        -11    1    3    3    0    0 -0.22425346765E+02 -0.25510131604E+02 -0.84614561382E+02  0.91177228461E+02  0.00000000000E+00 0.  1.
         11    1    3    3    0    0 -0.72435310941E+02  0.79220403451E+02 -0.20035144343E+03  0.22729594691E+03  0.00000000000E+00 0. -1.
        -11    1    4    4    0    0  0.74581403670E+02 -0.37908289740E+02 -0.12086533586E+03  0.14699610069E+03  0.00000000000E+00 0.  1.
         11    1    4    4    0    0  0.34743705268E+02  0.47433200266E+02 -0.10914869264E+03  0.12397770222E+03  0.00000000000E+00 0. -1.
         21    1    1    2  503  502 -0.58370699005E+02 -0.37851170328E+02 -0.73210080053E+02  0.10099289786E+03  0.00000000000E+00 0. -1.
          2    1    1    2  501    0  0.43906247772E+02 -0.25384012044E+02 -0.74595184179E+02  0.90202816828E+02  0.00000000000E+00 0. -1.
<scales pt_clust_5="13000.00000" pt_clust_6="13000.00000" pt_clust_7="13000.00000" pt_clust_8="13000.00000" pt_clust_9="64.49153" pt_clust_10="50.71594"></scales>
<clustering>
<clus scale="   50.716">  1 10  2 -1</clus>
<clus scale="   64.492">  1  9  2 -1</clus>
<clus scale="   91.303">  5  6 -1 -1</clus>
<clus scale="   92.074">  7  8 -1 -1</clus>
<clus scale="  138.744">  2  5  1 -1</clus>
<clus scale="   50.716">  1  5  2 -1</clus>
</clustering>
</event>
<event>
10    2  0.3984345E-006  0.1012448E+03  0.7546771E-02  0.1277892E+00
         -1   -1    0    0    0  501 -0.00000000000E+00  0.00000000000E+00  0.15375277520E+03  0.15375277520E+03  0.00000000000E+00 0.  1.
         21   -1    0    0  503  502  0.00000000000E+00 -0.00000000000E+00 -0.26384923175E+03  0.26384923175E+03  0.00000000000E+00 0.  1.
         23    2    1    2    0    0 -0.16319927514E+02  0.88890113088E+01  0.91127207159E+02  0.13059221652E+03  0.91677721254E+02 0.  0.
         23    2    1    2    0    0  0.58488601036E+02 -0.26644523669E+02 -0.13435668529E+03  0.17510597400E+03  0.92084396918E+02 0.  0.
        -11    1    3    3    0    0 -0.39494351516E+02 -0.24725866569E+02  0.71369971269E+02  0.85234060553E+02  0.00000000000E+00 0. -1.
         11    1    3    3    0    0  0.23174424002E+02  0.33614877878E+02  0.19757235890E+02  0.45358155965E+02  0.00000000000E+00 0.  1.
        -11    1    4    4    0    0  0.78493965594E+02 -0.21316167954E+02 -0.13090676760E+03  0.15411769352E+03  0.00000000000E+00 0.  1.
         11    1    4    4    0    0 -0.20005364559E+02 -0.53283557146E+01 -0.34499176940E+01  0.20988280488E+02  0.00000000000E+00 0. -1.
         21    1    1    2  503  501 -0.99577722354E+01  0.26498346000E+02  0.84341358082E+01  0.29537335958E+02  0.00000000000E+00 0. -1.
         -1    1    1    2    0  502 -0.32210901286E+02 -0.87428336403E+01 -0.75301114223E+02  0.82366480470E+02  0.00000000000E+00 0.  1.
<scales pt_clust_5="13000.00000" pt_clust_6="13000.00000" pt_clust_7="13000.00000" pt_clust_8="13000.00000" pt_clust_9="28.30759" pt_clust_10="33.45445"></scales>
<clustering>
<clus scale="   28.308">  1  9  2 -1</clus>
<clus scale="   33.454">  2 10  1 -1</clus>
<clus scale="   91.678">  5  6 -1 -1</clus>
<clus scale="   92.084">  7  8 -1 -1</clus>
<clus scale="  100.875">  1  5  2 -1</clus>
<clus scale="   33.454">  2  5  1 -1</clus>
</clustering>
</event>
<event>
10    2  0.3984345E-006  0.2102214E+03  0.7546771E-02  0.1141487E+00
         21   -1    0    0  503  502  0.00000000000E+00  0.00000000000E+00  0.20042527877E+03  0.20042527877E+03  0.00000000000E+00 0. -1.
         -1   -1    0    0    0  501 -0.00000000000E+00 -0.00000000000E+00 -0.54296411702E+03  0.54296411702E+03  0.00000000000E+00 0.  1.
         23    2    1    2    0    0 -0.10007871887E+03 -0.17597259370E+03 -0.36609434460E+03  0.42793192075E+03  0.90103029631E+02 0.  0.
         23    2    1    2    0    0  0.11976863881E+03  0.17771479108E+03  0.21786513195E+02  0.23305655245E+03  0.88958589630E+02 0.  0.
        -11    1    4    4    0    0  0.83923213976E+02  0.13861115120E+03 -0.22961682935E+02  0.16365633493E+03  0.00000000000E+00 0.  1.
         11    1    4    4    0    0  0.35845424839E+02  0.39103639879E+02  0.44748196130E+02  0.69400217511E+02  0.00000000000E+00 0. -1.
        -11    1    3    3    0    0 -0.42483248255E+02 -0.25741114165E+02 -0.38105941426E+02  0.62605863245E+02  0.00000000000E+00 0. -1.
         11    1    3    3    0    0 -0.57595470611E+02 -0.15023147954E+03 -0.32798840317E+03  0.36532605751E+03  0.00000000000E+00 0.  1.
         21    1    1    2  503  501  0.11315504725E+02  0.22080377922E+02 -0.24837334777E+02  0.35106650868E+02  0.00000000000E+00 0.  1.
         -1    1    1    2    0  502 -0.31005424673E+02 -0.23822575299E+02  0.26606327928E+02  0.47294271734E+02  0.00000000000E+00 0.  1.
<scales pt_clust_5="13000.00000" pt_clust_6="13000.00000" pt_clust_7="13000.00000" pt_clust_8="13000.00000" pt_clust_9="24.81096" pt_clust_10="38.64893"></scales>
<clustering>
<clus scale="   24.811">  2  9  1 -1</clus>
<clus scale="   38.649">  1 10  2 -1</clus>
<clus scale="   88.959">  5  6 -1 -1</clus>
<clus scale="   90.103">  7  8 -1 -1</clus>
<clus scale="  209.733">  1  5  2 -1</clus>
<clus scale="   38.649">  1  5  2 -1</clus>
</clustering>
</event>
<event>
10    2  0.3984345E-006  0.4348337E+03  0.7546771E-02  0.1032348E+00
         21   -1    0    0  503  502  0.00000000000E+00  0.00000000000E+00  0.34584512207E+03  0.34584512207E+03  0.00000000000E+00 0.  1.
         -1   -1    0    0    0  501 -0.00000000000E+00 -0.00000000000E+00 -0.14061546116E+04  0.14061546116E+04  0.00000000000E+00 0.  1.
         23    2    1    2    0    0  0.42320529350E+03 -0.12033406693E+03 -0.72291412274E+03  0.85128957440E+03  0.92228534080E+02 0.  0.
         23    2    1    2    0    0 -0.40692440714E+03  0.76392656081E+02 -0.39818151892E+03  0.58174658266E+03  0.91963326374E+02 0.  0.
        -11    1    3    3    0    0  0.35609585887E+03 -0.67935350523E+02 -0.55292871830E+03  0.66117292751E+03  0.00000000000E+00 0.  1.
         11    1    3    3    0    0  0.67109434636E+02 -0.52398716410E+02 -0.16998540445E+03  0.19011664689E+03  0.00000000000E+00 0. -1.
        -11    1    4    4    0    0 -0.89222571944E+02  0.36698736417E+02 -0.49738875339E+02  0.10854225131E+03  0.00000000000E+00 0. -1.
         11    1    4    4    0    0 -0.31770183520E+03  0.39693919664E+02 -0.34844264358E+03  0.47320433135E+03  0.00000000000E+00 0.  1.
         21    1    1    2  503  501 -0.15355233340E+02  0.20778062596E+02 -0.12707635538E+03  0.12967617813E+03  0.00000000000E+00 0.  1.
         -1    1    1    2    0  502 -0.92565302266E+00  0.23163348256E+02  0.18786250747E+03  0.18928739854E+03  0.00000000000E+00 0.  1.
<scales pt_clust_5="13000.00000" pt_clust_6="13000.00000" pt_clust_7="13000.00000" pt_clust_8="13000.00000" pt_clust_9="25.99498" pt_clust_10="23.18184"></scales>
<clustering>
<clus scale="   23.182">  1 10  2 -1</clus>
<clus scale="   25.995">  2  9  1 -1</clus>
<clus scale="   91.963">  7  8 -1 -1</clus>
<clus scale="   92.229">  5  6 -1 -1</clus>
<clus scale="  434.778">  1  7  2 -1</clus>
<clus scale="   23.182">  1  5  2 -1</clus>
</clustering>
</event>
<event>
10    2  0.3984345E-006  0.1165148E+03  0.7546771E-02  0.1250383E+00
         21   -1    0    0  501  502  0.00000000000E+00  0.00000000000E+00  0.30517038302E+03  0.30517038302E+03  0.00000000000E+00 0.  1.
          1   -1    0    0  503    0 -0.00000000000E+00 -0.00000000000E+00 -0.27294740335E+03  0.27294740335E+03  0.00000000000E+00 0. -1.
         23    2    1    2    0    0 -0.40813582760E+02 -0.26601604531E+02 -0.17849509628E+01  0.10259633652E+03  0.90274184110E+02 0.  0.
         23    2    1    2    0    0  0.40194117107E+02  0.10468602398E+03  0.22645757384E+02  0.14313037523E+03  0.86015948041E+02 0.  0.
        -11    1    3    3    0    0 -0.53927850978E+02 -0.45949443316E+02  0.16707355087E+02  0.72792171050E+02  0.00000000000E+00 0. -1.
         11    1    3    3    0    0  0.13114268218E+02  0.19347838785E+02 -0.18492306050E+02  0.29804165474E+02  0.00000000000E+00 0.  1.
        -11    1    4    4    0    0  0.48578531942E+02  0.86188015274E+02  0.48556354576E+02  0.11020874426E+03  0.00000000000E+00 0.  1.
         11    1    4    4    0    0 -0.83844148349E+01  0.18498008710E+02 -0.25910597192E+02  0.32921630962E+02  0.00000000000E+00 0. -1.
         21    1    1    2  503  502 -0.54174868574E+01 -0.25313928029E+02 -0.15531392938E+03  0.15745653615E+03  0.00000000000E+00 0. -1.
          1    1    1    2  501    0  0.60369525108E+01 -0.52770491424E+02  0.16667610263E+03  0.17493453847E+03  0.00000000000E+00 0. -1.
<scales pt_clust_5="13000.00000" pt_clust_6="13000.00000" pt_clust_7="13000.00000" pt_clust_8="13000.00000" pt_clust_9="25.88714" pt_clust_10="53.98460"></scales>
<clustering>
<clus scale="   25.887">  2  9  1 -1</clus>
<clus scale="   53.985">  1 10  2 -1</clus>
<clus scale="   86.016">  7  8 -1 -1</clus>
<clus scale="   90.274">  5  6 -1 -1</clus>
<clus scale="  113.248">  1  7  2 -1</clus>
<clus scale="   53.985">  1  5  2 -1</clus>
</clustering>
</event>
<event>
10    2  0.3984345E-006  0.9386043E+02  0.7546771E-02  0.1295752E+00
          3   -1    0    0  503    0 -0.00000000000E+00  0.00000000000E+00  0.40542616756E+03  0.40542616756E+03  0.00000000000E+00 0. -1.
         21   -1    0    0  501  502  0.00000000000E+00 -0.00000000000E+00 -0.51302501361E+02  0.51302501361E+02  0.00000000000E+00 0.  1.
         23    2    1    2    0    0  0.46930455585E+02 -0.21271858028E+01  0.20888041210E+03  0.23135880210E+03  0.87686237064E+02 0.  0.
         23    2    1    2    0    0 -0.18070203999E+02 -0.20897930337E+02  0.46119962588E+02  0.10586349377E+03  0.91196340932E+02 0.  0.
        -11    1    4    4    0    0  0.34451462827E+02  0.75062623797E+01  0.12979182683E+02  0.37572682216E+02  0.00000000000E+00 0.  1.
         11    1    4    4    0    0 -0.52521666826E+02 -0.28404192717E+02  0.33140779905E+02  0.68290811555E+02  0.00000000000E+00 0. -1.
        -11    1    3    3    0    0  0.52789493311E+02 -0.36773717161E+02  0.13610685517E+03  0.15054604911E+03  0.00000000000E+00 0.  1.
         11    1    3    3    0    0 -0.58590377257E+01  0.34646531359E+02  0.72773556928E+02  0.80812752993E+02  0.00000000000E+00 0. -1.
         21    1    1    2  503  502 -0.42391727467E+02  0.37950836393E+01  0.71717556181E+02  0.83395857703E+02  0.00000000000E+00 0. -1.
          3    1    1    2  501    0  0.13531475881E+02  0.19230032501E+02  0.27405735331E+02  0.36110515345E+02  0.00000000000E+00 0. -1.
<scales pt_clust_5="13000.00000" pt_clust_6="13000.00000" pt_clust_7="13000.00000" pt_clust_8="13000.00000" pt_clust_9="41.17626" pt_clust_10="23.51372"></scales>
<clustering>
<clus scale="   23.514">  2 10  1 -1</clus>
<clus scale="   41.176">  1  9  2 -1</clus>
<clus scale="   87.686">  7  8 -1 -1</clus>
<clus scale="   90.454">  1  7  2 -1</clus>
<clus scale="   91.196">  5  6 -1 -1</clus>
<clus scale="   23.514">  2  5  1 -1</clus>
</clustering>
</event>
<event>
10    2  0.3984345E-006  0.9743807E+02  0.7546771E-02  0.1287208E+00
         21   -1    0    0  501  502  0.00000000000E+00  0.00000000000E+00  0.34286553005E+02  0.34286553005E+02  0.00000000000E+00 0.  1.
          1   -1    0    0  503    0 -0.00000000000E+00 -0.00000000000E+00 -0.52580705730E+03  0.52580705730E+03  0.00000000000E+00 0. -1.
         23    2    1    2    0    0  0.17199941368E+02  0.32879922228E+02 -0.23070949134E+03  0.25144815420E+03  0.92856758448E+02 0.  0.
         23    2    1    2    0    0 -0.51445465068E+01 -0.22151059116E+02 -0.17931361739E+03  0.20197732198E+03  0.90135062167E+02 0.  0.
        -13    1    3    3    0    0 -0.25149283104E+02 -0.17676247984E+02 -0.46068835149E+02  0.55382973515E+02  0.00000000000E+00 0.  1.
         13    1    3    3    0    0  0.42349224472E+02  0.50556170211E+02 -0.18464065619E+03  0.19606518068E+03  0.00000000000E+00 0. -1.
        -13    1    4    4    0    0 -0.54496097799E+01 -0.56467421305E+02 -0.91052205888E+02  0.10727894534E+03  0.00000000000E+00 0.  1.
         13    1    4    4    0    0  0.30506327308E+00  0.34316362188E+02 -0.88261411503E+02  0.94698376638E+02  0.00000000000E+00 0. -1.
         21    1    1    2  503  502  0.21489837310E+02 -0.16889863010E+02 -0.61082036333E+02  0.66918575468E+02  0.00000000000E+00 0. -1.
          1    1    1    2  501    0 -0.33545232171E+02  0.61609998987E+01 -0.20415359237E+02  0.39749558664E+02  0.00000000000E+00 0. -1.
<scales pt_clust_5="13000.00000" pt_clust_6="13000.00000" pt_clust_7="13000.00000" pt_clust_8="13000.00000" pt_clust_9="27.33277" pt_clust_10="32.54130"></scales>
<clustering>
<clus scale="   27.333">  2  9  1 -1</clus>
<clus scale="   32.541">  1 10  2 -1</clus>
<clus scale="   90.135">  7  8 -1 -1</clus>
<clus scale="   92.857">  5  6 -1 -1</clus>
<clus scale="   94.848">  1  7  2 -1</clus>
<clus scale="   32.541">  1  5  2 -1</clus>
</clustering>
</event>
<event>
10    2  0.3984345E-006  0.1132106E+03  0.7546771E-02  0.1257018E+00
         21   -1    0    0  501  502  0.00000000000E+00  0.00000000000E+00  0.30005640443E+03  0.30005640443E+03  0.00000000000E+00 0. -1.
          3   -1    0    0  503    0 -0.00000000000E+00 -0.00000000000E+00 -0.27602981263E+03  0.27602981263E+03  0.00000000000E+00 0. -1.
         23    2    1    2    0    0 -0.73298007401E+02 -0.48069752349E+02 -0.44333544795E+02  0.13798338962E+03  0.96905384973E+02 0.  0.
         23    2    1    2    0    0  0.56634148566E+02  0.42929006750E+02  0.10414245846E+03  0.15550148677E+03  0.91020515985E+02 0.  0.
        -13    1    3    3    0    0 -0.34924062380E+02  0.24634773670E+02 -0.35007993817E+02  0.55246011964E+02  0.00000000000E+00 0.  1.
         13    1    3    3    0    0 -0.38373945021E+02 -0.72704526018E+02 -0.93255509778E+01  0.82737377654E+02  0.00000000000E+00 0. -1.
        -13    1    4    4    0    0 -0.23153200488E+02  0.24117064242E+02  0.27732473195E+02  0.43437236906E+02  0.00000000000E+00 0. -1.
         13    1    4    4    0    0  0.79787349055E+02  0.18811942508E+02  0.76409985267E+02  0.11206424987E+03  0.00000000000E+00 0.  1.
         21    1    1    2  503  502  0.30114153438E+02  0.41064988527E+02 -0.15195426785E+03  0.16026008561E+03  0.00000000000E+00 0. -1.
          3    1    1    2  501    0 -0.13450294604E+02 -0.35924242928E+02  0.11617194599E+03  0.12234125506E+03  0.00000000000E+00 0. -1.
<scales pt_clust_5="13000.00000" pt_clust_6="13000.00000" pt_clust_7="13000.00000" pt_clust_8="13000.00000" pt_clust_9="50.07588" pt_clust_10="38.35964"></scales>
<clustering>
<clus scale="   38.360">  1 10  2 -1</clus>
<clus scale="   50.076">  2  9  1 -1</clus>
<clus scale="   91.021">  7  8 -1 -1</clus>
<clus scale="   96.905">  5  6 -1 -1</clus>
<clus scale="  108.216">  1  7  2 -1</clus>
<clus scale="   38.360">  1  5  2 -1</clus>
</clustering>
</event>
<event>
10    2  0.3984345E-006  0.1293956E+03  0.7546771E-02  0.1241503E+00
         -3   -1    0    0    0  501 -0.00000000000E+00  0.00000000000E+00  0.15736735859E+04  0.15736735859E+04  0.00000000000E+00 0.  1.
         21   -1    0    0  503  502  0.00000000000E+00 -0.00000000000E+00 -0.66334049139E+02  0.66334049139E+02  0.00000000000E+00 0.  1.
         23    2    1    2    0    0 -0.13282070930E+02  0.31399344184E+02  0.75816389663E+02  0.12457719262E+03  0.92784803479E+02 0.  0.
         23    2    1    2    0    0  0.16812976628E+02 -0.40182152668E+02  0.27171689273E+03  0.28987347811E+03  0.91100394848E+02 0.  0.
        -11    1    3    3    0    0  0.11907165357E+02  0.58264013373E+02  0.32669905144E+02  0.67851297285E+02  0.00000000000E+00 0. -1.
         11    1    3    3    0    0 -0.25189236287E+02 -0.26864669189E+02  0.43146484519E+02  0.56725895336E+02  0.00000000000E+00 0.  1.
        -11    1    4    4    0    0 -0.37821020396E+02 -0.17832001264E+02  0.10533997240E+03  0.11333542976E+03  0.00000000000E+00 0.  1.
         11    1    4    4    0    0  0.54633997023E+02 -0.22350151405E+02  0.16637692033E+03  0.17653804836E+03  0.00000000000E+00 0. -1.
         21    1    1    2  503  501 -0.10808657463E+03 -0.67924894684E+02  0.10437602451E+04  0.10515378967E+04  0.00000000000E+00 0.  1.
         -3    1    1    2    0  502  0.10455566894E+03  0.76707703168E+02  0.11604600933E+03  0.17401906767E+03  0.00000000000E+00 0.  1.
<scales pt_clust_5="13000.00000" pt_clust_6="13000.00000" pt_clust_7="13000.00000" pt_clust_8="13000.00000" pt_clust_9="129.39560" pt_clust_10="13000.00000"></scales>
<clustering>
<clus scale="   91.100">  7  8 -1 -1</clus>
<clus scale="   92.785">  5  6 -1 -1</clus>
<clus scale="   98.850">  1  5  2 -1</clus>
<clus scale="   98.350">  1  7  2 -1</clus>
<clus scale="  129.396">  1  9  2 -1</clus>
<clus scale="  129.396">  2  5  1 -1</clus>
</clustering>
</event>
<event>
10    2  0.3984345E-006  0.9652336E+02  0.7546771E-02  0.1289323E+00
          2   -1    0    0  503    0 -0.00000000000E+00  0.00000000000E+00  0.71749663553E+03  0.71749663553E+03  0.00000000000E+00 0. -1.
         21   -1    0    0  501  502  0.00000000000E+00 -0.00000000000E+00 -0.51262791608E+02  0.51262791608E+02  0.00000000000E+00 0.  1.
         23    2    1    2    0    0  0.32475828840E+02 -0.17572082788E+02  0.19432963826E+03  0.21956892474E+03  0.95305020080E+02 0.  0.
         23    2    1    2    0    0  0.16995458958E+02  0.11989125247E+02  0.10723356460E+03  0.14314584876E+03  0.92515468384E+02 0.  0.
        -11    1    4    4    0    0  0.52047770840E+02 -0.10337894561E+02  0.55486083202E+02  0.76775959404E+02  0.00000000000E+00 0. -1.
         11    1    4    4    0    0 -0.35052311882E+02  0.22327019808E+02  0.51747481402E+02  0.66369889356E+02  0.00000000000E+00 0.  1.
        -11    1    3    3    0    0 -0.20898739174E+02 -0.39008633719E+02  0.94647531125E+02  0.10448246720E+03  0.00000000000E+00 0. -1.
         11    1    3    3    0    0  0.53374568014E+02  0.21436550931E+02  0.99682107139E+02  0.11508645754E+03  0.00000000000E+00 0.  1.
         21    1    1    2  503  502  0.99388432584E+01  0.49525157520E+02  0.31009134515E+03  0.31417855460E+03  0.00000000000E+00 0.  1.
          2    1    1    2  501    0 -0.59410131057E+02 -0.43942199979E+02  0.54579295909E+02  0.91866099041E+02  0.00000000000E+00 0. -1.
<scales pt_clust_5="13000.00000" pt_clust_6="13000.00000" pt_clust_7="13000.00000" pt_clust_8="13000.00000" pt_clust_9="50.51259" pt_clust_10="67.41070"></scales>
<clustering>
<clus scale="   50.513">  1  9  2 -1</clus>
<clus scale="   67.411">  2 10  1 -1</clus>
<clus scale="   92.515">  5  6 -1 -1</clus>
<clus scale="   93.770">  2  5  1 -1</clus>
<clus scale="   95.305">  7  8 -1 -1</clus>
<clus scale="   67.411">  2  5  1 -1</clus>
</clustering>
</event>
<event>
10    2  0.3984345E-006  0.1029321E+03  0.7546771E-02  0.1274433E+00
         21   -1    0    0  501  502  0.00000000000E+00  0.00000000000E+00  0.23893475585E+03  0.23893475585E+03  0.00000000000E+00 0. -1.
          1   -1    0    0  503    0 -0.00000000000E+00 -0.00000000000E+00 -0.18476855788E+03  0.18476855788E+03  0.00000000000E+00 0. -1.
         23    2    1    2    0    0  0.15397783958E+02 -0.33747794093E+02 -0.11840755095E+03  0.15461118315E+03  0.92240254110E+02 0.  0.
         23    2    1    2    0    0 -0.35718609805E+02 -0.57647562443E+01  0.10818830407E+03  0.14695910375E+03  0.92645655792E+02 0.  0.
        -13    1    4    4    0    0 -0.15264199275E+02  0.40285850747E+02  0.75406383803E+02  0.86845082003E+02  0.00000000000E+00 0.  1.
         13    1    4    4    0    0 -0.20454410530E+02 -0.46050606992E+02  0.32781920268E+02  0.60114021750E+02  0.00000000000E+00 0. -1.
        -13    1    3    3    0    0  0.49251181006E+02 -0.11534737622E+01 -0.79846095613E+02  0.93821150691E+02  0.00000000000E+00 0.  1.
         13    1    3    3    0    0 -0.33853397048E+02 -0.32594320330E+02 -0.38561455333E+02  0.60790032463E+02  0.00000000000E+00 0. -1.
         21    1    1    2  503  502  0.32263429266E+02  0.11272022648E+02 -0.14781664321E+02  0.37235533603E+02  0.00000000000E+00 0.  1.
          1    1    1    2  501    0 -0.11942603419E+02  0.28240527689E+02  0.79167109165E+02  0.84897493214E+02  0.00000000000E+00 0. -1.
<scales pt_clust_5="13000.00000" pt_clust_6="13000.00000" pt_clust_7="13000.00000" pt_clust_8="13000.00000" pt_clust_9="34.10594" pt_clust_10="30.66192"></scales>
<clustering>
<clus scale="   30.662">  1 10  2 -1</clus>
<clus scale="   34.106">  2  9  1 -1</clus>
<clus scale="   92.240">  7  8 -1 -1</clus>
<clus scale="   92.646">  5  6 -1 -1</clus>
<clus scale="  102.567">  2  7  1 -1</clus>
<clus scale="   30.662">  1  5  2 -1</clus>
</clustering>
</event>
<event>
10    2  0.3984345E-006  0.3455780E+03  0.7546771E-02  0.1102014E+00
          1   -1    0    0  503    0 -0.00000000000E+00  0.00000000000E+00  0.10581289096E+04  0.10581289096E+04  0.00000000000E+00 0. -1.
         21   -1    0    0  501  502  0.00000000000E+00 -0.00000000000E+00 -0.23365365451E+03  0.23365365451E+03  0.00000000000E+00 0.  1.
         23    2    1    2    0    0 -0.69237551811E+02  0.46994455073E+02  0.16176807387E+03  0.20359719776E+03  0.90997757256E+02 0.  0.
         23    2    1    2    0    0 -0.18600518690E+03 -0.26730685574E+03  0.43494909730E+03  0.55042333290E+03  0.87944547760E+02 0.  0.
        -11    1    4    4    0    0  0.31289830242E+00 -0.45086681598E+02  0.38858850305E+02  0.59522407629E+02  0.00000000000E+00 0.  1.
         11    1    4    4    0    0 -0.18631808520E+03 -0.22222017414E+03  0.39609024699E+03  0.49090092527E+03  0.00000000000E+00 0. -1.
        -11    1    3    3    0    0 -0.26514802731E+02  0.41375095338E+02  0.16135197936E+02  0.51723088564E+02  0.00000000000E+00 0.  1.
         11    1    3    3    0    0 -0.42722749081E+02  0.56193597343E+01  0.14563287593E+03  0.15187410920E+03  0.00000000000E+00 0. -1.
         21    1    1    2  503  502  0.28306695801E+03  0.20727938399E+03  0.29849402756E+03  0.46064121639E+03  0.00000000000E+00 0.  1.
          1    1    1    2  501    0 -0.27824219305E+02  0.13033016679E+02 -0.70735943628E+02  0.77120817065E+02  0.00000000000E+00 0. -1.
<scales pt_clust_5="13000.00000" pt_clust_6="13000.00000" pt_clust_7="13000.00000" pt_clust_8="13000.00000" pt_clust_9="334.20045" pt_clust_10="30.72534"></scales>
<clustering>
<clus scale="   30.725">  2 10  1 -1</clus>
<clus scale="   87.945">  5  6 -1 -1</clus>
<clus scale="   90.998">  7  8 -1 -1</clus>
<clus scale="  126.349">  1  7  2 -1</clus>
<clus scale="  334.200">  2  9  1 -1</clus>
<clus scale="   30.725">  2  5  1 -1</clus>
</clustering>
</event>
<event>
10    2  0.3984345E-006  0.2046219E+03  0.7546771E-02  0.1146051E+00
         21   -1    0    0  503  502  0.00000000000E+00  0.00000000000E+00  0.40388435136E+03  0.40388435136E+03  0.00000000000E+00 0.  1.
         -1   -1    0    0    0  501 -0.00000000000E+00 -0.00000000000E+00 -0.18323035224E+03  0.18323035224E+03  0.00000000000E+00 0.  1.
         23    2    1    2    0    0 -0.18114399308E+03  0.22187495738E+02  0.29574106254E+02  0.20529026218E+03  0.89241429783E+02 0.  0.
         23    2    1    2    0    0  0.20726723703E+03  0.89950814846E+00  0.18738523491E+03  0.29384301654E+03  0.90939405366E+02 0.  0.
        -11    1    3    3    0    0 -0.78098305067E+02 -0.28155786971E+02  0.35859402348E+02  0.90432241657E+02  0.00000000000E+00 0. -1.
         11    1    3    3    0    0 -0.10304568802E+03  0.50343282708E+02 -0.62852960944E+01  0.11485802053E+03  0.00000000000E+00 0.  1.
        -11    1    4    4    0    0  0.90289779625E+02 -0.10657838412E+01  0.14215874989E+03  0.16841166934E+03  0.00000000000E+00 0.  1.
         11    1    4    4    0    0  0.11697745740E+03  0.19652919897E+01  0.45226485014E+02  0.12543134720E+03  0.00000000000E+00 0. -1.
         21    1    1    2  503  501  0.21108956372E+02 -0.36095347923E+01 -0.22078279355E+02  0.30758205406E+02  0.00000000000E+00 0.  1.
         -1    1    1    2    0  502 -0.47232200316E+02 -0.19477469094E+02  0.25772937307E+02  0.57223219469E+02  0.00000000000E+00 0.  1.
<scales pt_clust_5="13000.00000" pt_clust_6="13000.00000" pt_clust_7="13000.00000" pt_clust_8="13000.00000" pt_clust_9="21.41534" pt_clust_10="49.28493"></scales>
<clustering>
<clus scale="   21.415">  2  9  1 -1</clus>
<clus scale="   49.285">  1 10  2 -1</clus>
<clus scale="   89.241">  5  6 -1 -1</clus>
<clus scale="   90.939">  7  8 -1 -1</clus>
<clus scale="  203.873">  2  5  1 -1</clus>
<clus scale="   49.285">  1  5  2 -1</clus>
</clustering>
</event>
<event>
10    2  0.3984345E-006  0.1775101E+03  0.7546771E-02  0.1173268E+00
         21   -1    0    0  501  502  0.00000000000E+00  0.00000000000E+00  0.38963336337E+03  0.38963336337E+03  0.00000000000E+00 0.  1.
          2   -1    0    0  503    0 -0.00000000000E+00 -0.00000000000E+00 -0.21193517625E+03  0.21193517625E+03  0.00000000000E+00 0. -1.
         23    2    1    2    0    0 -0.11679861440E+03 -0.65789234528E+02  0.26953000333E+02  0.16413303038E+03  0.90791231558E+02 0.  0.
         23    2    1    2    0    0  0.13719225753E+03  0.33518840174E+02  0.14288097432E+03  0.22950723737E+03  0.11096562985E+03 0.  0.
        -11    1    4    4    0    0  0.10517808915E+03  0.71519878597E+02  0.83828883483E+02  0.15233123507E+03  0.00000000000E+00 0.  1.
         11    1    4    4    0    0  0.32014168381E+02 -0.38001038423E+02  0.59052090839E+02  0.77176002299E+02  0.00000000000E+00 0. -1.
        -11    1    3    3    0    0 -0.49395156643E+02 -0.15714018736E+02 -0.32560406379E+02  0.61212678002E+02  0.00000000000E+00 0.  1.
         11    1    3    3    0    0 -0.67403457760E+02 -0.50075215792E+02  0.59513406713E+02  0.10292035238E+03  0.00000000000E+00 0. -1.
         21    1    1    2  503  502 -0.18354958423E+02  0.11323267515E+02 -0.97819813762E+02  0.10016904138E+03  0.00000000000E+00 0. -1.
          2    1    1    2  501    0 -0.20386847075E+01  0.20947126839E+02  0.10568402623E+03  0.10775923050E+03  0.00000000000E+00 0. -1.
<scales pt_clust_5="13000.00000" pt_clust_6="13000.00000" pt_clust_7="13000.00000" pt_clust_8="13000.00000" pt_clust_9="21.61964" pt_clust_10="21.04610"></scales>
<clustering>
<clus scale="   21.046">  1 10  2 -1</clus>
<clus scale="   21.620">  2  9  1 -1</clus>
<clus scale="   90.791">  7  8 -1 -1</clus>
<clus scale="  110.966">  5  6 -1 -1</clus>
<clus scale="  165.649">  2  7  1 -1</clus>
<clus scale="   21.046">  1  5  2 -1</clus>
</clustering>
</event>
<event>
10    2  0.3984345E-006  0.9687028E+02  0.7546771E-02  0.1287372E+00
          2   -1    0    0  503    0 -0.00000000000E+00  0.00000000000E+00  0.21960955895E+03  0.21960955895E+03  0.00000000000E+00 0. -1.
         21   -1    0    0  501  502  0.00000000000E+00 -0.00000000000E+00 -0.34457073477E+03  0.34457073477E+03  0.00000000000E+00 0.  1.
         23    2    1    2    0    0  0.10400985717E+01 -0.14779283462E+02 -0.43646983224E+02  0.10400322060E+03  0.93231441719E+02 0.  0.
         23    2    1    2    0    0 -0.40730878557E+02  0.28914930940E+02 -0.16359117478E+03  0.19448730435E+03  0.92564363490E+02 0.  0.
        -11    1    4    4    0    0  0.22119747062E+02  0.16825330347E+02 -0.12645784718E+02  0.30533437777E+02  0.00000000000E+00 0.  1.
         11    1    4    4    0    0 -0.62850625619E+02  0.12089600593E+02 -0.15094539006E+03  0.16395386657E+03  0.00000000000E+00 0. -1.
        -13    1    3    3    0    0 -0.42990674786E+02  0.61323200007E+01 -0.31844311416E+02  0.53850381955E+02  0.00000000000E+00 0.  1.
         13    1    3    3    0    0  0.44030773358E+02 -0.20911603463E+02 -0.11802671808E+02  0.50152838641E+02  0.00000000000E+00 0. -1.
         21    1    1    2  503  502  0.21042652778E+02  0.71121624969E+01  0.17106942649E+03  0.17250543403E+03  0.00000000000E+00 0. -1.
          2    1    1    2  501    0  0.18648127207E+02 -0.21247809975E+02 -0.88792444300E+02  0.93184334744E+02  0.00000000000E+00 0. -1.
<scales pt_clust_5="13000.00000" pt_clust_6="13000.00000" pt_clust_7="13000.00000" pt_clust_8="13000.00000" pt_clust_9="22.21207" pt_clust_10="28.67790"></scales>
<clustering>
<clus scale="   22.212">  1  9  2 -1</clus>
<clus scale="   28.678">  2 10  1 -1</clus>
<clus scale="   92.564">  5  6 -1 -1</clus>
<clus scale="   93.231">  7  8 -1 -1</clus>
<clus scale="   96.228">  2  5  1 -1</clus>
<clus scale="   28.678">  2  5  1 -1</clus>
</clustering>
</event>
<event>
10    2  0.3984345E-006  0.1320651E+03  0.7546771E-02  0.1225151E+00
         21   -1    0    0  501  502  0.00000000000E+00  0.00000000000E+00  0.64185667217E+02  0.64185667217E+02  0.00000000000E+00 0.  1.
          1   -1    0    0  503    0 -0.00000000000E+00 -0.00000000000E+00 -0.56635691535E+03  0.56635691535E+03  0.00000000000E+00 0. -1.
         23    2    1    2    0    0 -0.79313001575E+02 -0.59750680362E+02 -0.27982041916E+03  0.31032240386E+03  0.90221013832E+02 0.  0.
         23    2    1    2    0    0  0.94709262219E+02  0.34178637139E+02 -0.16057288740E+03  0.21114578802E+03  0.93063784814E+02 0.  0.
        -11    1    4    4    0    0  0.47175770024E+02 -0.27548617123E+02 -0.93748865894E+02  0.10850497426E+03  0.00000000000E+00 0. -1.
         11    1    4    4    0    0  0.47533492195E+02  0.61727254262E+02 -0.66824021501E+02  0.10264081376E+03  0.00000000000E+00 0.  1.
        -13    1    3    3    0    0 -0.33590803037E+02 -0.49830172881E+02 -0.24429329183E+03  0.25157623220E+03  0.00000000000E+00 0. -1.
         13    1    3    3    0    0 -0.45722198538E+02 -0.99205074811E+01 -0.35527127330E+02  0.58746171655E+02  0.00000000000E+00 0.  1.
         21    1    1    2  503  502  0.48963626510E+01  0.32383181825E+02 -0.76418639460E+02  0.83141164830E+02  0.00000000000E+00 0.  1.
          1    1    1    2  501    0 -0.20292623295E+02 -0.68111386015E+01  0.14640697879E+02  0.25933225863E+02  0.00000000000E+00 0. -1.
<scales pt_clust_5="13000.00000" pt_clust_6="13000.00000" pt_clust_7="13000.00000" pt_clust_8="13000.00000" pt_clust_9="32.03652" pt_clust_10="21.40519"></scales>
<clustering>
<clus scale="   21.405">  1 10  2 -1</clus>
<clus scale="   32.037">  2  9  1 -1</clus>
<clus scale="   90.221">  7  8 -1 -1</clus>
<clus scale="   93.064">  5  6 -1 -1</clus>
<clus scale="  130.077">  2  7  1 -1</clus>
<clus scale="   21.405">  1  5  2 -1</clus>
</clustering>
</event>
<event>
10    2  0.3984345E-006  0.1360749E+03  0.7546771E-02  0.1224993E+00
         21   -1    0    0  501  502  0.00000000000E+00  0.00000000000E+00  0.84136466753E+03  0.84136466753E+03  0.00000000000E+00 0. -1.
          2   -1    0    0  503    0 -0.00000000000E+00 -0.00000000000E+00 -0.95981646742E+02  0.95981646742E+02  0.00000000000E+00 0. -1.
         23    2    1    2    0    0 -0.65501725001E+02  0.24041905644E+02  0.61200261924E+02  0.12991774041E+03  0.90910164496E+02 0.  0.
         23    2    1    2    0    0  0.90197140525E+02  0.52019945960E+02  0.22821415988E+03  0.27471851667E+03  0.11201322108E+03 0.  0.
        -11    1    4    4    0    0  0.62185750144E+02 -0.25020830030E+02  0.13402423347E+03  0.14985194231E+03  0.00000000000E+00 0. -1.
         11    1    4    4    0    0  0.28011390381E+02  0.77040775990E+02  0.94189926411E+02  0.12486657437E+03  0.00000000000E+00 0.  1.
        -13    1    3    3    0    0 -0.28120869570E+02  0.57556338132E+02  0.29352621517E+02  0.70463407202E+02  0.00000000000E+00 0. -1.
         13    1    3    3    0    0 -0.37380855430E+02 -0.33514432489E+02  0.31847640407E+02  0.59454333208E+02  0.00000000000E+00 0.  1.
         21    1    1    2  503  502 -0.13442929830E+02  0.37794142741E+02 -0.18835691644E+02  0.44315830892E+02  0.00000000000E+00 0. -1.
          2    1    1    2  501    0 -0.11252485694E+02 -0.11385599434E+03  0.47480429063E+03  0.48839422630E+03  0.00000000000E+00 0. -1.
<scales pt_clust_5="13000.00000" pt_clust_6="13000.00000" pt_clust_7="13000.00000" pt_clust_8="13000.00000" pt_clust_9="40.11371" pt_clust_10="110.59685"></scales>
<clustering>
<clus scale="   40.114">  2  9  1 -1</clus>
<clus scale="   90.910">  7  8 -1 -1</clus>
<clus scale="  110.597">  1 10  2 -1</clus>
<clus scale="  112.013">  5  6 -1 -1</clus>
<clus scale="  119.307">  2  7  1 -1</clus>
<clus scale="  110.597">  1  5  2 -1</clus>
</clustering>
</event>
<event>
10    2  0.3984345E-006  0.1049358E+03  0.7546771E-02  0.1271066E+00
         21   -1    0    0  503  502  0.00000000000E+00  0.00000000000E+00  0.90817356776E+02  0.90817356776E+02  0.00000000000E+00 0.  1.
          1   -1    0    0  502    0 -0.00000000000E+00 -0.00000000000E+00 -0.26830541341E+03  0.26830541341E+03  0.00000000000E+00 0. -1.
         23    2    1    2    0    0  0.54013918583E+02  0.26707353178E+02 -0.14270778495E+03  0.18013552569E+03  0.91937531040E+02 0.  0.
         23    2    1    2    0    0  0.38297769971E+01 -0.51170533514E+02 -0.71663881094E+01  0.10389318082E+03  0.90051902866E+02 0.  0.
        -11    1    3    3    0    0  0.75495848518E+02  0.36700610986E+02 -0.94361187165E+02  0.12629565168E+03  0.00000000000E+00 0. -1.
         11    1    3    3    0    0 -0.21481929935E+02 -0.99932578073E+01 -0.48346597786E+02  0.53839874005E+02  0.00000000000E+00 0.  1.
        -13    1    4    4    0    0 -0.36372019834E+01 -0.21430209658E+02  0.41225093608E+02  0.46604629247E+02  0.00000000000E+00 0.  1.
         13    1    4    4    0    0  0.74669789805E+01 -0.29740323857E+02 -0.48391481718E+02  0.57288551570E+02  0.00000000000E+00 0. -1.
         21    1    1    2  503  501 -0.27615584317E+02  0.19618034274E+02 -0.28791964171E+02  0.44457451195E+02  0.00000000000E+00 0.  1.
          1    1    1    2  501    0 -0.30228111263E+02  0.48451460614E+01  0.11780805968E+01  0.30636612489E+02  0.00000000000E+00 0. -1.
<scales pt_clust_5="13000.00000" pt_clust_6="13000.00000" pt_clust_7="13000.00000" pt_clust_8="13000.00000" pt_clust_9="29.02614" pt_clust_10="69.83260"></scales>
<clustering>
<clus scale="   29.026">  9 10 -1 -1</clus>
<clus scale="   69.833">  1  9  2 -1</clus>
<clus scale="   90.052">  7  8 -1 -1</clus>
<clus scale="   91.938">  5  6 -1 -1</clus>
<clus scale="  103.288">  1  7  2 -1</clus>
<clus scale="   69.833">  1  5  2 -1</clus>
</clustering>
</event>
<event>
10    2  0.3984345E-006  0.1233182E+03  0.7546771E-02  0.1250940E+00
         21   -1    0    0  501  502  0.00000000000E+00  0.00000000000E+00  0.12751184761E+03  0.12751184761E+03  0.00000000000E+00 0. -1.
          1   -1    0    0  503    0 -0.00000000000E+00 -0.00000000000E+00 -0.98253925275E+03  0.98253925275E+03  0.00000000000E+00 0. -1.
         23    2    1    2    0    0  0.30750082728E+01 -0.10835566072E+02 -0.57128146849E+03  0.58385772618E+03  0.12000192919E+03 0.  0.
         23    2    1    2    0    0  0.28504950411E+02 -0.17494526722E+02 -0.11455706043E+03  0.14952653449E+03  0.90090364415E+02 0.  0.
        -11    1    3    3    0    0 -0.15302770334E+02  0.52161679340E+02 -0.28670805731E+03  0.29181591063E+03  0.00000000000E+00 0.  1.
         11    1    3    3    0    0  0.18377778607E+02 -0.62997245412E+02 -0.28457341118E+03  0.29204181555E+03  0.00000000000E+00 0. -1.
        -13    1    4    4    0    0 -0.18792195083E+02 -0.29285465265E+02 -0.86610204072E+02  0.93338697876E+02  0.00000000000E+00 0. -1.
         13    1    4    4    0    0  0.47297145493E+02  0.11790938543E+02 -0.27946856357E+02  0.56187836617E+02  0.00000000000E+00 0.  1.
         21    1    1    2  503  502 -0.43647681510E+02  0.66560618669E+01 -0.26962311621E+03  0.27321428963E+03  0.00000000000E+00 0.  1.
          1    1    1    2  501    0  0.12067722827E+02  0.21674030928E+02  0.10043423999E+03  0.10345255006E+03  0.00000000000E+00 0. -1.
<scales pt_clust_5="13000.00000" pt_clust_6="13000.00000" pt_clust_7="13000.00000" pt_clust_8="13000.00000" pt_clust_9="43.57453" pt_clust_10="24.80713"></scales>
<clustering>
<clus scale="   24.807">  1 10  2 -1</clus>
<clus scale="   43.575">  2  9  1 -1</clus>
<clus scale="   90.090">  7  8 -1 -1</clus>
<clus scale="   94.463">  1  7  2 -1</clus>
<clus scale="  120.002">  5  6 -1 -1</clus>
<clus scale="   24.807">  1  5  2 -1</clus>
</clustering>
</event>
<event>
10    2  0.3984345E-006  0.1065327E+03  0.7546771E-02  0.1268358E+00
         21   -1    0    0  501  502  0.00000000000E+00  0.00000000000E+00  0.50929708867E+03  0.50929708867E+03  0.00000000000E+00 0.  1.
          4   -1    0    0  503    0 -0.00000000000E+00 -0.00000000000E+00 -0.62865106273E+02  0.62865106273E+02  0.00000000000E+00 0. -1.
         23    2    1    2    0    0  0.31070719421E+02  0.35663872938E+02  0.37171709440E+02  0.11167478509E+03  0.94086238124E+02 0.  0.
         23    2    1    2    0    0 -0.49845071805E+02 -0.25522625753E+01  0.13738393114E+03  0.17230512988E+03  0.91234138461E+02 0.  0.
        -11    1    4    4    0    0 -0.59504724763E+02 -0.32887055298E+02  0.11426022860E+03  0.13295777719E+03  0.00000000000E+00 0.  1.
         11    1    4    4    0    0  0.96596529576E+01  0.30334792722E+02  0.23123702539E+02  0.39347352692E+02  0.00000000000E+00 0. -1.
        -11    1    3    3    0    0  0.11230737466E+01  0.24704318406E+02  0.64877193174E+02  0.69430647676E+02  0.00000000000E+00 0.  1.
         11    1    3    3    0    0  0.29947645674E+02  0.10959554532E+02 -0.27705483735E+02  0.42244137415E+02  0.00000000000E+00 0. -1.
         21    1    1    2  503  502  0.20963379269E+02 -0.76277844465E+00  0.82047742018E+01  0.22524729101E+02  0.00000000000E+00 0.  1.
          4    1    1    2  501    0 -0.21890268853E+01 -0.32348831918E+02  0.26367156762E+03  0.26565755087E+03  0.00000000000E+00 0. -1.
<scales pt_clust_5="13000.00000" pt_clust_6="13000.00000" pt_clust_7="13000.00000" pt_clust_8="13000.00000" pt_clust_9="20.97725" pt_clust_10="32.41330"></scales>
<clustering>
<clus scale="   20.977">  2  9  1 -1</clus>
<clus scale="   32.413">  1 10  2 -1</clus>
<clus scale="   91.234">  5  6 -1 -1</clus>
<clus scale="   94.086">  7  8 -1 -1</clus>
<clus scale="  104.022">  1  5  2 -1</clus>
<clus scale="   32.413">  1  5  2 -1</clus>
</clustering>
</event>
<event>
10    2  0.3984345E-006  0.1498165E+03  0.7546771E-02  0.1201263E+00
          3   -1    0    0  503    0 -0.00000000000E+00  0.00000000000E+00  0.26699513169E+03  0.26699513169E+03  0.00000000000E+00 0. -1.
         21   -1    0    0  501  502  0.00000000000E+00 -0.00000000000E+00 -0.32198953919E+03  0.32198953919E+03  0.00000000000E+00 0.  1.
         23    2    1    2    0    0  0.15340644955E+03 -0.59092706851E+02  0.71075570430E+02  0.20105652386E+03  0.91359193877E+02 0.  0.
         23    2    1    2    0    0 -0.78974303137E+02  0.16661809701E+02 -0.13866928114E+03  0.18315889979E+03  0.88337175530E+02 0.  0.
        -11    1    3    3    0    0  0.11652138441E+03 -0.83835355194E+02  0.51300258713E+02  0.15243790981E+03  0.00000000000E+00 0.  1.
         11    1    3    3    0    0  0.36885065147E+02  0.24742648343E+02  0.19775311716E+02  0.48618614043E+02  0.00000000000E+00 0. -1.
        -13    1    4    4    0    0 -0.57079268140E+02  0.62371155724E+01 -0.14676167396E+03  0.15759420486E+03  0.00000000000E+00 0. -1.
         13    1    4    4    0    0 -0.21895034997E+02  0.10424694128E+02  0.80923928182E+01  0.25564694927E+02  0.00000000000E+00 0.  1.
         21    1    1    2  503  502 -0.30472636578E+02  0.49292912837E+02  0.94909752965E+02  0.11120357028E+03  0.00000000000E+00 0. -1.
          3    1    1    2  501    0 -0.43959509838E+02 -0.68620156872E+01 -0.82310449757E+02  0.93565676953E+02  0.00000000000E+00 0. -1.
<scales pt_clust_5="13000.00000" pt_clust_6="13000.00000" pt_clust_7="13000.00000" pt_clust_8="13000.00000" pt_clust_9="58.57029" pt_clust_10="44.49186"></scales>
<clustering>
<clus scale="   44.492">  2 10  1 -1</clus>
<clus scale="   58.570">  1  9  2 -1</clus>
<clus scale="   88.337">  7  8 -1 -1</clus>
<clus scale="   91.359">  5  6 -1 -1</clus>
<clus scale="  147.993">  2  7  1 -1</clus>
<clus scale="   44.492">  2  5  1 -1</clus>
</clustering>
</event>
<event>
10    2  0.3984345E-006  0.2542909E+03  0.7546771E-02  0.1110656E+00
          1   -1    0    0  503    0 -0.00000000000E+00  0.00000000000E+00  0.45649366000E+03  0.45649366000E+03  0.00000000000E+00 0. -1.
         21   -1    0    0  501  502  0.00000000000E+00 -0.00000000000E+00 -0.25812431036E+03  0.25812431036E+03  0.00000000000E+00 0.  1.
         23    2    1    2    0    0  0.46805591744E+02  0.25102232482E+03  0.18053462720E+03  0.32570899991E+03  0.91052896871E+02 0.  0.
         23    2    1    2    0    0 -0.40012916078E+02 -0.21611027579E+03 -0.74940712668E+02  0.24964347121E+03  0.91657337661E+02 0.  0.
        -11    1    4    4    0    0 -0.48459992078E+02 -0.67457076215E+02 -0.54525887721E+02  0.99357437545E+02  0.00000000000E+00 0.  1.
         11    1    4    4    0    0  0.84470760001E+01 -0.14865319958E+03 -0.20414824947E+02  0.15028603367E+03  0.00000000000E+00 0. -1.
        -13    1    3    3    0    0  0.38177219904E+02  0.20899771747E+03  0.10077826153E+03  0.23514634598E+03  0.00000000000E+00 0. -1.
         13    1    3    3    0    0  0.86283718405E+01  0.42024607345E+02  0.79756365664E+02  0.90562653931E+02  0.00000000000E+00 0.  1.
         21    1    1    2  503  502 -0.35598156796E+02 -0.12766985704E+02  0.95613288888E+02  0.10282084275E+03  0.00000000000E+00 0. -1.
          1    1    1    2  501    0  0.28805481130E+02 -0.22145063323E+02 -0.28378537824E+01  0.36444656491E+02  0.00000000000E+00 0. -1.
<scales pt_clust_5="13000.00000" pt_clust_6="13000.00000" pt_clust_7="13000.00000" pt_clust_8="13000.00000" pt_clust_9="37.52439" pt_clust_10="36.33400"></scales>
<clustering>
<clus scale="   36.334">  2 10  1 -1</clus>
<clus scale="   37.524">  1  9  2 -1</clus>
<clus scale="   91.053">  7  8 -1 -1</clus>
<clus scale="   91.657">  5  6 -1 -1</clus>
<clus scale="  254.074">  1  7  2 -1</clus>
<clus scale="   36.334">  2  5  1 -1</clus>
</clustering>
</event>
<event>
10    2  0.3984345E-006  0.1021185E+03  0.7546771E-02  0.1277115E+00
         21   -1    0    0  501  502  0.00000000000E+00  0.00000000000E+00  0.45392623211E+03  0.45392623211E+03  0.00000000000E+00 0. -1.
          1   -1    0    0  503    0 -0.00000000000E+00 -0.00000000000E+00 -0.14710935959E+03  0.14710935959E+03  0.00000000000E+00 0. -1.
         23    2    1    2    0    0 -0.49262555965E+01 -0.10513072530E+02 -0.15693406118E+02  0.92232209086E+02  0.90142690825E+02 0.  0.
         23    2    1    2    0    0  0.43830287629E+02  0.65321788987E+02  0.31635402962E+03  0.33891928255E+03  0.92727438195E+02 0.  0.
        -11    1    4    4    0    0 -0.26920012582E+02  0.35818399897E+02  0.12456144460E+03  0.13237521796E+03  0.00000000000E+00 0.  1.
         11    1    4    4    0    0  0.70750300211E+02  0.29503389091E+02  0.19179258502E+03  0.20654406459E+03  0.00000000000E+00 0. -1.
        -13    1    3    3    0    0 -0.15354327961E+02  0.34422215466E+02  0.10576263935E+02  0.39147179509E+02  0.00000000000E+00 0.  1.
         13    1    3    3    0    0  0.10428072364E+02 -0.44935287996E+02 -0.26269670053E+02  0.53085029577E+02  0.00000000000E+00 0. -1.
         21    1    1    2  503  502 -0.39455761868E+01 -0.35231609001E+02 -0.73006645340E+02  0.81159128310E+02  0.00000000000E+00 0. -1.
          1    1    1    2  501    0 -0.34958455846E+02 -0.19577107456E+02  0.79162894348E+02  0.88724971756E+02  0.00000000000E+00 0. -1.
<scales pt_clust_5="13000.00000" pt_clust_6="13000.00000" pt_clust_7="13000.00000" pt_clust_8="13000.00000" pt_clust_9="35.45185" pt_clust_10="41.52388"></scales>
<clustering>
<clus scale="   35.452">  2  9  1 -1</clus>
<clus scale="   41.524">  1 10  2 -1</clus>
<clus scale="   90.143">  7  8 -1 -1</clus>
<clus scale="   92.727">  5  6 -1 -1</clus>
<clus scale="   99.777">  2  7  1 -1</clus>
<clus scale="   41.524">  1  5  2 -1</clus>
</clustering>
</event>
<event>
10    2  0.3984345E-006  0.2544183E+03  0.7546771E-02  0.1110562E+00
          1   -1    0    0  503    0 -0.00000000000E+00  0.00000000000E+00  0.33817066951E+03  0.33817066951E+03  0.00000000000E+00 0. -1.
         21   -1    0    0  501  502  0.00000000000E+00 -0.00000000000E+00 -0.29444639105E+03  0.29444639105E+03  0.00000000000E+00 0. -1.
         23    2    1    2    0    0  0.21290983423E+03 -0.55911391666E+02  0.88785595028E+02  0.25442283424E+03  0.91604669460E+02 0.  0.
         23    2    1    2    0    0 -0.26029538875E+03 -0.81289598448E+01 -0.22709868748E+02  0.27710432784E+03  0.91930957670E+02 0.  0.
        -11    1    3    3    0    0  0.15893654139E+02 -0.20954756659E+02 -0.13651698758E+02  0.29632396925E+02  0.00000000000E+00 0. -1.
         11    1    3    3    0    0  0.19701618010E+03 -0.34956635007E+02  0.10243729379E+03  0.22479043732E+03  0.00000000000E+00 0.  1.
        -11    1    4    4    0    0 -0.46098044072E+02 -0.25265064372E+02  0.23058495848E+02  0.57402503218E+02  0.00000000000E+00 0.  1.
         11    1    4    4    0    0 -0.21419734468E+03  0.17136104528E+02 -0.45768364596E+02  0.21970182463E+03  0.00000000000E+00 0. -1.
         21    1    1    2  503  502  0.22455074352E+02  0.10021556199E+02  0.16879139789E+02  0.29825615045E+02  0.00000000000E+00 0. -1.
          1    1    1    2  501    0  0.24930480165E+02  0.54018795313E+02 -0.39230587607E+02  0.71264283426E+02  0.00000000000E+00 0. -1.
<scales pt_clust_5="13000.00000" pt_clust_6="13000.00000" pt_clust_7="13000.00000" pt_clust_8="13000.00000" pt_clust_9="24.58988" pt_clust_10="60.44147"></scales>
<clustering>
<clus scale="   24.590">  1  9  2 -1</clus>
<clus scale="   60.441">  2 10  1 -1</clus>
<clus scale="   91.605">  5  6 -1 -1</clus>
<clus scale="   91.931">  7  8 -1 -1</clus>
<clus scale="  254.301">  1  5  2 -1</clus>
<clus scale="   60.441">  2  5  1 -1</clus>
</clustering>
</event>
<event>
10    2  0.3984345E-006  0.1125865E+03  0.7546771E-02  0.1256623E+00
         21   -1    0    0  501  502  0.00000000000E+00  0.00000000000E+00  0.17463445471E+03  0.17463445471E+03  0.00000000000E+00 0.  1.
          1   -1    0    0  503    0 -0.00000000000E+00 -0.00000000000E+00 -0.40853793270E+03  0.40853793270E+03  0.00000000000E+00 0. -1.
         23    2    1    2    0    0 -0.74451788338E+01  0.56558320447E+02 -0.66039411715E+02  0.12832545013E+03  0.94084764719E+02 0.  0.
         23    2    1    2    0    0 -0.56273836999E+02 -0.24815310489E+02  0.76247866885E+02  0.13441858213E+03  0.92043868082E+02 0.  0.
        -11    1    3    3    0    0 -0.43317311001E+02  0.54603268678E+02 -0.25645315934E+02  0.74267008907E+02  0.00000000000E+00 0.  1.
         11    1    3    3    0    0  0.35872132167E+02  0.19550517687E+01 -0.40394095781E+02  0.54058441224E+02  0.00000000000E+00 0. -1.
        -13    1    4    4    0    0 -0.72836400879E+01 -0.53372614353E+02  0.33925457778E+02  0.63660223540E+02  0.00000000000E+00 0.  1.
         13    1    4    4    0    0 -0.48990196911E+02  0.28557303863E+02  0.42322409107E+02  0.70758358587E+02  0.00000000000E+00 0. -1.
         21    1    1    2  503  502  0.36710927864E+02  0.21524049528E+02 -0.25601766253E+03  0.25953038446E+03  0.00000000000E+00 0. -1.
          1    1    1    2  501    0  0.27008087969E+02 -0.53267059485E+02  0.11905729369E+02  0.60897970687E+02  0.00000000000E+00 0. -1.
<scales pt_clust_5="13000.00000" pt_clust_6="13000.00000" pt_clust_7="13000.00000" pt_clust_8="13000.00000" pt_clust_9="42.55557" pt_clust_10="59.70131"></scales>
<clustering>
<clus scale="   42.556">  2  9  1 -1</clus>
<clus scale="   59.701">  1 10  2 -1</clus>
<clus scale="   92.044">  7  8 -1 -1</clus>
<clus scale="   94.085">  5  6 -1 -1</clus>
<clus scale="  110.887">  1  7  2 -1</clus>
<clus scale="   59.701">  1  5  2 -1</clus>
</clustering>
</event>
<event>
10    2  0.3984345E-006  0.1039114E+03  0.7546771E-02  0.1272340E+00
         -1   -1    0    0    0  501 -0.00000000000E+00  0.00000000000E+00  0.14157565195E+03  0.14157565195E+03  0.00000000000E+00 0.  1.
         21   -1    0    0  503  502  0.00000000000E+00 -0.00000000000E+00 -0.17192385450E+03  0.17192385450E+03  0.00000000000E+00 0. -1.
         23    2    1    2    0    0 -0.31679795985E+02 -0.33327359744E+02  0.52505021594E+02  0.11348949259E+03  0.89491704943E+02 0.  0.
         23    2    1    2    0    0  0.39469804383E+02  0.54762264572E+02 -0.20673012965E+02  0.11409671131E+03  0.89632109132E+02 0.  0.
        -11    1    4    4    0    0 -0.60746053635E+01 -0.19257277422E+02 -0.18150356545E+02  0.27151040620E+02  0.00000000000E+00 0. -1.
         11    1    4    4    0    0  0.45544409747E+02  0.74019541994E+02 -0.25226564198E+01  0.86945670689E+02  0.00000000000E+00 0.  1.
        -13    1    3    3    0    0  0.25996504287E+02 -0.28716669202E+02  0.58763929377E+01  0.39179041836E+02  0.00000000000E+00 0. -1.
         13    1    3    3    0    0 -0.57676300272E+02 -0.46106905421E+01  0.46628628656E+02  0.74310450750E+02  0.00000000000E+00 0.  1.
         21    1    1    2  503  501  0.14589252028E+02 -0.23752198934E+02 -0.10928605168E+02  0.29940735460E+02  0.00000000000E+00 0.  1.
         -1    1    1    2    0  502 -0.22379260426E+02  0.23172941068E+01 -0.51251606008E+02  0.55972567098E+02  0.00000000000E+00 0.  1.
<scales pt_clust_5="13000.00000" pt_clust_6="13000.00000" pt_clust_7="13000.00000" pt_clust_8="13000.00000" pt_clust_9="25.69663" pt_clust_10="22.49891"></scales>
<clustering>
<clus scale="   22.499">  2 10  1 -1</clus>
<clus scale="   25.697">  2  9  1 -1</clus>
<clus scale="   89.492">  7  8 -1 -1</clus>
<clus scale="   89.632">  5  6 -1 -1</clus>
<clus scale="  103.790">  1  7  2 -1</clus>
<clus scale="   22.499">  2  5  1 -1</clus>
</clustering>
</event>
<event>
10    2  0.3984345E-006  0.1636917E+03  0.7546771E-02  0.1195844E+00
          2   -1    0    0  503    0 -0.00000000000E+00  0.00000000000E+00  0.68940650611E+03  0.68940650611E+03  0.00000000000E+00 0. -1.
         21   -1    0    0  501  502  0.00000000000E+00 -0.00000000000E+00 -0.15156004084E+03  0.15156004084E+03  0.00000000000E+00 0. -1.
         23    2    1    2    0    0 -0.12945584237E+02 -0.16495455968E+03  0.69943514031E+02  0.20132686371E+03  0.90900032922E+02 0.  0.
         23    2    1    2    0    0 -0.68066270243E+02  0.88528133665E+02  0.25456913144E+02  0.14778973189E+03  0.93399693954E+02 0.  0.
        -11    1    4    4    0    0 -0.88601568992E+02  0.69185554857E+02  0.42447512817E+01  0.11249398625E+03  0.00000000000E+00 0. -1.
         11    1    4    4    0    0  0.20535298748E+02  0.19342578807E+02  0.21212161862E+02  0.35295745643E+02  0.00000000000E+00 0.  1.
        -13    1    3    3    0    0 -0.50277208036E+02 -0.10208617704E+03  0.28614963824E+02  0.11733797913E+03  0.00000000000E+00 0.  1.
         13    1    3    3    0    0  0.37331623799E+02 -0.62868382638E+02  0.41328550207E+02  0.83988884581E+02  0.00000000000E+00 0. -1.
         21    1    1    2  503  502  0.50159143331E+02  0.12258558342E+03  0.40172541942E+03  0.42299701835E+03  0.00000000000E+00 0. -1.
          2    1    1    2  501    0  0.30852711149E+02 -0.46159157397E+02  0.40720618674E+02  0.68852932996E+02  0.00000000000E+00 0. -1.
<scales pt_clust_5="13000.00000" pt_clust_6="13000.00000" pt_clust_7="13000.00000" pt_clust_8="13000.00000" pt_clust_9="136.13291" pt_clust_10="55.52079"></scales>
<clustering>
<clus scale="   55.521">  2 10  1 -1</clus>
<clus scale="   90.900">  7  8 -1 -1</clus>
<clus scale="   93.400">  5  6 -1 -1</clus>
<clus scale="  127.670">  2  5  1 -1</clus>
<clus scale="  136.133">  1  9  2 -1</clus>
<clus scale="   55.521">  2  5  1 -1</clus>
</clustering>
</event>
<event>
10    2  0.3984345E-006  0.1138514E+03  0.7546771E-02  0.1253814E+00
         21   -1    0    0  503  502  0.00000000000E+00  0.00000000000E+00  0.34646571075E+03  0.34646571075E+03  0.00000000000E+00 0. -1.
         -1   -1    0    0    0  501 -0.00000000000E+00 -0.00000000000E+00 -0.38887760125E+03  0.38887760125E+03  0.00000000000E+00 0.  1.
         23    2    1    2    0    0  0.47302952846E+02 -0.95537913007E+02 -0.31282220670E+03  0.34247928912E+03  0.89829106093E+02 0.  0.
         23    2    1    2    0    0 -0.63601950517E+02  0.73228336962E+02  0.18306462704E+03  0.22556478864E+03  0.89214453751E+02 0.  0.
        -11    1    4    4    0    0  0.21432430416E+02  0.10118059260E+02  0.19394703395E+02  0.30624805575E+02  0.00000000000E+00 0.  1.
         11    1    4    4    0    0 -0.85034380933E+02  0.63110277703E+02  0.16366992364E+03  0.19493998307E+03  0.00000000000E+00 0. -1.
        -11    1    3    3    0    0  0.21132042121E+02 -0.10105032200E+03 -0.18468271806E+03  0.21157844203E+03  0.00000000000E+00 0.  1.
         11    1    3    3    0    0  0.26170910725E+02  0.55124089893E+01 -0.12813948864E+03  0.13090084710E+03  0.00000000000E+00 0. -1.
         21    1    1    2  503  501 -0.17001322461E+00  0.53108203894E+02 -0.18187987275E+02  0.56136557665E+02  0.00000000000E+00 0. -1.
         -1    1    1    2    0  502  0.16469010896E+02 -0.30798627850E+02  0.10553367644E+03  0.11116267656E+03  0.00000000000E+00 0.  1.
<scales pt_clust_5="13000.00000" pt_clust_6="13000.00000" pt_clust_7="13000.00000" pt_clust_8="13000.00000" pt_clust_9="50.66691" pt_clust_10="34.92540"></scales>
<clustering>
<clus scale="   34.925">  1 10  2 -1</clus>
<clus scale="   50.667">  2  9  1 -1</clus>
<clus scale="   89.214">  5  6 -1 -1</clus>
<clus scale="   89.829">  7  8 -1 -1</clus>
<clus scale="  113.367">  1  5  2 -1</clus>
<clus scale="   34.925">  1  5  2 -1</clus>
</clustering>
</event>
<event>
10    2  0.4184810E-006  0.2327305E+03  0.7546771E-02  0.1163423E+00
         -3   -1    0    0    0  501 -0.00000000000E+00  0.00000000000E+00  0.79295531798E+02  0.79295531798E+02  0.00000000000E+00 0.  1.
         21   -1    0    0  503  502  0.00000000000E+00 -0.00000000000E+00 -0.17243247990E+04  0.17243247990E+04  0.00000000000E+00 0. -1.
         23    2    1    2    0    0  0.31942005509E+02  0.26212490788E+02 -0.12418590866E+02  0.97676794019E+02  0.87630749749E+02 0.  0.
         23    2    1    2    0    0 -0.65766322154E+02 -0.20971333091E+03 -0.10749226780E+04  0.11007754605E+04  0.89123287867E+02 0.  0.
        -11    1    3    3    0    0  0.38867591711E+02 -0.13465576052E+02 -0.32730506607E+02  0.52567076070E+02  0.00000000000E+00 0. -1.
         11    1    3    3    0    0 -0.69255862021E+01  0.39678066839E+02  0.20311915741E+02  0.45109717949E+02  0.00000000000E+00 0.  1.
        -11    1    4    4    0    0 -0.20487577402E+02 -0.48697341902E+02 -0.11720795633E+03  0.12856468008E+03  0.00000000000E+00 0.  1.
         11    1    4    4    0    0 -0.45278744752E+02 -0.16101598900E+03 -0.95771472166E+03  0.97221078040E+03  0.00000000000E+00 0. -1.
         21    1    1    2  503  501 -0.14458102624E+02 -0.18769498302E+02 -0.31788730662E+02  0.39646616439E+02  0.00000000000E+00 0. -1.
         -3    1    1    2    0  502  0.48282419269E+02  0.20227033842E+03 -0.52589926769E+03  0.56552145987E+03  0.00000000000E+00 0.  1.
<scales pt_clust_5="13000.00000" pt_clust_6="13000.00000" pt_clust_7="13000.00000" pt_clust_8="13000.00000" pt_clust_9="23.69242" pt_clust_10="214.98967"></scales>
<clustering>
<clus scale="   23.692">  1  9  2 -1</clus>
<clus scale="   87.631">  5  6 -1 -1</clus>
<clus scale="   89.123">  7  8 -1 -1</clus>
<clus scale="   92.126">  1  5  2 -1</clus>
<clus scale="  214.990">  2 10  1 -1</clus>
<clus scale="  214.990">  2  5  1 -1</clus>
</clustering>
</event>
<event>
10    2  0.3984345E-006  0.1083520E+03  0.7546771E-02  0.1271062E+00
         21   -1    0    0  501  502  0.00000000000E+00  0.00000000000E+00  0.10039957219E+03  0.10039957219E+03  0.00000000000E+00 0.  1.
          2   -1    0    0  503    0 -0.00000000000E+00 -0.00000000000E+00 -0.38871610769E+03  0.38871610769E+03  0.00000000000E+00 0. -1.
         23    2    1    2    0    0 -0.26838179302E+02  0.12122743924E+02 -0.20975961394E+03  0.23748600244E+03  0.10739300222E+03 0.  0.
         23    2    1    2    0    0 -0.93747939598E+01  0.87900989825E+01  0.19590996426E+02  0.95635219769E+02  0.92720739413E+02 0.  0.
        -11    1    3    3    0    0 -0.61104594846E+02 -0.18285508845E+02 -0.10076867710E+03  0.11925794577E+03  0.00000000000E+00 0.  1.
         11    1    3    3    0    0  0.34266415544E+02  0.30408252769E+02 -0.10899093684E+03  0.11822805667E+03  0.00000000000E+00 0. -1.
        -13    1    4    4    0    0  0.92756380862E+01 -0.35815467440E+02  0.28210219925E+02  0.46525279989E+02  0.00000000000E+00 0.  1.
         13    1    4    4    0    0 -0.18650432046E+02  0.44605566423E+02 -0.86192234990E+01  0.49109939779E+02  0.00000000000E+00 0. -1.
         21    1    1    2  503  502  0.53896813813E+02 -0.48617018252E+01 -0.11477598428E+03  0.12689377152E+03  0.00000000000E+00 0.  1.
          2    1    1    2  501    0 -0.17683840552E+02 -0.16051141081E+02  0.16628066283E+02  0.29100686160E+02  0.00000000000E+00 0. -1.
<scales pt_clust_5="13000.00000" pt_clust_6="13000.00000" pt_clust_7="13000.00000" pt_clust_8="13000.00000" pt_clust_9="52.86987" pt_clust_10="23.88216"></scales>
<clustering>
<clus scale="   23.882">  1 10  2 -1</clus>
<clus scale="   52.870">  2  9  1 -1</clus>
<clus scale="   92.721">  7  8 -1 -1</clus>
<clus scale="   93.830">  1  7  2 -1</clus>
<clus scale="  107.393">  5  6 -1 -1</clus>
<clus scale="   23.882">  1  5  2 -1</clus>
</clustering>
</event>
<event>
10    2  0.3984345E-006  0.9531934E+02  0.7546771E-02  0.1293212E+00
          2   -1    0    0  503    0 -0.00000000000E+00  0.00000000000E+00  0.14084103824E+03  0.14084103824E+03  0.00000000000E+00 0. -1.
         21   -1    0    0  501  502  0.00000000000E+00 -0.00000000000E+00 -0.43321056024E+03  0.43321056024E+03  0.00000000000E+00 0. -1.
         23    2    1    2    0    0 -0.13385741123E+02 -0.13643230458E+02  0.38356226611E+02  0.10153309776E+03  0.92045934284E+02 0.  0.
         23    2    1    2    0    0  0.20060898981E+02  0.26099269876E+02  0.32379660257E+01  0.93158376626E+02  0.87088387030E+02 0.  0.
        -11    1    4    4    0    0  0.53542825740E+01 -0.19605508234E+02  0.31468811918E+02  0.37461052021E+02  0.00000000000E+00 0. -1.
         11    1    4    4    0    0  0.14706616407E+02  0.45704778111E+02 -0.28230845892E+02  0.55697324605E+02  0.00000000000E+00 0.  1.
        -11    1    3    3    0    0 -0.52484678375E+01 -0.37329646560E+02 -0.16561201485E+02  0.41174291998E+02  0.00000000000E+00 0. -1.
         11    1    3    3    0    0 -0.81372732853E+01  0.23686416102E+02  0.54917428096E+02  0.60358805761E+02  0.00000000000E+00 0.  1.
         21    1    1    2  503  502 -0.39331689381E+02 -0.53685741739E+02 -0.33837260710E+02  0.74659901340E+02  0.00000000000E+00 0. -1.
          2    1    1    2  501    0  0.32656531522E+02  0.41229702321E+02 -0.30012645393E+03  0.30470022276E+03  0.00000000000E+00 0. -1.
<scales pt_clust_5="13000.00000" pt_clust_6="13000.00000" pt_clust_7="13000.00000" pt_clust_8="13000.00000" pt_clust_9="44.76035" pt_clust_10="52.59598"></scales>
<clustering>
<clus scale="   52.596">  2 10  1 -1</clus>
<clus scale="   44.760">  2  9  1 -1</clus>
<clus scale="   87.088">  5  6 -1 -1</clus>
<clus scale="   90.541">  2  5  1 -1</clus>
<clus scale="   92.046">  7  8 -1 -1</clus>
<clus scale="   52.596">  2  5  1 -1</clus>
</clustering>
</event>
<event>
10    2  0.3984345E-006  0.9340118E+02  0.7546771E-02  0.1295069E+00
         -2   -1    0    0    0  501 -0.00000000000E+00  0.00000000000E+00  0.34455922137E+03  0.34455922137E+03  0.00000000000E+00 0.  1.
         21   -1    0    0  503  502  0.00000000000E+00 -0.00000000000E+00 -0.45027904024E+03  0.45027904024E+03  0.00000000000E+00 0.  1.
         23    2    1    2    0    0  0.46337567738E+02  0.13312204402E+02 -0.21315761908E+02  0.10515023721E+03  0.90982557170E+02 0.  0.
         23    2    1    2    0    0 -0.29650605929E+02 -0.34196125666E+01 -0.10815515585E+03  0.14417140553E+03  0.90537308627E+02 0.  0.
        -11    1    3    3    0    0  0.22073257103E+02  0.31006452535E+01  0.35849765978E+02  0.42214315117E+02  0.00000000000E+00 0.  1.
         11    1    3    3    0    0  0.24264310635E+02  0.10211559148E+02 -0.57165527886E+02  0.62935922090E+02  0.00000000000E+00 0. -1.
        -11    1    4    4    0    0  0.26476245808E+02 -0.96147023116E+01 -0.81466890426E+01  0.29322391358E+02  0.00000000000E+00 0.  1.
         11    1    4    4    0    0 -0.56126851737E+02  0.61950897450E+01 -0.10000846681E+03  0.11484901417E+03  0.00000000000E+00 0. -1.
         21    1    1    2  503  501 -0.52987816959E+02 -0.11809170165E+02  0.28075456571E+03  0.28595505139E+03  0.00000000000E+00 0.  1.
         -2    1    1    2    0  502  0.36300855150E+02  0.19165783303E+01 -0.25700346682E+03  0.25956156749E+03  0.00000000000E+00 0.  1.
<scales pt_clust_5="13000.00000" pt_clust_6="13000.00000" pt_clust_7="13000.00000" pt_clust_8="13000.00000" pt_clust_9="53.80236" pt_clust_10="36.35141"></scales>
<clustering>
<clus scale="   36.351">  2 10  1 -1</clus>
<clus scale="   53.802">  1  9  2 -1</clus>
<clus scale="   90.537">  7  8 -1 -1</clus>
<clus scale="   90.983">  5  6 -1 -1</clus>
<clus scale="   92.968">  2  7  1 -1</clus>
<clus scale="   36.351">  2  5  1 -1</clus>
</clustering>
</event>
<event>
10    2  0.3984345E-006  0.1754846E+03  0.7546771E-02  0.1172595E+00
          2   -1    0    0  503    0 -0.00000000000E+00  0.00000000000E+00  0.54579959620E+03  0.54579959620E+03  0.00000000000E+00 0. -1.
         21   -1    0    0  501  502  0.00000000000E+00 -0.00000000000E+00 -0.79546973930E+03  0.79546973930E+03  0.00000000000E+00 0. -1.
         23    2    1    2    0    0  0.90816322542E+02  0.18105851166E+03  0.28275475285E+03  0.35970162927E+03  0.91680001925E+02 0.  0.
         23    2    1    2    0    0 -0.51169440407E+02 -0.65648228041E+02 -0.11146353574E+03  0.16805541603E+03  0.94289456362E+02 0.  0.
        -13    1    4    4    0    0 -0.54684446232E+01 -0.20569050980E+02  0.15132192574E+02  0.26114612708E+02  0.00000000000E+00 0. -1.
         13    1    4    4    0    0 -0.45700995783E+02 -0.45079177062E+02 -0.12659572832E+03  0.14194080332E+03  0.00000000000E+00 0.  1.
        -13    1    3    3    0    0 -0.16847229896E+02  0.27659770425E+02  0.24488048995E+02  0.40602421094E+02  0.00000000000E+00 0.  1.
         13    1    3    3    0    0  0.10766355244E+03  0.15339874124E+03  0.25826670386E+03  0.31909920818E+03  0.00000000000E+00 0. -1.
         21    1    1    2  503  502  0.15380255016E+02 -0.62600468580E+02  0.18854117299E+03  0.19925648000E+03  0.00000000000E+00 0. -1.
          2    1    1    2  501    0 -0.55027137152E+02 -0.52809815042E+02 -0.60950253319E+03  0.61425581019E+03  0.00000000000E+00 0. -1.
<scales pt_clust_5="13000.00000" pt_clust_6="13000.00000" pt_clust_7="13000.00000" pt_clust_8="13000.00000" pt_clust_9="64.46217" pt_clust_10="76.48709"></scales>
<clustering>
<clus scale="   64.462">  1  9  2 -1</clus>
<clus scale="   76.487">  2 10  1 -1</clus>
<clus scale="   91.680">  7  8 -1 -1</clus>
<clus scale="   94.289">  5  6 -1 -1</clus>
<clus scale="  174.096">  1  7  2 -1</clus>
<clus scale="   76.487">  2  5  1 -1</clus>
</clustering>
</event>
<event>
10    2  0.3984345E-006  0.2674629E+03  0.7546771E-02  0.1141580E+00
         -2   -1    0    0    0  501 -0.00000000000E+00  0.00000000000E+00  0.38860319376E+03  0.38860319376E+03  0.00000000000E+00 0.  1.
         21   -1    0    0  503  502  0.00000000000E+00 -0.00000000000E+00 -0.43530793063E+03  0.43530793063E+03  0.00000000000E+00 0.  1.
         23    2    1    2    0    0 -0.62586498879E+01 -0.32925440445E+02  0.74010286883E+01  0.10234346702E+03  0.96416568536E+02 0.  0.
         23    2    1    2    0    0 -0.17274093847E+03  0.22593048003E+03  0.14925668495E+03  0.33504564449E+03  0.95362530696E+02 0.  0.
        -11    1    3    3    0    0  0.33929436337E+02  0.75896338750E+01 -0.18827401954E+02  0.39538339076E+02  0.00000000000E+00 0. -1.
         11    1    3    3    0    0 -0.40188086225E+02 -0.40515074320E+02  0.26228430643E+02  0.62805127940E+02  0.00000000000E+00 0.  1.
        -13    1    4    4    0    0  0.33052066086E+01  0.21669917423E+02 -0.74618156165E+01  0.23155742358E+02  0.00000000000E+00 0. -1.
         13    1    4    4    0    0 -0.17604614508E+03  0.20426056261E+03  0.15671850057E+03  0.31188990213E+03  0.00000000000E+00 0.  1.
         21    1    1    2  503  501  0.39473100400E+02  0.54162514542E+01  0.30040020079E+02  0.49898539471E+02  0.00000000000E+00 0. -1.
         -2    1    1    2    0  502  0.13952648796E+03 -0.19842129104E+03 -0.23340247058E+03  0.33662347341E+03  0.00000000000E+00 0.  1.
<scales pt_clust_5="13000.00000" pt_clust_6="13000.00000" pt_clust_7="13000.00000" pt_clust_8="13000.00000" pt_clust_9="39.84296" pt_clust_10="249.88478"></scales>
<clustering>
<clus scale="   39.843">  1  9  2 -1</clus>
<clus scale="   95.363">  7  8 -1 -1</clus>
<clus scale="   96.417">  5  6 -1 -1</clus>
<clus scale="  101.611">  1  5  2 -1</clus>
<clus scale="  249.885">  2 10  1 -1</clus>
<clus scale="  249.885">  2  5  1 -1</clus>
</clustering>
</event>
<event>
10    2  0.3984345E-006  0.1001872E+03  0.7546771E-02  0.1283294E+00
         -2   -1    0    0    0  501 -0.00000000000E+00  0.00000000000E+00  0.14513912596E+03  0.14513912596E+03  0.00000000000E+00 0.  1.
         21   -1    0    0  503  502  0.00000000000E+00 -0.00000000000E+00 -0.31192853204E+03  0.31192853204E+03  0.00000000000E+00 0.  1.
         23    2    1    2    0    0 -0.29045517403E+02 -0.86626005106E+01  0.74699929183E+02  0.11894239030E+03  0.87455874937E+02 0.  0.
         23    2    1    2    0    0  0.53109951950E+02 -0.37965615805E+02 -0.82854452390E+02  0.14137943496E+03  0.94134103112E+02 0.  0.
        -13    1    4    4    0    0  0.14850290068E+02 -0.65500050449E+02 -0.43993240689E+02  0.80288186866E+02  0.00000000000E+00 0.  1.
         13    1    4    4    0    0  0.38259661882E+02  0.27534434645E+02 -0.38861211701E+02  0.61091248092E+02  0.00000000000E+00 0. -1.
        -13    1    3    3    0    0 -0.35719592503E+02  0.17323604538E+02  0.13667072800E+00  0.39699058448E+02  0.00000000000E+00 0. -1.
         13    1    3    3    0    0  0.66740751001E+01 -0.25986205048E+02  0.74563258455E+02  0.79243331850E+02  0.00000000000E+00 0.  1.
         21    1    1    2  503  501  0.27432465435E+01  0.20044170741E+02  0.10953434524E+02  0.23005910331E+02  0.00000000000E+00 0. -1.
         -2    1    1    2    0  502 -0.26807681091E+02  0.26584045574E+02 -0.16958831739E+03  0.17373992241E+03  0.00000000000E+00 0.  1.
<scales pt_clust_5="13000.00000" pt_clust_6="13000.00000" pt_clust_7="13000.00000" pt_clust_8="13000.00000" pt_clust_9="20.23102" pt_clust_10="37.95194"></scales>
<clustering>
<clus scale="   20.231">  1  9  2 -1</clus>
<clus scale="   37.952">  2 10  1 -1</clus>
<clus scale="   87.456">  7  8 -1 -1</clus>
<clus scale="   93.940">  1  7  2 -1</clus>
<clus scale="   94.134">  5  6 -1 -1</clus>
<clus scale="   37.952">  2  5  1 -1</clus>
</clustering>
</event>
<event>
10    2  0.3984345E-006  0.9270008E+02  0.7546771E-02  0.1296801E+00
          1   -1    0    0  503    0 -0.00000000000E+00  0.00000000000E+00  0.29690095186E+03  0.29690095186E+03  0.00000000000E+00 0. -1.
         21   -1    0    0  501  502  0.00000000000E+00 -0.00000000000E+00 -0.12268794401E+03  0.12268794401E+03  0.00000000000E+00 0.  1.
         23    2    1    2    0    0  0.25411336946E+00 -0.30160602531E+02  0.50344509548E+02  0.10842908296E+03  0.91173295818E+02 0.  0.
         23    2    1    2    0    0 -0.22943394310E+02 -0.26569550648E+02 -0.40875378592E+02  0.10536597093E+03  0.90547506262E+02 0.  0.
        -11    1    3    3    0    0  0.24697812407E+02 -0.48685522863E+01 -0.18418807652E+02  0.31191941498E+02  0.00000000000E+00 0.  1.
         11    1    3    3    0    0 -0.24443699038E+02 -0.25292050245E+02  0.68763317199E+02  0.77237141457E+02  0.00000000000E+00 0. -1.
        -11    1    4    4    0    0  0.19643479749E+01  0.29988118279E+02 -0.30285788725E+02  0.42665851679E+02  0.00000000000E+00 0. -1.
         11    1    4    4    0    0 -0.24907742285E+02 -0.56557668926E+02 -0.10589589867E+02  0.62700119248E+02  0.00000000000E+00 0.  1.
         21    1    1    2  503  502  0.24576462042E+02  0.21741244333E+02  0.16746424214E+03  0.17064863488E+03  0.00000000000E+00 0. -1.
          1    1    1    2  501    0 -0.18871811012E+01  0.34988908846E+02 -0.27203652470E+01  0.35145207096E+02  0.00000000000E+00 0. -1.
<scales pt_clust_5="13000.00000" pt_clust_6="13000.00000" pt_clust_7="13000.00000" pt_clust_8="13000.00000" pt_clust_9="32.81287" pt_clust_10="37.76601"></scales>
<clustering>
<clus scale="   32.813">  1  9  2 -1</clus>
<clus scale="   37.766">  2 10  1 -1</clus>
<clus scale="   90.548">  7  8 -1 -1</clus>
<clus scale="   91.173">  5  6 -1 -1</clus>
<clus scale="   92.085">  2  7  1 -1</clus>
<clus scale="   37.766">  2  5  1 -1</clus>
</clustering>
</event>
<event>
10    2  0.3984345E-006  0.2028162E+03  0.7546771E-02  0.1147656E+00
          1   -1    0    0  503    0 -0.00000000000E+00  0.00000000000E+00  0.47008512562E+03  0.47008512562E+03  0.00000000000E+00 0. -1.
         21   -1    0    0  501  502  0.00000000000E+00 -0.00000000000E+00 -0.18543565640E+03  0.18543565640E+03  0.00000000000E+00 0. -1.
         23    2    1    2    0    0  0.12431528283E+03  0.14013243223E+03  0.23106945041E+03  0.31199951812E+03  0.94123431115E+02 0.  0.
         23    2    1    2    0    0 -0.14016842020E+03 -0.86884875495E+02  0.23606924047E+02  0.18996034939E+03  0.91276940494E+02 0.  0.
        -11    1    4    4    0    0 -0.30251978364E+02 -0.16662491186E+02 -0.33004510674E+02  0.47771524283E+02  0.00000000000E+00 0.  1.
         11    1    4    4    0    0 -0.10991644183E+03 -0.70222384309E+02  0.56611434721E+02  0.14218882510E+03  0.00000000000E+00 0. -1.
        -13    1    3    3    0    0  0.87184503762E+02  0.46038696203E+02  0.66831443612E+02  0.11910978591E+03  0.00000000000E+00 0.  1.
         13    1    3    3    0    0  0.37130779064E+02  0.94093736024E+02  0.16423800680E+03  0.19288973220E+03  0.00000000000E+00 0. -1.
         21    1    1    2  503  502  0.26654315212E+02 -0.23282247296E+02  0.83827375667E+02  0.90992002230E+02  0.00000000000E+00 0. -1.
          1    1    1    2  501    0 -0.10801177841E+02 -0.29965309437E+02 -0.53854280905E+02  0.62568912282E+02  0.00000000000E+00 0. -1.
<scales pt_clust_5="13000.00000" pt_clust_6="13000.00000" pt_clust_7="13000.00000" pt_clust_8="13000.00000" pt_clust_9="35.72668" pt_clust_10="31.85255"></scales>
<clustering>
<clus scale="   31.853">  2 10  1 -1</clus>
<clus scale="   35.727">  1  9  2 -1</clus>
<clus scale="   91.277">  5  6 -1 -1</clus>
<clus scale="   94.123">  7  8 -1 -1</clus>
<clus scale="  201.511">  2  5  1 -1</clus>
<clus scale="   31.853">  2  5  1 -1</clus>
</clustering>
</event>
<event>
10    2  0.3984345E-006  0.1048768E+03  0.7546771E-02  0.1270899E+00
         21   -1    0    0  503  502  0.00000000000E+00  0.00000000000E+00  0.54787057161E+03  0.54787057161E+03  0.00000000000E+00 0. -1.
         -3   -1    0    0    0  501 -0.00000000000E+00 -0.00000000000E+00 -0.14394520167E+03  0.14394520167E+03  0.00000000000E+00 0.  1.
         23    2    1    2    0    0 -0.16075506413E+01 -0.36583163624E+02  0.11676043787E+03  0.15249634114E+03  0.91001220488E+02 0.  0.
         23    2    1    2    0    0 -0.78512245929E+02  0.45148539082E+02  0.37867360177E+03  0.39956435828E+03  0.89751971506E+02 0.  0.
        -13    1    4    4    0    0 -0.33033685760E+02  0.60762281546E+02  0.14067438454E+03  0.15675637697E+03  0.00000000000E+00 0.  1.
         13    1    4    4    0    0 -0.45478560169E+02 -0.15613742464E+02  0.23799921723E+03  0.24280798131E+03  0.00000000000E+00 0. -1.
        -13    1    3    3    0    0  0.40983351632E+02  0.14088297695E+01  0.49970790650E+02  0.64642863725E+02  0.00000000000E+00 0. -1.
         13    1    3    3    0    0 -0.42590902274E+02 -0.37991993393E+02  0.66789647220E+02  0.87853477417E+02  0.00000000000E+00 0.  1.
         21    1    1    2  503  501  0.49051589858E+02 -0.35480613623E+01 -0.96098216144E+02  0.10795144442E+03  0.00000000000E+00 0.  1.
         -3    1    1    2    0  502  0.31068206711E+02 -0.50173140955E+01  0.45895464431E+01  0.31803629440E+02  0.00000000000E+00 0.  1.
<scales pt_clust_5="13000.00000" pt_clust_6="13000.00000" pt_clust_7="13000.00000" pt_clust_8="13000.00000" pt_clust_9="49.53053" pt_clust_10="31.47075"></scales>
<clustering>
<clus scale="   31.471">  1 10  2 -1</clus>
<clus scale="   49.531">  2  9  1 -1</clus>
<clus scale="   89.752">  5  6 -1 -1</clus>
<clus scale="   91.001">  7  8 -1 -1</clus>
<clus scale="  103.795">  1  5  2 -1</clus>
<clus scale="   31.471">  1  5  2 -1</clus>
</clustering>
</event>
<event>
10    2  0.3984345E-006  0.1072984E+03  0.7546771E-02  0.1269129E+00
         21   -1    0    0  501  502  0.00000000000E+00  0.00000000000E+00  0.26352582849E+03  0.26352582849E+03  0.00000000000E+00 0. -1.
          1   -1    0    0  503    0 -0.00000000000E+00 -0.00000000000E+00 -0.21303976275E+03  0.21303976275E+03  0.00000000000E+00 0. -1.
         23    2    1    2    0    0  0.54771830174E+02  0.30858814588E+02 -0.98307146028E+02  0.14821213923E+03  0.91380104168E+02 0.  0.
         23    2    1    2    0    0 -0.60227920212E+01 -0.31039486709E+02 -0.25360353667E+02  0.10698592648E+03  0.99010692185E+02 0.  0.
        -11    1    4    4    0    0 -0.69639401874E+01  0.35419452972E+02 -0.17313852013E+02  0.40035029453E+02  0.00000000000E+00 0.  1.
         11    1    4    4    0    0  0.94114816616E+00 -0.66458939681E+02 -0.80465016543E+01  0.66950897023E+02  0.00000000000E+00 0. -1.
        -11    1    3    3    0    0  0.14159955115E+02  0.43730534223E+02 -0.57541773238E+01  0.46324664154E+02  0.00000000000E+00 0.  1.
         11    1    3    3    0    0  0.40611875059E+02 -0.12871719635E+02 -0.92552968704E+02  0.10188747508E+03  0.00000000000E+00 0. -1.
         21    1    1    2  503  502 -0.18113851489E+02 -0.15995645686E+02 -0.15412312432E+02  0.28662024896E+02  0.00000000000E+00 0.  1.
          1    1    1    2  501    0 -0.30635186664E+02  0.16176317806E+02  0.18956587787E+03  0.19270550063E+03  0.00000000000E+00 0. -1.
<scales pt_clust_5="13000.00000" pt_clust_6="13000.00000" pt_clust_7="13000.00000" pt_clust_8="13000.00000" pt_clust_9="24.16552" pt_clust_10="34.71449"></scales>
<clustering>
<clus scale="   24.166">  2  9  1 -1</clus>
<clus scale="   34.714">  1 10  2 -1</clus>
<clus scale="   91.380">  7  8 -1 -1</clus>
<clus scale="   99.011">  5  6 -1 -1</clus>
<clus scale="  100.300">  2  7  1 -1</clus>
<clus scale="   34.714">  1  5  2 -1</clus>
</clustering>
</event>
<event>
10    2  0.3984345E-006  0.2593083E+03  0.7546771E-02  0.1125658E+00
         21   -1    0    0  501  502  0.00000000000E+00  0.00000000000E+00  0.55036153058E+03  0.55036153058E+03  0.00000000000E+00 0. -1.
          1   -1    0    0  503    0 -0.00000000000E+00 -0.00000000000E+00 -0.72849294534E+03  0.72849294534E+03  0.00000000000E+00 0. -1.
         23    2    1    2    0    0  0.94499912842E+02  0.96701527683E+02  0.11758440496E+03  0.20504991166E+03  0.99689292288E+02 0.  0.
         23    2    1    2    0    0 -0.20440796603E+03 -0.40543236578E+02 -0.47928128894E+03  0.53024455867E+03  0.89567669719E+02 0.  0.
        -11    1    4    4    0    0 -0.19012483817E+03 -0.16185400808E+02 -0.45350334234E+03  0.49201087672E+03  0.00000000000E+00 0. -1.
         11    1    4    4    0    0 -0.14283127857E+02 -0.24357835770E+02 -0.25777946596E+02  0.38233681951E+02  0.00000000000E+00 0.  1.
        -13    1    3    3    0    0  0.10691506626E+03  0.67801152269E+02  0.61502288039E+02  0.14074927735E+03  0.00000000000E+00 0.  1.
         13    1    3    3    0    0 -0.12415153413E+02  0.28900375414E+02  0.56082116924E+02  0.64300634304E+02  0.00000000000E+00 0. -1.
         21    1    1    2  503  502 -0.12343990721E+03  0.31518629916E+02 -0.10294060130E+03  0.16379133714E+03  0.00000000000E+00 0.  1.
          1    1    1    2  501    0  0.23334796040E+03 -0.87676921020E+02  0.28650607052E+03  0.37976866847E+03  0.00000000000E+00 0. -1.
<scales pt_clust_5="13000.00000" pt_clust_6="13000.00000" pt_clust_7="13000.00000" pt_clust_8="13000.00000" pt_clust_9="127.40029" pt_clust_10="243.34834"></scales>
<clustering>
<clus scale="   89.568">  5  6 -1 -1</clus>
<clus scale="   99.689">  7  8 -1 -1</clus>
<clus scale="  127.400">  2  9  1 -1</clus>
<clus scale="  164.440">  2  7  1 -1</clus>
<clus scale="  243.348">  1 10  2 -1</clus>
<clus scale="  243.348">  1  5  2 -1</clus>
</clustering>
</event>
<event>
10    2  0.3984345E-006  0.1419822E+03  0.7546771E-02  0.1229334E+00
         21   -1    0    0  501  502  0.00000000000E+00  0.00000000000E+00  0.31112093092E+03  0.31112093092E+03  0.00000000000E+00 0.  1.
         -1   -1    0    0    0  501 -0.00000000000E+00 -0.00000000000E+00 -0.28705554592E+03  0.28705554592E+03  0.00000000000E+00 0.  1.
         23    2    1    2    0    0  0.41841283929E+01  0.28270530069E+02 -0.11361561787E+03  0.14873067859E+03  0.91627377615E+02 0.  0.
         23    2    1    2    0    0  0.54794514360E+02 -0.11601958408E+03 -0.98798038742E+02  0.18660377342E+03  0.92719647877E+02 0.  0.
        -11    1    4    4    0    0  0.74887290172E+02 -0.11615959528E+03 -0.86640914066E+02  0.16311899275E+03  0.00000000000E+00 0.  1.
         11    1    4    4    0    0 -0.20092775812E+02  0.14001119979E+00 -0.12157124676E+02  0.23484780675E+02  0.00000000000E+00 0. -1.
        -13    1    3    3    0    0 -0.40394447942E+02  0.64028382067E+00 -0.68610192172E+02  0.79620850648E+02  0.00000000000E+00 0. -1.
         13    1    3    3    0    0  0.44578576335E+02  0.27630246249E+02 -0.45005425697E+02  0.69109827941E+02  0.00000000000E+00 0.  1.
         21    1    1    2  503  502 -0.53665716132E+02  0.45814880195E+02  0.17000356804E+03  0.18406581835E+03  0.00000000000E+00 0.  1.
         -1    1    1    2    0  503 -0.53129266215E+01  0.41934173817E+02  0.66475473557E+02  0.78776206482E+02  0.00000000000E+00 0.  1.
<scales pt_clust_5="13000.00000" pt_clust_6="13000.00000" pt_clust_7="13000.00000" pt_clust_8="13000.00000" pt_clust_9="34.48507" pt_clust_10="116.39261"></scales>
<clustering>
<clus scale="   34.485">  9 10 -1 -1</clus>
<clus scale="   91.627">  7  8 -1 -1</clus>
<clus scale="   92.720">  5  6 -1 -1</clus>
<clus scale="   95.981">  2  7  1 -1</clus>
<clus scale="  116.393">  1  9  2 -1</clus>
<clus scale="  116.393">  1  5  2 -1</clus>
</clustering>
</event>
<event>
10    2  0.3984345E-006  0.1219907E+03  0.7546771E-02  0.1240449E+00
         21   -1    0    0  503  502  0.00000000000E+00  0.00000000000E+00  0.14425249451E+03  0.14425249451E+03  0.00000000000E+00 0. -1.
         -1   -1    0    0    0  501 -0.00000000000E+00 -0.00000000000E+00 -0.76546217472E+03  0.76546217472E+03  0.00000000000E+00 0.  1.
         23    2    1    2    0    0  0.80981058173E+02 -0.26417551009E+02 -0.25317996657E+03  0.28099537374E+03  0.87192234766E+02 0.  0.
         23    2    1    2    0    0 -0.57336132057E+02  0.67828646736E+02 -0.28653824376E+03  0.31297525892E+03  0.89225501961E+02 0.  0.
        -11    1    4    4    0    0 -0.50755992849E+02  0.75394849697E+00 -0.17903756319E+03  0.18609456811E+03  0.00000000000E+00 0.  1.
         11    1    4    4    0    0 -0.65801392081E+01  0.67074698239E+02 -0.10750068057E+03  0.12688069080E+03  0.00000000000E+00 0. -1.
        -11    1    3    3    0    0  0.79150968549E+02  0.12067597849E+02 -0.13803002751E+03  0.15957064653E+03  0.00000000000E+00 0. -1.
         11    1    3    3    0    0  0.18300896247E+01 -0.38485148858E+02 -0.11514993907E+03  0.12142472721E+03  0.00000000000E+00 0.  1.
         21    1    1    2  503  501 -0.27113992305E+02 -0.16377900122E+00 -0.19398807013E+03  0.19587385419E+03  0.00000000000E+00 0. -1.
         -1    1    1    2    0  502  0.34690661890E+01 -0.41247316725E+02  0.11249660025E+03  0.11987018238E+03  0.00000000000E+00 0.  1.
<scales pt_clust_5="13000.00000" pt_clust_6="13000.00000" pt_clust_7="13000.00000" pt_clust_8="13000.00000" pt_clust_9="27.11449" pt_clust_10="41.37968"></scales>
<clustering>
<clus scale="   27.114">  2  9  1 -1</clus>
<clus scale="   41.380">  1 10  2 -1</clus>
<clus scale="   87.192">  7  8 -1 -1</clus>
<clus scale="   89.226">  5  6 -1 -1</clus>
<clus scale="  120.512">  2  7  1 -1</clus>
<clus scale="   41.380">  1  5  2 -1</clus>
</clustering>
</event>
<event>
10    2  0.3984345E-006  0.1864233E+03  0.7546771E-02  0.1162185E+00
          2   -1    0    0  503    0 -0.00000000000E+00  0.00000000000E+00  0.12111969983E+03  0.12111969983E+03  0.00000000000E+00 0. -1.
         21   -1    0    0  501  502  0.00000000000E+00 -0.00000000000E+00 -0.39594247346E+03  0.39594247346E+03  0.00000000000E+00 0.  1.
         23    2    1    2    0    0  0.84693878847E+02 -0.12917686351E+03 -0.94789678688E+02  0.20612446807E+03  0.98196221772E+02 0.  0.
         23    2    1    2    0    0 -0.93833631676E+02  0.13737100035E+03 -0.16100593048E+03  0.25002106128E+03  0.94403809568E+02 0.  0.
        -11    1    4    4    0    0 -0.10579593932E+03  0.96578755385E+02 -0.14702249445E+03  0.20527018937E+03  0.00000000000E+00 0.  1.
         11    1    4    4    0    0  0.11962307640E+02  0.40792244969E+02 -0.13983436028E+02  0.44750871912E+02  0.00000000000E+00 0. -1.
        -13    1    3    3    0    0 -0.16122908954E+02 -0.16725384659E+02 -0.38464370889E+02  0.44935448290E+02  0.00000000000E+00 0.  1.
         13    1    3    3    0    0  0.10081678780E+03 -0.11245147885E+03 -0.56325307798E+02  0.16118901978E+03  0.00000000000E+00 0. -1.
         21    1    1    2  503  502 -0.20381592515E+02 -0.52749332569E+01  0.62301267312E+01  0.21955607789E+02  0.00000000000E+00 0. -1.
          2    1    1    2  501    0  0.29521345344E+02 -0.29192035859E+01 -0.25257291191E+02  0.38961036162E+02  0.00000000000E+00 0. -1.
<scales pt_clust_5="13000.00000" pt_clust_6="13000.00000" pt_clust_7="13000.00000" pt_clust_8="13000.00000" pt_clust_9="21.05313" pt_clust_10="28.40386"></scales>
<clustering>
<clus scale="   21.053">  1  9  2 -1</clus>
<clus scale="   28.404">  2 10  1 -1</clus>
<clus scale="   94.404">  5  6 -1 -1</clus>
<clus scale="   98.196">  7  8 -1 -1</clus>
<clus scale="  184.454">  2  5  1 -1</clus>
<clus scale="   28.404">  2  5  1 -1</clus>
</clustering>
</event>
<event>
10    2  0.9219478E-006  0.2507296E+03  0.7546771E-02  0.1150735E+00
         21   -1    0    0  501  502  0.00000000000E+00  0.00000000000E+00  0.18735234308E+03  0.18735234308E+03  0.00000000000E+00 0. -1.
          1   -1    0    0  503    0 -0.00000000000E+00 -0.00000000000E+00 -0.13486738588E+04  0.13486738588E+04  0.00000000000E+00 0. -1.
         23    2    1    2    0    0 -0.36204471553E+02 -0.21225790604E+02 -0.51560834704E+02  0.11237247975E+03  0.90596669821E+02 0.  0.
         23    2    1    2    0    0  0.24331457511E+03  0.25331279586E+02 -0.10784442797E+04  0.11118823665E+04  0.11574401261E+03 0.  0.
        -13    1    3    3    0    0 -0.45528942941E+02  0.16822178199E+02 -0.11771730320E+01  0.48551581447E+02  0.00000000000E+00 0.  1.
         13    1    3    3    0    0  0.93244713879E+01 -0.38047968804E+02 -0.50383661672E+02  0.63820898303E+02  0.00000000000E+00 0. -1.
        -13    1    4    4    0    0  0.49435435237E+02  0.45773501939E+02 -0.17230445154E+03  0.18500783702E+03  0.00000000000E+00 0.  1.
         13    1    4    4    0    0  0.19387913987E+03 -0.20442222354E+02 -0.90613982811E+03  0.92687452949E+03  0.00000000000E+00 0. -1.
         21    1    1    2  503  502  0.97824367279E+01  0.36489800553E+02 -0.77602986081E+02  0.86310051914E+02  0.00000000000E+00 0.  1.
          1    1    1    2  501    0 -0.21689254028E+03 -0.40595289534E+02  0.46286584679E+02  0.22546130374E+03  0.00000000000E+00 0. -1.
<scales pt_clust_5="13000.00000" pt_clust_6="13000.00000" pt_clust_7="13000.00000" pt_clust_8="13000.00000" pt_clust_9="37.77832" pt_clust_10="222.41548"></scales>
<clustering>
<clus scale="   37.778">  2  9  1 -1</clus>
<clus scale="   90.597">  5  6 -1 -1</clus>
<clus scale="   99.141">  2  5  1 -1</clus>
<clus scale="  115.744">  7  8 -1 -1</clus>
<clus scale="  222.415">  1 10  2 -1</clus>
<clus scale="  222.415">  1  5  2 -1</clus>
</clustering>
</event>
<event>
10    2  0.3984345E-006  0.9558955E+02  0.7546771E-02  0.1290826E+00
         21   -1    0    0  503  502  0.00000000000E+00  0.00000000000E+00  0.33369168371E+03  0.33369168371E+03  0.00000000000E+00 0.  1.
         -1   -1    0    0    0  501 -0.00000000000E+00 -0.00000000000E+00 -0.82878073580E+02  0.82878073580E+02  0.00000000000E+00 0.  1.
         23    2    1    2    0    0  0.58503190390E+01  0.33035017760E+02  0.89263480991E+02  0.13110393808E+03  0.89970744744E+02 0.  0.
         23    2    1    2    0    0 -0.51090976716E+02  0.13367867962E+02  0.11893284477E+03  0.15923396408E+03  0.91768436600E+02 0.  0.
        -11    1    4    4    0    0 -0.58141828651E+02 -0.24020684283E+02  0.96105148601E+02  0.11486368051E+03  0.00000000000E+00 0.  1.
         11    1    4    4    0    0  0.70508519356E+01  0.37388552245E+02  0.22827696174E+02  0.44370283576E+02  0.00000000000E+00 0. -1.
        -13    1    3    3    0    0 -0.24637968437E+02  0.52567536223E+02  0.66761606353E+02  0.88473088768E+02  0.00000000000E+00 0.  1.
         13    1    3    3    0    0  0.30488287476E+02 -0.19532518463E+02  0.22501874637E+02  0.42630849310E+02  0.00000000000E+00 0. -1.
         21    1    1    2  503  501 -0.28399555578E+02 -0.83311274111E+01 -0.58996039087E+01  0.30178597834E+02  0.00000000000E+00 0.  1.
         -1    1    1    2    0  502  0.73640213255E+02 -0.38071758310E+02  0.48516888273E+02  0.96053257293E+02  0.00000000000E+00 0.  1.
<scales pt_clust_5="13000.00000" pt_clust_6="13000.00000" pt_clust_7="13000.00000" pt_clust_8="13000.00000" pt_clust_9="29.59632" pt_clust_10="75.42763"></scales>
<clustering>
<clus scale="   29.596">  2  9  1 -1</clus>
<clus scale="   75.428">  1 10  2 -1</clus>
<clus scale="   89.971">  7  8 -1 -1</clus>
<clus scale="   91.768">  5  6 -1 -1</clus>
<clus scale="   93.865">  2  7  1 -1</clus>
<clus scale="   75.428">  1  5  2 -1</clus>
</clustering>
</event>
<event>
10    2  0.3984345E-006  0.1173529E+03  0.7546771E-02  0.1247850E+00
         21   -1    0    0  501  502  0.00000000000E+00  0.00000000000E+00  0.62512131371E+02  0.62512131371E+02  0.00000000000E+00 0.  1.
          3   -1    0    0  503    0 -0.00000000000E+00 -0.00000000000E+00 -0.34945094925E+03  0.34945094925E+03  0.00000000000E+00 0. -1.
         23    2    1    2    0    0  0.16370717530E+01  0.70400507892E+02 -0.12399012660E+03  0.16877435424E+03  0.90290196796E+02 0.  0.
         23    2    1    2    0    0 -0.45796773808E+01 -0.80067221826E+02 -0.92812957034E+02  0.15288815200E+03  0.91262306420E+02 0.  0.
        -11    1    4    4    0    0  0.20253965268E+02 -0.53588966643E+02 -0.45708912088E+01  0.57470805644E+02  0.00000000000E+00 0.  1.
         11    1    4    4    0    0 -0.24833642649E+02 -0.26478255183E+02 -0.88242065826E+02  0.95417346358E+02  0.00000000000E+00 0. -1.
        -13    1    3    3    0    0  0.28720686863E+02  0.80561846347E+02 -0.94771317187E+02  0.12765849561E+03  0.00000000000E+00 0.  1.
         13    1    3    3    0    0 -0.27083615110E+02 -0.10161338455E+02 -0.29218809417E+02  0.41115858624E+02  0.00000000000E+00 0. -1.
         21    1    1    2  503  502  0.25303721167E+02 -0.85205936429E+01 -0.43580103084E+02  0.51108748818E+02  0.00000000000E+00 0.  1.
          3    1    1    2  501    0 -0.22361115540E+02  0.18187307577E+02 -0.26555631161E+02  0.39191825569E+02  0.00000000000E+00 0. -1.
<scales pt_clust_5="13000.00000" pt_clust_6="13000.00000" pt_clust_7="13000.00000" pt_clust_8="13000.00000" pt_clust_9="26.69979" pt_clust_10="26.12230"></scales>
<clustering>
<clus scale="   26.700">  2  9  1 -1</clus>
<clus scale="   26.122">  1 10  2 -1</clus>
<clus scale="   90.290">  7  8 -1 -1</clus>
<clus scale="   91.262">  5  6 -1 -1</clus>
<clus scale="  116.599">  2  7  1 -1</clus>
<clus scale="   26.122">  1  5  2 -1</clus>
</clustering>
</event>
<event>
10    2  0.3984345E-006  0.2066913E+03  0.7546771E-02  0.1144286E+00
          2   -1    0    0  503    0 -0.00000000000E+00  0.00000000000E+00  0.47367188768E+03  0.47367188768E+03  0.00000000000E+00 0. -1.
         21   -1    0    0  501  502  0.00000000000E+00 -0.00000000000E+00 -0.15981525003E+03  0.15981525003E+03  0.00000000000E+00 0. -1.
         23    2    1    2    0    0  0.22543787682E+03 -0.74744276358E+01  0.22427219485E+03  0.33089424876E+03  0.91185980876E+02 0.  0.
         23    2    1    2    0    0 -0.15496561978E+03  0.23880676166E+02  0.60038815971E+02  0.19067380143E+03  0.90372612663E+02 0.  0.
        -11    1    4    4    0    0 -0.91259051000E+02 -0.13080029540E+02  0.70798542109E+02  0.11623998936E+03  0.00000000000E+00 0. -1.
         11    1    4    4    0    0 -0.63706568785E+02  0.36960705705E+02 -0.10759726138E+02  0.74433812069E+02  0.00000000000E+00 0.  1.
        -13    1    3    3    0    0  0.67566384150E+02  0.28836803022E+02  0.33841676142E+02  0.80882856773E+02  0.00000000000E+00 0. -1.
         13    1    3    3    0    0  0.15787149267E+03 -0.36311230658E+02  0.19043051870E+03  0.25001139198E+03  0.00000000000E+00 0.  1.
         21    1    1    2  503  502 -0.45158409786E+02 -0.35929182400E+01  0.56748800552E+02  0.72612790885E+02  0.00000000000E+00 0.  1.
          2    1    1    2  501    0 -0.25313847244E+02 -0.12813330290E+02 -0.27203173713E+02  0.39306296639E+02  0.00000000000E+00 0. -1.
<scales pt_clust_5="13000.00000" pt_clust_6="13000.00000" pt_clust_7="13000.00000" pt_clust_8="13000.00000" pt_clust_9="46.95117" pt_clust_10="28.37203"></scales>
<clustering>
<clus scale="   28.372">  2 10  1 -1</clus>
<clus scale="   46.951">  1  9  2 -1</clus>
<clus scale="   90.373">  5  6 -1 -1</clus>
<clus scale="   91.186">  7  8 -1 -1</clus>
<clus scale="  206.334">  2  5  1 -1</clus>
<clus scale="   28.372">  2  5  1 -1</clus>
</clustering>
</event>
<event>
10    2  0.3984345E-006  0.1131183E+03  0.7546771E-02  0.1255953E+00
          1   -1    0    0  503    0 -0.00000000000E+00  0.00000000000E+00  0.89770745405E+02  0.89770745405E+02  0.00000000000E+00 0. -1.
         21   -1    0    0  501  502  0.00000000000E+00 -0.00000000000E+00 -0.31339392049E+03  0.31339392049E+03  0.00000000000E+00 0.  1.
         23    2    1    2    0    0 -0.67615538295E+02 -0.47713348868E+02 -0.18605043319E+02  0.12418381748E+03  0.90703077172E+02 0.  0.
         23    2    1    2    0    0  0.27033676992E+02  0.18115309341E+02 -0.10270539267E+03  0.14267533804E+03  0.93535395850E+02 0.  0.
        -13    1    4    4    0    0 -0.24942653712E+02  0.12747059587E+02 -0.64753149991E+00  0.28018615229E+02  0.00000000000E+00 0. -1.
         13    1    4    4    0    0  0.51976330704E+02  0.53682497544E+01 -0.10205786117E+03  0.11465672281E+03  0.00000000000E+00 0.  1.
        -13    1    3    3    0    0 -0.31873597073E+02 -0.60495557557E+02  0.18775266915E+02  0.70909444521E+02  0.00000000000E+00 0.  1.
         13    1    3    3    0    0 -0.35741941221E+02  0.12782208689E+02 -0.37380310234E+02  0.53274372961E+02  0.00000000000E+00 0. -1.
         21    1    1    2  503  502 -0.10536648782E+02  0.17285682235E+02  0.11203768023E+01  0.20274886487E+02  0.00000000000E+00 0. -1.
          1    1    1    2  501    0  0.51118510085E+02  0.12312357291E+02 -0.10343311590E+03  0.11603062389E+03  0.00000000000E+00 0. -1.
<scales pt_clust_5="13000.00000" pt_clust_6="13000.00000" pt_clust_7="13000.00000" pt_clust_8="13000.00000" pt_clust_9="20.24391" pt_clust_10="52.10944"></scales>
<clustering>
<clus scale="   20.244">  1  9  2 -1</clus>
<clus scale="   52.109">  2 10  1 -1</clus>
<clus scale="   90.703">  7  8 -1 -1</clus>
<clus scale="   93.535">  5  6 -1 -1</clus>
<clus scale="  110.788">  1  7  2 -1</clus>
<clus scale="   52.109">  2  5  1 -1</clus>
</clustering>
</event>
<event>
10    2  0.3984345E-006  0.9913875E+02  0.7546771E-02  0.1282162E+00
         21   -1    0    0  501  502  0.00000000000E+00  0.00000000000E+00  0.22536614767E+03  0.22536614767E+03  0.00000000000E+00 0.  1.
          2   -1    0    0  503    0 -0.00000000000E+00 -0.00000000000E+00 -0.60536304808E+03  0.60536304808E+03  0.00000000000E+00 0. -1.
         23    2    1    2    0    0 -0.17165099992E+02  0.41394261952E+02 -0.32878545970E+03  0.34415055191E+03  0.91277589192E+02 0.  0.
         23    2    1    2    0    0 -0.33886111914E+02  0.17564400890E+02  0.74845529725E+02  0.12412365325E+03  0.91367670523E+02 0.  0.
        -13    1    4    4    0    0 -0.38885038368E+02  0.46569218056E+02  0.72590328559E+02  0.94604936867E+02  0.00000000000E+00 0.  1.
         13    1    4    4    0    0  0.49989264537E+01 -0.29004817166E+02  0.22552011658E+01  0.29518716382E+02  0.00000000000E+00 0. -1.
        -13    1    3    3    0    0  0.19924219843E+02  0.52998869711E+02 -0.13308501659E+03  0.14462875360E+03  0.00000000000E+00 0.  1.
         13    1    3    3    0    0 -0.37089319836E+02 -0.11604607760E+02 -0.19570044311E+03  0.19952179830E+03  0.00000000000E+00 0. -1.
         21    1    1    2  503  502  0.61436842667E+02 -0.41146054076E+02 -0.23769411102E+03  0.24892965636E+03  0.00000000000E+00 0. -1.
          2    1    1    2  501    0 -0.10385630760E+02 -0.17812608765E+02  0.11163714058E+03  0.11352533424E+03  0.00000000000E+00 0. -1.
<scales pt_clust_5="13000.00000" pt_clust_6="13000.00000" pt_clust_7="13000.00000" pt_clust_8="13000.00000" pt_clust_9="74.01343" pt_clust_10="20.61917"></scales>
<clustering>
<clus scale="   20.619">  1 10  2 -1</clus>
<clus scale="   74.013">  2  9  1 -1</clus>
<clus scale="   91.278">  7  8 -1 -1</clus>
<clus scale="   91.368">  5  6 -1 -1</clus>
<clus scale="   99.056">  2  7  1 -1</clus>
<clus scale="   20.619">  1  5  2 -1</clus>
</clustering>
</event>
<event>
10    2  0.3984345E-006  0.2614485E+03  0.7546771E-02  0.1143897E+00
         21   -1    0    0  501  502  0.00000000000E+00  0.00000000000E+00  0.37528552654E+03  0.37528552654E+03  0.00000000000E+00 0. -1.
          2   -1    0    0  503    0 -0.00000000000E+00 -0.00000000000E+00 -0.47802632358E+03  0.47802632358E+03  0.00000000000E+00 0. -1.
         23    2    1    2    0    0  0.13982433108E+01 -0.44198456209E+02 -0.71754115956E+02  0.12447306063E+03  0.91593837398E+02 0.  0.
         23    2    1    2    0    0  0.24597189921E+03 -0.55136098922E+02 -0.69072785745E+01  0.26908585258E+03  0.93900590816E+02 0.  0.
        -11    1    3    3    0    0 -0.16673159302E+02  0.24367131749E+02 -0.12481653107E+02  0.32055311807E+02  0.00000000000E+00 0. -1.
         11    1    3    3    0    0  0.18071402613E+02 -0.68565587958E+02 -0.59272462849E+02  0.92417748818E+02  0.00000000000E+00 0.  1.
        -13    1    4    4    0    0  0.14509651280E+03 -0.11336663025E+02  0.37807334687E+02  0.15036925388E+03  0.00000000000E+00 0. -1.
         13    1    4    4    0    0  0.10087538640E+03 -0.43799435897E+02 -0.44714613261E+02  0.11871659870E+03  0.00000000000E+00 0.  1.
         21    1    1    2  503  502 -0.29354007973E+02 -0.61869462595E+01 -0.17289522376E+03  0.17547847300E+03  0.00000000000E+00 0.  1.
          2    1    1    2  501    0 -0.21801613455E+03  0.10552150139E+03  0.14881582125E+03  0.28427446391E+03  0.00000000000E+00 0. -1.
<scales pt_clust_5="13000.00000" pt_clust_6="13000.00000" pt_clust_7="13000.00000" pt_clust_8="13000.00000" pt_clust_9="29.99893" pt_clust_10="244.00410"></scales>
<clustering>
<clus scale="   29.999">  2  9  1 -1</clus>
<clus scale="   91.594">  5  6 -1 -1</clus>
<clus scale="   93.901">  7  8 -1 -1</clus>
<clus scale="  102.902">  2  5  1 -1</clus>
<clus scale="  244.004">  1 10  2 -1</clus>
<clus scale="  244.004">  1  5  2 -1</clus>
</clustering>
</event>
<event>
10    2  0.3984345E-006  0.1085680E+03  0.7546771E-02  0.1264807E+00
         -3   -1    0    0    0  501 -0.00000000000E+00  0.00000000000E+00  0.16424579462E+03  0.16424579462E+03  0.00000000000E+00 0.  1.
         21   -1    0    0  503  502  0.00000000000E+00 -0.00000000000E+00 -0.14711533022E+03  0.14711533022E+03  0.00000000000E+00 0.  1.
         23    2    1    2    0    0 -0.54576596615E+02  0.28369470384E+02 -0.33847514432E+01  0.10933843092E+03  0.90332741491E+02 0.  0.
         23    2    1    2    0    0  0.36789755867E+01 -0.66291078964E+02 -0.15092369805E+02  0.11616048848E+03  0.94113959888E+02 0.  0.
        -13    1    4    4    0    0  0.43222770606E+02 -0.77742068739E+01  0.11477268927E+00  0.43916504462E+02  0.00000000000E+00 0.  1.
         13    1    4    4    0    0 -0.39543795020E+02 -0.58516872091E+02 -0.15207142494E+02  0.72243984017E+02  0.00000000000E+00 0. -1.
        -13    1    3    3    0    0 -0.50437778249E+02 -0.21726150037E+02  0.13061679369E+02  0.56450000337E+02  0.00000000000E+00 0.  1.
         13    1    3    3    0    0 -0.41388183658E+01  0.50095620421E+02 -0.16446430812E+02  0.52888430581E+02  0.00000000000E+00 0. -1.
         21    1    1    2  503  501  0.31259813796E+02 -0.38959821114E+01  0.18890939293E+02  0.36731760406E+02  0.00000000000E+00 0. -1.
         -3    1    1    2    0  502  0.19637807232E+02  0.41817590692E+02  0.16716646357E+02  0.49130445037E+02  0.00000000000E+00 0.  1.
<scales pt_clust_5="13000.00000" pt_clust_6="13000.00000" pt_clust_7="13000.00000" pt_clust_8="13000.00000" pt_clust_9="31.50166" pt_clust_10="49.08958"></scales>
<clustering>
<clus scale="   31.502">  1  9  2 -1</clus>
<clus scale="   49.090">  2 10  1 -1</clus>
<clus scale="   90.333">  7  8 -1 -1</clus>
<clus scale="   94.114">  5  6 -1 -1</clus>
<clus scale="  105.307">  1  7  2 -1</clus>
<clus scale="   49.090">  2  5  1 -1</clus>
</clustering>
</event>
<event>
10    2  0.5180630E-006  0.1159063E+03  0.7546771E-02  0.1252614E+00
         21   -1    0    0  501  502  0.00000000000E+00  0.00000000000E+00  0.47298520030E+03  0.47298520030E+03  0.00000000000E+00 0. -1.
          1   -1    0    0  503    0 -0.00000000000E+00 -0.00000000000E+00 -0.18360078546E+03  0.18360078546E+03  0.00000000000E+00 0. -1.
         23    2    1    2    0    0 -0.35238354797E+02  0.50630655860E+02 -0.86367469673E+02  0.14606246415E+03  0.10034788814E+03 0.  0.
         23    2    1    2    0    0 -0.76652764271E+01 -0.11245251176E+03  0.36316406672E+03  0.39158150073E+03  0.93507264390E+02 0.  0.
        -13    1    3    3    0    0  0.57390251281E+01 -0.22178939917E+02 -0.49888548703E+02  0.54897259285E+02  0.00000000000E+00 0.  1.
         13    1    3    3    0    0 -0.40977379925E+02  0.72809595777E+02 -0.36478920970E+02  0.91165204864E+02  0.00000000000E+00 0. -1.
        -13    1    4    4    0    0 -0.27540541829E+02  0.34756174253E+01  0.89658457973E+02  0.93857340932E+02  0.00000000000E+00 0. -1.
         13    1    4    4    0    0  0.19875265402E+02 -0.11592812919E+03  0.27350560875E+03  0.29772415980E+03  0.00000000000E+00 0.  1.
         21    1    1    2  503  502 -0.97200193670E+01 -0.19224945954E+02  0.42050214571E+00  0.21546557625E+02  0.00000000000E+00 0.  1.
          1    1    1    2  501    0  0.52623650591E+02  0.81046801858E+02  0.12167315643E+02  0.97395463256E+02  0.00000000000E+00 0. -1.
<scales pt_clust_5="13000.00000" pt_clust_6="13000.00000" pt_clust_7="13000.00000" pt_clust_8="13000.00000" pt_clust_9="21.54245" pt_clust_10="91.35980"></scales>
<clustering>
<clus scale="   21.542">  2  9  1 -1</clus>
<clus scale="   91.360">  1 10  2 -1</clus>
<clus scale="   93.507">  7  8 -1 -1</clus>
<clus scale="  100.348">  5  6 -1 -1</clus>
<clus scale="  110.037">  1  7  2 -1</clus>
<clus scale="   91.360">  1  5  2 -1</clus>
</clustering>
</event>
<event>
10    2  0.3984345E-006  0.3064069E+03  0.7546771E-02  0.1114540E+00
         -1   -1    0    0    0  501 -0.00000000000E+00  0.00000000000E+00  0.46437439916E+03  0.46437439916E+03  0.00000000000E+00 0.  1.
         21   -1    0    0  503  502  0.00000000000E+00 -0.00000000000E+00 -0.37631852916E+03  0.37631852916E+03  0.00000000000E+00 0.  1.
         23    2    1    2    0    0  0.92314925485E+02  0.87956179125E+01  0.10396496498E+03  0.16591081694E+03  0.90101480964E+02 0.  0.
         23    2    1    2    0    0  0.16952774840E+03  0.16897483980E+03  0.58428603259E+02  0.26234280044E+03  0.90098220306E+02 0.  0.
        -11    1    3    3    0    0  0.51553207135E+02 -0.26879244544E+02  0.12284090840E+02  0.59423276928E+02  0.00000000000E+00 0. -1.
         11    1    3    3    0    0  0.40761718351E+02  0.35674862457E+02  0.91680874139E+02  0.10648754001E+03  0.00000000000E+00 0.  1.
        -11    1    4    4    0    0  0.64994285105E+02  0.10606627770E+03 -0.56728343296E+01  0.12452507141E+03  0.00000000000E+00 0.  1.
         11    1    4    4    0    0  0.10453346330E+03  0.62908562104E+02  0.64101437589E+02  0.13781772903E+03  0.00000000000E+00 0. -1.
         21    1    1    2  503  501 -0.29379948038E+03 -0.19307990748E+03 -0.26027832028E+02  0.35252720942E+03  0.00000000000E+00 0.  1.
         -1    1    1    2    0  502  0.31956806494E+02  0.15309449765E+02 -0.48309866213E+02  0.59912101506E+02  0.00000000000E+00 0.  1.
<scales pt_clust_5="13000.00000" pt_clust_6="13000.00000" pt_clust_7="13000.00000" pt_clust_8="13000.00000" pt_clust_9="292.86093" pt_clust_10="35.43468"></scales>
<clustering>
<clus scale="   35.435">  2 10  1 -1</clus>
<clus scale="   90.098">  7  8 -1 -1</clus>
<clus scale="   90.101">  5  6 -1 -1</clus>
<clus scale="  131.614">  1  5  2 -1</clus>
<clus scale="  292.861">  2  9  1 -1</clus>
<clus scale="   35.435">  2  5  1 -1</clus>
</clustering>
</event>
<event>
10    2  0.3984345E-006  0.1024249E+03  0.7546771E-02  0.1276389E+00
         -1   -1    0    0    0  501 -0.00000000000E+00  0.00000000000E+00  0.43316155923E+02  0.43316155923E+02  0.00000000000E+00 0.  1.
         21   -1    0    0  503  502  0.00000000000E+00 -0.00000000000E+00 -0.79366094085E+03  0.79366094085E+03  0.00000000000E+00 0.  1.
         23    2    1    2    0    0  0.19771955350E+02 -0.61801505461E+02 -0.16794759384E+03  0.20089740076E+03  0.89123594289E+02 0.  0.
         23    2    1    2    0    0  0.97456804045E+01  0.31050102644E+02 -0.28929614311E+03  0.30517462253E+03  0.91543457747E+02 0.  0.
        -11    1    3    3    0    0  0.14696248387E+02 -0.84405766547E+02 -0.11784084338E+03  0.14569412312E+03  0.00000000000E+00 0.  1.
         11    1    3    3    0    0  0.50757069625E+01  0.22604261086E+02 -0.50106750453E+02  0.55203277633E+02  0.00000000000E+00 0. -1.
        -13    1    4    4    0    0  0.35013358851E+02 -0.51752887436E+01 -0.46733674580E+02  0.58623845416E+02  0.00000000000E+00 0.  1.
         13    1    4    4    0    0 -0.25267678447E+02  0.36225391387E+02 -0.24256246853E+03  0.24655077712E+03  0.00000000000E+00 0. -1.
         21    1    1    2  503  501  0.12036364823E+02  0.22623585828E+02  0.79966325631E+01  0.26844866292E+02  0.00000000000E+00 0. -1.
         -1    1    1    2    0  502 -0.41554000578E+02  0.81278169891E+01 -0.30109768054E+03  0.30406020720E+03  0.00000000000E+00 0.  1.
<scales pt_clust_5="13000.00000" pt_clust_6="13000.00000" pt_clust_7="13000.00000" pt_clust_8="13000.00000" pt_clust_9="25.62617" pt_clust_10="41.93759"></scales>
<clustering>
<clus scale="   25.626">  1  9  2 -1</clus>
<clus scale="   41.938">  2 10  1 -1</clus>
<clus scale="   89.124">  5  6 -1 -1</clus>
<clus scale="   91.543">  7  8 -1 -1</clus>
<clus scale="  100.268">  1  5  2 -1</clus>
<clus scale="   41.938">  2  5  1 -1</clus>
</clustering>
</event>
<event>
10    2  0.3984345E-006  0.1278873E+03  0.7546771E-02  0.1244596E+00
          4   -1    0    0  503    0 -0.00000000000E+00  0.00000000000E+00  0.25538751585E+03  0.25538751585E+03  0.00000000000E+00 0. -1.
         21   -1    0    0  501  502  0.00000000000E+00 -0.00000000000E+00 -0.20635096281E+03  0.20635096281E+03  0.00000000000E+00 0.  1.
         23    2    1    2    0    0 -0.78926460468E+02  0.90706840337E+00  0.33945524977E+01  0.11593961562E+03  0.84854360814E+02 0.  0.
         23    2    1    2    0    0 -0.41328407780E+01  0.26107619956E+02 -0.88812090882E+02  0.13150871863E+03  0.93318097903E+02 0.  0.
        -11    1    4    4    0    0 -0.10919570083E+02 -0.21754519972E+02 -0.78356233423E+02  0.82049957137E+02  0.00000000000E+00 0.  1.
         11    1    4    4    0    0  0.67867293051E+01  0.47862139928E+02 -0.10455857459E+02  0.49458761492E+02  0.00000000000E+00 0. -1.
        -11    1    3    3    0    0 -0.24090203134E+02 -0.35597197552E+02  0.20876184093E+02  0.47784028952E+02  0.00000000000E+00 0. -1.
         11    1    3    3    0    0 -0.54836257334E+02  0.36504265955E+02 -0.17481631595E+02  0.68155586672E+02  0.00000000000E+00 0.  1.
         21    1    1    2  503  502  0.99126036132E+02 -0.14842289675E+02  0.15559233554E+03  0.18508171028E+03  0.00000000000E+00 0. -1.
          4    1    1    2  501    0 -0.16066734886E+02 -0.12172398683E+02 -0.21138244122E+02  0.29208434127E+02  0.00000000000E+00 0. -1.
<scales pt_clust_5="13000.00000" pt_clust_6="13000.00000" pt_clust_7="13000.00000" pt_clust_8="13000.00000" pt_clust_9="95.68123" pt_clust_10="20.15706"></scales>
<clustering>
<clus scale="   20.157">  2 10  1 -1</clus>
<clus scale="   84.854">  7  8 -1 -1</clus>
<clus scale="   93.318">  5  6 -1 -1</clus>
<clus scale="   96.185">  2  5  1 -1</clus>
<clus scale="   95.681">  1  9  2 -1</clus>
<clus scale="   20.157">  2  5  1 -1</clus>
</clustering>
</event>
<event>
10    2  0.3984345E-006  0.2830649E+03  0.7546771E-02  0.1094275E+00
          3   -1    0    0  503    0 -0.00000000000E+00  0.00000000000E+00  0.55392349738E+03  0.55392349738E+03  0.00000000000E+00 0. -1.
         21   -1    0    0  501  502  0.00000000000E+00 -0.00000000000E+00 -0.41274033756E+03  0.41274033756E+03  0.00000000000E+00 0. -1.
         23    2    1    2    0    0 -0.17909743554E+03 -0.18989506414E+03  0.40613322338E+03  0.49026395900E+03  0.85314286914E+02 0.  0.
         23    2    1    2    0    0  0.18201415731E+03  0.17341076825E+03 -0.13539857094E+03  0.29974932309E+03  0.91194493644E+02 0.  0.
        -11    1    3    3    0    0 -0.15435915753E+03 -0.18102036190E+03  0.39626264106E+03  0.46218957327E+03  0.00000000000E+00 0. -1.
         11    1    3    3    0    0 -0.24738278010E+02 -0.88747022372E+01  0.98705823268E+01  0.28074385731E+02  0.00000000000E+00 0.  1.
        -11    1    4    4    0    0  0.16978990507E+03  0.11799371435E+03 -0.12626864787E+03  0.24227030343E+03  0.00000000000E+00 0.  1.
         11    1    4    4    0    0  0.12224252246E+02  0.55417053893E+02 -0.91299230725E+01  0.57479019655E+02  0.00000000000E+00 0. -1.
         21    1    1    2  503  502  0.22072421180E+01 -0.20354843888E+02  0.16275553273E+02  0.26155022879E+02  0.00000000000E+00 0.  1.
          3    1    1    2  501    0 -0.51239638889E+01  0.36839139784E+02 -0.14582704590E+03  0.15049552998E+03  0.00000000000E+00 0. -1.
<scales pt_clust_5="13000.00000" pt_clust_6="13000.00000" pt_clust_7="13000.00000" pt_clust_8="13000.00000" pt_clust_9="20.47417" pt_clust_10="37.10411"></scales>
<clustering>
<clus scale="   20.474">  1  9  2 -1</clus>
<clus scale="   37.104">  2 10  1 -1</clus>
<clus scale="   85.314">  5  6 -1 -1</clus>
<clus scale="   91.194">  7  8 -1 -1</clus>
<clus scale="  281.226">  1  5  2 -1</clus>
<clus scale="   37.104">  2  5  1 -1</clus>
</clustering>
</event>
<event>
10    2  0.3984345E-006  0.1151363E+03  0.7546771E-02  0.1255996E+00
         -2   -1    0    0    0  501 -0.00000000000E+00  0.00000000000E+00  0.22281198133E+03  0.22281198133E+03  0.00000000000E+00 0.  1.
         21   -1    0    0  503  502  0.00000000000E+00 -0.00000000000E+00 -0.21870268253E+03  0.21870268253E+03  0.00000000000E+00 0.  1.
         23    2    1    2    0    0 -0.44499549808E+02 -0.86467604638E+02  0.23638965245E+02  0.13451400507E+03  0.89879699034E+02 0.  0.
         23    2    1    2    0    0 -0.25851382533E+02  0.22465964071E+02 -0.13825748863E+02  0.10807034945E+03  0.10156296361E+03 0.  0.
        -13    1    3    3    0    0 -0.35643712659E+02 -0.44284150296E+02  0.56625436593E+02  0.80237150303E+02  0.00000000000E+00 0.  1.
         13    1    3    3    0    0 -0.88558371496E+01 -0.42183454343E+02 -0.32986471348E+02  0.54276854771E+02  0.00000000000E+00 0. -1.
        -13    1    4    4    0    0 -0.58672416966E+02  0.34400871130E+02 -0.23283406689E+02  0.71888729813E+02  0.00000000000E+00 0.  1.
         13    1    4    4    0    0  0.32821034432E+02 -0.11934907059E+02  0.94576578255E+01  0.36181619633E+02  0.00000000000E+00 0. -1.
         21    1    1    2  503  501  0.17560185153E+01  0.41249777107E+02  0.78055544575E+02  0.88302297543E+02  0.00000000000E+00 0.  1.
         -2    1    1    2    0  502  0.68594913826E+02  0.22751863460E+02 -0.83759462158E+02  0.11062801180E+03  0.00000000000E+00 0.  1.
<scales pt_clust_5="13000.00000" pt_clust_6="13000.00000" pt_clust_7="13000.00000" pt_clust_8="13000.00000" pt_clust_9="41.28714" pt_clust_10="73.77301"></scales>
<clustering>
<clus scale="   41.287">  1  9  2 -1</clus>
<clus scale="   73.773">  2 10  1 -1</clus>
<clus scale="   89.880">  5  6 -1 -1</clus>
<clus scale="  101.563">  7  8 -1 -1</clus>
<clus scale="  104.975">  1  5  2 -1</clus>
<clus scale="   73.773">  2  5  1 -1</clus>
</clustering>
</event>
<event>
10    2  0.3984345E-006  0.9739224E+02  0.7546771E-02  0.1286473E+00
         -3   -1    0    0    0  501 -0.00000000000E+00  0.00000000000E+00  0.15869930008E+03  0.15869930008E+03  0.00000000000E+00 0.  1.
         21   -1    0    0  503  502  0.00000000000E+00 -0.00000000000E+00 -0.15064114142E+03  0.15064114142E+03  0.00000000000E+00 0. -1.
         23    2    1    2    0    0  0.63186888096E+01  0.12511220534E+02  0.58094508124E+02  0.10909048138E+03  0.91265024986E+02 0.  0.
         23    2    1    2    0    0 -0.45421879610E+01 -0.66251581829E+02 -0.29223902096E+02  0.11568280556E+03  0.90103115831E+02 0.  0.
        -11    1    3    3    0    0  0.26693677752E+02  0.99194064495E+01  0.76426881537E+02  0.81559887676E+02  0.00000000000E+00 0.  1.
         11    1    3    3    0    0 -0.20374988943E+02  0.25918140849E+01 -0.18332373413E+02  0.27530593703E+02  0.00000000000E+00 0. -1.
        -13    1    4    4    0    0  0.24441041616E+02 -0.10932339279E+02  0.22202096777E+02  0.34782375691E+02  0.00000000000E+00 0.  1.
         13    1    4    4    0    0 -0.28983229577E+02 -0.55319242551E+02 -0.51425998874E+02  0.80900429871E+02  0.00000000000E+00 0. -1.
         21    1    1    2  503  501 -0.13146159067E+02  0.15992238898E+02  0.19315606974E+02  0.28313704737E+02  0.00000000000E+00 0.  1.
         -3    1    1    2    0  502  0.11369658218E+02  0.37748122397E+02 -0.40128054335E+02  0.56253449825E+02  0.00000000000E+00 0.  1.
<scales pt_clust_5="13000.00000" pt_clust_6="13000.00000" pt_clust_7="13000.00000" pt_clust_8="13000.00000" pt_clust_9="20.70201" pt_clust_10="40.12508"></scales>
<clustering>
<clus scale="   20.702">  1  9  2 -1</clus>
<clus scale="   40.125">  2 10  1 -1</clus>
<clus scale="   90.103">  7  8 -1 -1</clus>
<clus scale="   91.265">  5  6 -1 -1</clus>
<clus scale="   96.304">  2  7  1 -1</clus>
<clus scale="   40.125">  2  5  1 -1</clus>
</clustering>
</event>
<event>
10    2  0.3984345E-006  0.9780120E+02  0.7546771E-02  0.1289547E+00
         21   -1    0    0  503  502  0.00000000000E+00  0.00000000000E+00  0.49291920763E+03  0.49291920763E+03  0.00000000000E+00 0.  1.
         -4   -1    0    0    0  501 -0.00000000000E+00 -0.00000000000E+00 -0.71655680316E+02  0.71655680316E+02  0.00000000000E+00 0.  1.
         23    2    1    2    0    0 -0.74430208349E+00  0.30351460806E+02  0.95522698277E+02  0.13958177601E+03  0.97142787429E+02 0.  0.
         23    2    1    2    0    0  0.44342347743E+02  0.37275234103E+02  0.21524710663E+03  0.24003406669E+03  0.89046894259E+02 0.  0.
        -11    1    3    3    0    0  0.33272653517E+02  0.51631345403E+02  0.62303096158E+02  0.87490234262E+02  0.00000000000E+00 0.  1.
         11    1    3    3    0    0 -0.34016955601E+02 -0.21279884597E+02  0.33219602118E+02  0.52091541748E+02  0.00000000000E+00 0. -1.
        -11    1    4    4    0    0 -0.72595813534E+01  0.51911257730E+02  0.99459384994E+02  0.11242619563E+03  0.00000000000E+00 0. -1.
         11    1    4    4    0    0  0.51601929096E+02 -0.14636023627E+02  0.11578772164E+03  0.12760787106E+03  0.00000000000E+00 0.  1.
         21    1    1    2  503  501  0.22811469801E+02 -0.13936113224E+02 -0.16873802475E+02  0.31611763890E+02  0.00000000000E+00 0.  1.
         -4    1    1    2    0  502 -0.66409515461E+02 -0.53690581685E+02  0.12736752488E+03  0.15334728136E+03  0.00000000000E+00 0.  1.
<scales pt_clust_5="13000.00000" pt_clust_6="13000.00000" pt_clust_7="13000.00000" pt_clust_8="13000.00000" pt_clust_9="26.73160" pt_clust_10="83.22530"></scales>
<clustering>
<clus scale="   26.732">  2  9  1 -1</clus>
<clus scale="   83.225">  1 10  2 -1</clus>
<clus scale="   89.047">  7  8 -1 -1</clus>
<clus scale="   89.765">  1  7  2 -1</clus>
<clus scale="   97.143">  5  6 -1 -1</clus>
<clus scale="   83.225">  1  5  2 -1</clus>
</clustering>
</event>
<event>
10    2  0.3984345E-006  0.9781762E+02  0.7546771E-02  0.1286382E+00
          1   -1    0    0  503    0 -0.00000000000E+00  0.00000000000E+00  0.33744424103E+03  0.33744424103E+03  0.00000000000E+00 0. -1.
         21   -1    0    0  501  502  0.00000000000E+00 -0.00000000000E+00 -0.62156371372E+02  0.62156371372E+02  0.00000000000E+00 0.  1.
         23    2    1    2    0    0  0.74677964583E+01 -0.34253544629E+02  0.84342378932E+02  0.12921705765E+03  0.91402066719E+02 0.  0.
         23    2    1    2    0    0 -0.11536286955E+02  0.31746785513E+02  0.66483878318E+02  0.11581641215E+03  0.88613717567E+02 0.  0.
        -11    1    4    4    0    0 -0.28145987334E+02 -0.21654682588E+02  0.11344924593E+02  0.37280413021E+02  0.00000000000E+00 0. -1.
         11    1    4    4    0    0  0.16609700379E+02  0.53401468101E+02  0.55138953725E+02  0.78535999133E+02  0.00000000000E+00 0.  1.
        -11    1    3    3    0    0 -0.36042599544E+02  0.61738843656E+01  0.44960528077E+02  0.57953730812E+02  0.00000000000E+00 0. -1.
         11    1    3    3    0    0  0.43510396002E+02 -0.40427428994E+02  0.39381850856E+02  0.71263326839E+02  0.00000000000E+00 0.  1.
         21    1    1    2  503  502 -0.22096063267E+02 -0.21615404914E+02  0.11304269117E+03  0.11719262677E+03  0.00000000000E+00 0. -1.
          1    1    1    2  501    0  0.26164553764E+02  0.24122164031E+02  0.11418921234E+02  0.37374515827E+02  0.00000000000E+00 0. -1.
<scales pt_clust_5="13000.00000" pt_clust_6="13000.00000" pt_clust_7="13000.00000" pt_clust_8="13000.00000" pt_clust_9="30.91054" pt_clust_10="32.19711"></scales>
<clustering>
<clus scale="   30.911">  1  9  2 -1</clus>
<clus scale="   32.197">  2 10  1 -1</clus>
<clus scale="   88.614">  5  6 -1 -1</clus>
<clus scale="   91.402">  7  8 -1 -1</clus>
<clus scale="   95.217">  2  5  1 -1</clus>
<clus scale="   32.197">  2  5  1 -1</clus>
</clustering>
</event>
<event>
10    2  0.3984345E-006  0.9913560E+02  0.7546771E-02  0.1282370E+00
          2   -1    0    0  503    0 -0.00000000000E+00  0.00000000000E+00  0.22180632888E+03  0.22180632888E+03  0.00000000000E+00 0. -1.
         21   -1    0    0  501  502  0.00000000000E+00 -0.00000000000E+00 -0.10359723998E+03  0.10359723998E+03  0.00000000000E+00 0.  1.
         23    2    1    2    0    0 -0.34240791077E+02 -0.19102908229E+02  0.11595720448E+03  0.15310537291E+03  0.91966456208E+02 0.  0.
         23    2    1    2    0    0  0.42591063865E+01  0.33367033388E+02  0.30758669545E+02  0.10219641759E+03  0.91468645517E+02 0.  0.
        -13    1    4    4    0    0  0.37956899918E+02  0.13864408589E+01 -0.11196605978E+02  0.39598137015E+02  0.00000000000E+00 0.  1.
         13    1    4    4    0    0 -0.33697793531E+02  0.31980592529E+02  0.41955275522E+02  0.62598280580E+02  0.00000000000E+00 0. -1.
        -13    1    3    3    0    0 -0.51810108948E+02  0.18657553954E+02  0.84724043121E+02  0.10104729186E+03  0.00000000000E+00 0. -1.
         13    1    3    3    0    0  0.17569317871E+02 -0.37760462183E+02  0.31233161359E+02  0.52058081056E+02  0.00000000000E+00 0.  1.
         21    1    1    2  503  502  0.33946348404E+01 -0.19927233061E+02  0.10326799058E+02  0.22699359945E+02  0.00000000000E+00 0.  1.
          2    1    1    2  501    0  0.26587049850E+02  0.56631079023E+01 -0.38833584184E+02  0.47402418413E+02  0.00000000000E+00 0. -1.
<scales pt_clust_5="13000.00000" pt_clust_6="13000.00000" pt_clust_7="13000.00000" pt_clust_8="13000.00000" pt_clust_9="20.21431" pt_clust_10="27.16941"></scales>
<clustering>
<clus scale="   20.214">  1  9  2 -1</clus>
<clus scale="   27.169">  2 10  1 -1</clus>
<clus scale="   91.469">  5  6 -1 -1</clus>
<clus scale="   91.966">  7  8 -1 -1</clus>
<clus scale="   98.674">  2  5  1 -1</clus>
<clus scale="   27.169">  2  5  1 -1</clus>
</clustering>
</event>
<event>
10    2  0.3984345E-006  0.1889293E+03  0.7546771E-02  0.1159600E+00
         21   -1    0    0  501  502  0.00000000000E+00  0.00000000000E+00  0.29321158086E+03  0.29321158086E+03  0.00000000000E+00 0. -1.
          2   -1    0    0  503    0 -0.00000000000E+00 -0.00000000000E+00 -0.75205572238E+03  0.75205572238E+03  0.00000000000E+00 0. -1.
         23    2    1    2    0    0 -0.47854610055E+02  0.16064787304E+03 -0.37686425251E+03  0.42202020268E+03  0.89311722829E+02 0.  0.
         23    2    1    2    0    0 -0.32429438335E+02 -0.15942965046E+03 -0.21102486028E+03  0.28152749878E+03  0.90866710051E+02 0.  0.
        -11    1    4    4    0    0  0.29883799677E+02 -0.72382475243E+02 -0.10363334196E+03  0.12989277798E+03  0.00000000000E+00 0.  1.
         11    1    4    4    0    0 -0.62313238012E+02 -0.87047175219E+02 -0.10739151833E+03  0.15163472081E+03  0.00000000000E+00 0. -1.
        -11    1    3    3    0    0 -0.39574130342E+02  0.11477975950E+03 -0.34452151870E+03  0.36528835436E+03  0.00000000000E+00 0. -1.
         11    1    3    3    0    0 -0.82804797133E+01  0.45868113539E+02 -0.32342733817E+02  0.56731848327E+02  0.00000000000E+00 0.  1.
         21    1    1    2  503  502  0.39803709575E+02  0.42117459398E+02 -0.94274224256E+02  0.11066094632E+03  0.00000000000E+00 0. -1.
          2    1    1    2  501    0  0.40480338815E+02 -0.43335681976E+02  0.22331919553E+03  0.23105865545E+03  0.00000000000E+00 0. -1.
<scales pt_clust_5="13000.00000" pt_clust_6="13000.00000" pt_clust_7="13000.00000" pt_clust_8="13000.00000" pt_clust_9="57.95011" pt_clust_10="59.28077"></scales>
<clustering>
<clus scale="   57.950">  2  9  1 -1</clus>
<clus scale="   59.281">  1 10  2 -1</clus>
<clus scale="   89.312">  7  8 -1 -1</clus>
<clus scale="   90.867">  5  6 -1 -1</clus>
<clus scale="  188.186">  2  7  1 -1</clus>
<clus scale="   59.281">  1  5  2 -1</clus>
</clustering>
</event>
<event>
10    2  0.3984345E-006  0.1884620E+03  0.7546771E-02  0.1176658E+00
         21   -1    0    0  503  502  0.00000000000E+00  0.00000000000E+00  0.82355393741E+03  0.82355393741E+03  0.00000000000E+00 0.  1.
         -1   -1    0    0    0  501 -0.00000000000E+00 -0.00000000000E+00 -0.16140606965E+03  0.16140606965E+03  0.00000000000E+00 0.  1.
         23    2    1    2    0    0  0.59283636113E+02  0.13439115600E+03  0.31309842969E+03  0.35724569492E+03  0.89545114552E+02 0.  0.
         23    2    1    2    0    0 -0.71560590043E+02  0.42265834165E+01  0.10843975639E+03  0.15886134968E+03  0.91317936902E+02 0.  0.
        -11    1    4    4    0    0 -0.71004673115E+02  0.31925097819E+02  0.45691913033E+02  0.90269742392E+02  0.00000000000E+00 0. -1.
         11    1    4    4    0    0 -0.55591692874E+00 -0.27698514403E+02  0.62747843358E+02  0.68591607284E+02  0.00000000000E+00 0.  1.
        -13    1    3    3    0    0  0.34745638791E+02  0.99920850007E+01  0.29748854312E+02  0.46819819633E+02  0.00000000000E+00 0.  1.
         13    1    3    3    0    0  0.24537997322E+02  0.12439907100E+03  0.28334957538E+03  0.31042587528E+03  0.00000000000E+00 0. -1.
         21    1    1    2  503  501  0.85077041584E+02 -0.15976506709E+03 -0.33826037610E+02  0.18413902489E+03  0.00000000000E+00 0.  1.
         -1    1    1    2    0  502 -0.72800087653E+02  0.21147327668E+02  0.27443571929E+03  0.28471393758E+03  0.00000000000E+00 0.  1.
<scales pt_clust_5="13000.00000" pt_clust_6="13000.00000" pt_clust_7="13000.00000" pt_clust_8="13000.00000" pt_clust_9="165.83002" pt_clust_10="75.80938"></scales>
<clustering>
<clus scale="   75.809">  1 10  2 -1</clus>
<clus scale="   89.545">  7  8 -1 -1</clus>
<clus scale="   91.318">  5  6 -1 -1</clus>
<clus scale="  128.174">  1  5  2 -1</clus>
<clus scale="  165.830">  2  9  1 -1</clus>
<clus scale="   75.809">  1  5  2 -1</clus>
</clustering>
</event>
<event>
10    2  0.3984345E-006  0.1171968E+03  0.7546771E-02  0.1248892E+00
         21   -1    0    0  503  502  0.00000000000E+00  0.00000000000E+00  0.76955978814E+02  0.76955978814E+02  0.00000000000E+00 0.  1.
         -2   -1    0    0    0  501 -0.00000000000E+00 -0.00000000000E+00 -0.32838342964E+03  0.32838342964E+03  0.00000000000E+00 0. -1.
         23    2    1    2    0    0 -0.51417255398E+02 -0.52938232970E+02 -0.14837592496E+03  0.18908662558E+03  0.91061222282E+02 0.  0.
         23    2    1    2    0    0  0.45149970061E+02  0.41395349855E+02 -0.91152238067E+02  0.14472092970E+03  0.94251377721E+02 0.  0.
        -11    1    3    3    0    0 -0.74530620387E+02 -0.32709562509E+02 -0.79987010470E+02  0.11411682916E+03  0.00000000000E+00 0.  1.
         11    1    3    3    0    0  0.23113364988E+02 -0.20228670461E+02 -0.68388914491E+02  0.74969796418E+02  0.00000000000E+00 0. -1.
        -11    1    4    4    0    0  0.40947564633E+02 -0.13983011974E+02 -0.69076687935E+01  0.43817160581E+02  0.00000000000E+00 0.  1.
         11    1    4    4    0    0  0.42024054285E+01  0.55378361829E+02 -0.84244569273E+02  0.10090376912E+03  0.00000000000E+00 0. -1.
         21    1    1    2  503  501 -0.33985793357E+01 -0.22859926562E+02 -0.24462161608E+02  0.33652992949E+02  0.00000000000E+00 0.  1.
         -2    1    1    2    0  502  0.96658646727E+01  0.34402809677E+02  0.12562873809E+02  0.37878860224E+02  0.00000000000E+00 0. -1.
<scales pt_clust_5="13000.00000" pt_clust_6="13000.00000" pt_clust_7="13000.00000" pt_clust_8="13000.00000" pt_clust_9="23.11118" pt_clust_10="34.76556"></scales>
<clustering>
<clus scale="   23.111">  2  9  1 -1</clus>
<clus scale="   34.766">  1 10  2 -1</clus>
<clus scale="   91.061">  5  6 -1 -1</clus>
<clus scale="   94.251">  7  8 -1 -1</clus>
<clus scale="  114.647">  2  5  1 -1</clus>
<clus scale="   34.766">  1  5  2 -1</clus>
</clustering>
</event>
<event>
10    2  0.3984345E-006  0.2314355E+03  0.7546771E-02  0.1126234E+00
         -1   -1    0    0    0  501 -0.00000000000E+00  0.00000000000E+00  0.40517091942E+03  0.40517091942E+03  0.00000000000E+00 0.  1.
         21   -1    0    0  503  502  0.00000000000E+00 -0.00000000000E+00 -0.41532277245E+03  0.41532277245E+03  0.00000000000E+00 0.  1.
         23    2    1    2    0    0  0.19859982810E+03  0.66649987694E+02  0.31078440754E+03  0.38678511648E+03  0.95559749792E+02 0.  0.
         23    2    1    2    0    0 -0.16815654378E+03 -0.48305744353E+02 -0.22775825776E+03  0.30007846657E+03  0.86966625596E+02 0.  0.
        -11    1    3    3    0    0  0.86825166012E+02  0.10284718781E+02  0.20509355312E+03  0.22295235012E+03  0.00000000000E+00 0.  1.
         11    1    3    3    0    0  0.11177466209E+03  0.56365268913E+02  0.10569085441E+03  0.16383276635E+03  0.00000000000E+00 0. -1.
        -11    1    4    4    0    0 -0.37926284773E+02  0.56844490374E+01 -0.82967806033E+01  0.39237132999E+02  0.00000000000E+00 0. -1.
         11    1    4    4    0    0 -0.13023025900E+03 -0.53990193391E+02 -0.21946147716E+03  0.26084133357E+03  0.00000000000E+00 0.  1.
         21    1    1    2  503  501  0.79991688045E+00  0.24776779504E+02  0.16812798437E+01  0.24846637026E+02  0.00000000000E+00 0. -1.
         -1    1    1    2    0  502 -0.31243201205E+02 -0.43121022844E+02 -0.94859282653E+02  0.10878347181E+03  0.00000000000E+00 0.  1.
<scales pt_clust_5="13000.00000" pt_clust_6="13000.00000" pt_clust_7="13000.00000" pt_clust_8="13000.00000" pt_clust_9="24.78969" pt_clust_10="52.88579"></scales>
<clustering>
<clus scale="   24.790">  1  9  2 -1</clus>
<clus scale="   52.886">  2 10  1 -1</clus>
<clus scale="   86.967">  7  8 -1 -1</clus>
<clus scale="   95.560">  5  6 -1 -1</clus>
<clus scale="  228.022">  2  7  1 -1</clus>
<clus scale="   52.886">  2  5  1 -1</clus>
</clustering>
</event>
<event>
10    2  0.3984345E-006  0.9800996E+02  0.7546771E-02  0.1284925E+00
         21   -1    0    0  501  502  0.00000000000E+00  0.00000000000E+00  0.11923585557E+03  0.11923585557E+03  0.00000000000E+00 0. -1.
          2   -1    0    0  503    0 -0.00000000000E+00 -0.00000000000E+00 -0.43164370153E+03  0.43164370153E+03  0.00000000000E+00 0. -1.
         23    2    1    2    0    0  0.23167651894E+02 -0.69093476403E+01 -0.22225642606E+03  0.24135563386E+03  0.90940331498E+02 0.  0.
         23    2    1    2    0    0 -0.12451705323E+02  0.51704212515E+02 -0.13535563401E+03  0.17192852672E+03  0.91705507383E+02 0.  0.
        -11    1    3    3    0    0  0.57506473842E+02 -0.13373202541E+02 -0.14534718675E+03  0.15688097965E+03  0.00000000000E+00 0.  1.
         11    1    3    3    0    0 -0.34338821948E+02  0.64638549003E+01 -0.76909239309E+02  0.84474654211E+02  0.00000000000E+00 0. -1.
        -11    1    4    4    0    0 -0.43363604393E+02  0.24048554354E+02 -0.28241441515E+02  0.57064123329E+02  0.00000000000E+00 0.  1.
         11    1    4    4    0    0  0.30911899071E+02  0.27655658161E+02 -0.10711419249E+03  0.11486440339E+03  0.00000000000E+00 0. -1.
         21    1    1    2  503  502 -0.20454905208E+00 -0.21405103319E+02 -0.41761378832E+02  0.46927955958E+02  0.00000000000E+00 0.  1.
          2    1    1    2  501    0 -0.10511397519E+02 -0.23389761556E+02  0.86965592940E+02  0.90667440566E+02  0.00000000000E+00 0. -1.
<scales pt_clust_5="13000.00000" pt_clust_6="13000.00000" pt_clust_7="13000.00000" pt_clust_8="13000.00000" pt_clust_9="21.40608" pt_clust_10="25.73688"></scales>
<clustering>
<clus scale="   21.406">  2  9  1 -1</clus>
<clus scale="   25.737">  1 10  2 -1</clus>
<clus scale="   90.940">  5  6 -1 -1</clus>
<clus scale="   91.706">  7  8 -1 -1</clus>
<clus scale="   97.294">  2  5  1 -1</clus>
<clus scale="   25.737">  1  5  2 -1</clus>
</clustering>
</event>
<event>
10    2  0.3984345E-006  0.1155798E+03  0.7546771E-02  0.1253112E+00
         -2   -1    0    0    0  501 -0.00000000000E+00  0.00000000000E+00  0.54133864471E+03  0.54133864471E+03  0.00000000000E+00 0.  1.
         21   -1    0    0  503  502  0.00000000000E+00 -0.00000000000E+00 -0.66067664429E+02  0.66067664429E+02  0.00000000000E+00 0.  1.
         23    2    1    2    0    0 -0.50003560245E+02 -0.22569842200E+02  0.28607710926E+03  0.30467919695E+03  0.89328309027E+02 0.  0.
         23    2    1    2    0    0  0.34907712842E+02  0.47418159687E+02  0.80180754077E+02  0.13842279733E+03  0.96254284124E+02 0.  0.
        -11    1    3    3    0    0 -0.51204066889E+02 -0.51518867400E+02  0.23484587682E+03  0.24582236681E+03  0.00000000000E+00 0.  1.
         11    1    3    3    0    0  0.12005066438E+01  0.28949025200E+02  0.51231232440E+02  0.58856830135E+02  0.00000000000E+00 0. -1.
        -13    1    4    4    0    0  0.59424665130E+02  0.60647070837E+02  0.62443897040E+02  0.10539733538E+03  0.00000000000E+00 0.  1.
         13    1    4    4    0    0 -0.24516952288E+02 -0.13228911150E+02  0.17736857037E+02  0.33025461954E+02  0.00000000000E+00 0. -1.
         21    1    1    2  503  501 -0.19801698989E+02 -0.11107949860E+02  0.12239520801E+03  0.12448325501E+03  0.00000000000E+00 0.  1.
         -2    1    1    2    0  502  0.34897546392E+02 -0.13740367627E+02 -0.13382091069E+02  0.39821059857E+02  0.00000000000E+00 0.  1.
<scales pt_clust_5="13000.00000" pt_clust_6="13000.00000" pt_clust_7="13000.00000" pt_clust_8="13000.00000" pt_clust_9="22.70449" pt_clust_10="37.05522"></scales>
<clustering>
<clus scale="   22.704">  1  9  2 -1</clus>
<clus scale="   37.055">  2 10  1 -1</clus>
<clus scale="   89.328">  5  6 -1 -1</clus>
<clus scale="   96.254">  7  8 -1 -1</clus>
<clus scale="  109.879">  1  5  2 -1</clus>
<clus scale="   37.055">  2  5  1 -1</clus>
</clustering>
</event>
<event>
10    2  0.3984345E-006  0.1128871E+03  0.7546771E-02  0.1256386E+00
          1   -1    0    0  503    0 -0.00000000000E+00  0.00000000000E+00  0.14943076887E+03  0.14943076887E+03  0.00000000000E+00 0. -1.
         21   -1    0    0  501  502  0.00000000000E+00 -0.00000000000E+00 -0.32988708362E+03  0.32988708362E+03  0.00000000000E+00 0.  1.
         23    2    1    2    0    0  0.49291883685E+02 -0.65906102452E+02 -0.62552791748E+02  0.13979594881E+03  0.94110315116E+02 0.  0.
         23    2    1    2    0    0 -0.60240702519E+02  0.43447061315E+01 -0.74054151559E+02  0.13213611209E+03  0.91258512164E+02 0.  0.
        -13    1    3    3    0    0  0.29450372580E+02  0.20498659000E+02 -0.12552115475E+02  0.38014143010E+02  0.00000000000E+00 0. -1.
         13    1    3    3    0    0  0.19841511105E+02 -0.86404761452E+02 -0.50000676274E+02  0.10178180580E+03  0.00000000000E+00 0.  1.
        -13    1    4    4    0    0 -0.18699789068E+01  0.37665753823E+02 -0.93795722274E+01  0.38861062870E+02  0.00000000000E+00 0.  1.
         13    1    4    4    0    0 -0.58370723613E+02 -0.33321047692E+02 -0.64674579332E+02  0.93275049215E+02  0.00000000000E+00 0. -1.
         21    1    1    2  503  502 -0.17332169526E+02  0.33676871277E+02  0.73942563123E+02  0.83078507453E+02  0.00000000000E+00 0. -1.
          1    1    1    2  501    0  0.28280988361E+02  0.27884525044E+02 -0.11779193457E+03  0.12430728414E+03  0.00000000000E+00 0. -1.
<scales pt_clust_5="13000.00000" pt_clust_6="13000.00000" pt_clust_7="13000.00000" pt_clust_8="13000.00000" pt_clust_9="37.87527" pt_clust_10="40.26943"></scales>
<clustering>
<clus scale="   37.875">  1  9  2 -1</clus>
<clus scale="   40.269">  2 10  1 -1</clus>
<clus scale="   91.259">  7  8 -1 -1</clus>
<clus scale="   94.110">  5  6 -1 -1</clus>
<clus scale="  110.521">  2  7  1 -1</clus>
<clus scale="   40.269">  2  5  1 -1</clus>
</clustering>
</event>
<event>
10    2  0.3984345E-006  0.1746896E+03  0.7546771E-02  0.1174842E+00
         21   -1    0    0  501  502  0.00000000000E+00  0.00000000000E+00  0.17953290223E+03  0.17953290223E+03  0.00000000000E+00 0.  1.
          2   -1    0    0  503    0 -0.00000000000E+00 -0.00000000000E+00 -0.32884968902E+03  0.32884968902E+03  0.00000000000E+00 0. -1.
         23    2    1    2    0    0  0.11069837420E+03  0.90669945981E+02 -0.16019031309E+03  0.23348236686E+03  0.91530924117E+02 0.  0.
         23    2    1    2    0    0 -0.14311590366E+03 -0.85463606078E+02  0.14540942777E+02  0.19690128773E+03  0.10379059807E+03 0.  0.
        -11    1    4    4    0    0 -0.14222975771E+03 -0.41627998981E+02  0.28451573324E+02  0.15090290356E+03  0.00000000000E+00 0.  1.
         11    1    4    4    0    0 -0.88614594879E+00 -0.43835607096E+02 -0.13910630547E+02  0.45998384171E+02  0.00000000000E+00 0. -1.
        -13    1    3    3    0    0  0.60729923211E+02  0.48254097325E+02 -0.22142798670E+02  0.80665265231E+02  0.00000000000E+00 0.  1.
         13    1    3    3    0    0  0.49968450993E+02  0.42415848655E+02 -0.13804751442E+03  0.15281710163E+03  0.00000000000E+00 0. -1.
         21    1    1    2  503  502 -0.91670218231E+01 -0.19675494230E+02 -0.21447285394E+02  0.30514675372E+02  0.00000000000E+00 0. -1.
          2    1    1    2  501    0  0.41584551279E+02  0.14469154327E+02  0.17779868914E+02  0.47484261294E+02  0.00000000000E+00 0. -1.
<scales pt_clust_5="13000.00000" pt_clust_6="13000.00000" pt_clust_7="13000.00000" pt_clust_8="13000.00000" pt_clust_9="21.70621" pt_clust_10="43.29498"></scales>
<clustering>
<clus scale="   21.706">  2  9  1 -1</clus>
<clus scale="   43.295">  1 10  2 -1</clus>
<clus scale="   91.531">  7  8 -1 -1</clus>
<clus scale="  103.791">  5  6 -1 -1</clus>
<clus scale="  167.696">  2  7  1 -1</clus>
<clus scale="   43.295">  1  5  2 -1</clus>
</clustering>
</event>
<event>
10    2  0.5374873E-006  0.1166658E+03  0.7546771E-02  0.1249927E+00
         21   -1    0    0  503  502  0.00000000000E+00  0.00000000000E+00  0.18604928130E+03  0.18604928130E+03  0.00000000000E+00 0.  1.
         -2   -1    0    0    0  501 -0.00000000000E+00 -0.00000000000E+00 -0.59827529053E+03  0.59827529053E+03  0.00000000000E+00 0.  1.
         23    2    1    2    0    0 -0.40989739027E+02  0.77975453566E+02 -0.32018884310E+03  0.34418736723E+03  0.90463906879E+02 0.  0.
         23    2    1    2    0    0  0.74597842843E+01 -0.50473977639E+02 -0.21419568448E+03  0.23941224328E+03  0.93995532779E+02 0.  0.
        -11    1    4    4    0    0  0.31869528999E+02  0.15226054197E+02 -0.53626339953E+02  0.64212802009E+02  0.00000000000E+00 0. -1.
         11    1    4    4    0    0 -0.24409744714E+02 -0.65700031836E+02 -0.16056934453E+03  0.17519944127E+03  0.00000000000E+00 0.  1.
        -13    1    3    3    0    0  0.19226777863E+02 -0.70020338617E+01 -0.34568493085E+02  0.40170613380E+02  0.00000000000E+00 0. -1.
         13    1    3    3    0    0 -0.60216516890E+02  0.84977487427E+02 -0.28562035002E+03  0.30401675385E+03  0.00000000000E+00 0.  1.
         21    1    1    2  503  501  0.13879342215E+02 -0.19092361756E+02 -0.34947263441E+02  0.42171858386E+02  0.00000000000E+00 0.  1.
         -2    1    1    2    0  502  0.19650612528E+02 -0.84091141712E+01  0.15710578180E+03  0.15855310293E+03  0.00000000000E+00 0.  1.
<scales pt_clust_5="13000.00000" pt_clust_6="13000.00000" pt_clust_7="13000.00000" pt_clust_8="13000.00000" pt_clust_9="25.99167" pt_clust_10="21.37428"></scales>
<clustering>
<clus scale="   21.374">  1 10  2 -1</clus>
<clus scale="   25.992">  1  9  2 -1</clus>
<clus scale="   90.464">  7  8 -1 -1</clus>
<clus scale="   93.996">  5  6 -1 -1</clus>
<clus scale="  113.840">  2  7  1 -1</clus>
<clus scale="   21.374">  1  5  2 -1</clus>
</clustering>
</event>
<event>
10    2  0.3984345E-006  0.2288863E+03  0.7546771E-02  0.1127768E+00
         21   -1    0    0  503  502  0.00000000000E+00  0.00000000000E+00  0.10320774207E+04  0.10320774207E+04  0.00000000000E+00 0.  1.
         -1   -1    0    0    0  501 -0.00000000000E+00 -0.00000000000E+00 -0.30764923553E+03  0.30764923553E+03  0.00000000000E+00 0.  1.
         23    2    1    2    0    0  0.12983507877E+03  0.11931692489E+03 -0.14767175315E+03  0.24712091909E+03  0.90377683790E+02 0.  0.
         23    2    1    2    0    0 -0.15723141708E+03 -0.55817636205E+02  0.17589581247E+03  0.26042293379E+03  0.95097006125E+02 0.  0.
        -11    1    4    4    0    0 -0.31535221338E+02  0.21881664384E+02  0.13090500344E+02  0.40554144305E+02  0.00000000000E+00 0.  1.
         11    1    4    4    0    0 -0.12569619574E+03 -0.77699300589E+02  0.16280531212E+03  0.21986878949E+03  0.00000000000E+00 0. -1.
        -13    1    3    3    0    0 -0.53834886740E+00  0.29665173157E+02 -0.58264447979E+02  0.65383929342E+02  0.00000000000E+00 0. -1.
         13    1    3    3    0    0  0.13037342764E+03  0.89651751738E+02 -0.89407305166E+02  0.18173698975E+03  0.00000000000E+00 0.  1.
         21    1    1    2  503  501  0.44676805087E+02  0.82726838824E+02 -0.24037659624E+02  0.97044092323E+02  0.00000000000E+00 0.  1.
         -1    1    1    2    0  502 -0.17280466781E+02 -0.14622612751E+03  0.72024178543E+03  0.73513871098E+03  0.00000000000E+00 0.  1.
<scales pt_clust_5="13000.00000" pt_clust_6="13000.00000" pt_clust_7="13000.00000" pt_clust_8="13000.00000" pt_clust_9="94.01993" pt_clust_10="144.61303"></scales>
<clustering>
<clus scale="   90.378">  7  8 -1 -1</clus>
<clus scale="   94.020">  2  9  1 -1</clus>
<clus scale="   95.097">  5  6 -1 -1</clus>
<clus scale="  144.613">  1 10  2 -1</clus>
<clus scale="  226.966">  2  7  1 -1</clus>
<clus scale="  144.613">  1  5  2 -1</clus>
</clustering>
</event>
<event>
10    2  0.3984345E-006  0.9354540E+02  0.7546771E-02  0.1294635E+00
          1   -1    0    0  503    0 -0.00000000000E+00  0.00000000000E+00  0.19119522104E+03  0.19119522104E+03  0.00000000000E+00 0. -1.
         21   -1    0    0  501  502  0.00000000000E+00 -0.00000000000E+00 -0.23900255230E+03  0.23900255230E+03  0.00000000000E+00 0. -1.
         23    2    1    2    0    0  0.16839174172E+02  0.17395842726E+02  0.61600387919E+02  0.11192002519E+03  0.90251377360E+02 0.  0.
         23    2    1    2    0    0  0.65233868715E+01 -0.33221053144E+02  0.58335208234E+02  0.11245549302E+03  0.89983600968E+02 0.  0.
        -13    1    4    4    0    0 -0.95081631903E+01 -0.47842367299E+02 -0.15067661747E+01  0.48801307568E+02  0.00000000000E+00 0.  1.
         13    1    4    4    0    0  0.16031550062E+02  0.14621314154E+02  0.59841974409E+02  0.63654185456E+02  0.00000000000E+00 0. -1.
        -13    1    3    3    0    0 -0.22328140944E+02 -0.22676334258E+02  0.48926111279E+01  0.32197820688E+02  0.00000000000E+00 0.  1.
         13    1    3    3    0    0  0.39167315116E+02  0.40072176985E+02  0.56707776791E+02  0.79722204499E+02  0.00000000000E+00 0. -1.
         21    1    1    2  503  502 -0.22084701273E+02 -0.20477742065E+02  0.39076711431E+01  0.30370081398E+02  0.00000000000E+00 0.  1.
          1    1    1    2  501    0 -0.12778597707E+01  0.36302952483E+02 -0.17165059855E+03  0.17545217373E+03  0.00000000000E+00 0. -1.
<scales pt_clust_5="13000.00000" pt_clust_6="13000.00000" pt_clust_7="13000.00000" pt_clust_8="13000.00000" pt_clust_9="30.11764" pt_clust_10="36.11129"></scales>
<clustering>
<clus scale="   30.118">  1  9  2 -1</clus>
<clus scale="   36.111">  2 10  1 -1</clus>
<clus scale="   89.984">  5  6 -1 -1</clus>
<clus scale="   90.251">  7  8 -1 -1</clus>
<clus scale="   93.287">  2  5  1 -1</clus>
<clus scale="   36.111">  2  5  1 -1</clus>
</clustering>
</event>
<event>
10    2  0.3984345E-006  0.1015821E+03  0.7546771E-02  0.1279845E+00
          2   -1    0    0  503    0 -0.00000000000E+00  0.00000000000E+00  0.20524266945E+03  0.20524266945E+03  0.00000000000E+00 0. -1.
         21   -1    0    0  501  502  0.00000000000E+00 -0.00000000000E+00 -0.33812329794E+03  0.33812329794E+03  0.00000000000E+00 0. -1.
         23    2    1    2    0    0 -0.45268857393E+02 -0.24867542746E+01  0.15388621591E+03  0.18798390823E+03  0.97987391582E+02 0.  0.
         23    2    1    2    0    0 -0.26988540274E+02 -0.12848816360E+01 -0.21189806576E+03  0.23274871702E+03  0.92418303254E+02 0.  0.
        -11    1    3    3    0    0 -0.19268993786E+02 -0.21174751321E+02 -0.21366530718E+01  0.28709397440E+02  0.00000000000E+00 0.  1.
         11    1    3    3    0    0 -0.25999863607E+02  0.18687997047E+02  0.15602286898E+03  0.15927451079E+03  0.00000000000E+00 0. -1.
        -13    1    4    4    0    0  0.35545948158E+01  0.40648877181E+02 -0.62883947187E+02  0.74962371722E+02  0.00000000000E+00 0.  1.
         13    1    4    4    0    0 -0.30543135090E+02 -0.41933758817E+02 -0.14901411857E+03  0.15778634530E+03  0.00000000000E+00 0. -1.
         21    1    1    2  503  502  0.18124163256E+02  0.20031668387E+02  0.21503131304E+01  0.27099388898E+02  0.00000000000E+00 0.  1.
          2    1    1    2  501    0  0.54133234410E+02 -0.16260032477E+02 -0.77019091781E+02  0.95533953245E+02  0.00000000000E+00 0. -1.
<scales pt_clust_5="13000.00000" pt_clust_6="13000.00000" pt_clust_7="13000.00000" pt_clust_8="13000.00000" pt_clust_9="27.01394" pt_clust_10="57.09796"></scales>
<clustering>
<clus scale="   27.014">  1  9  2 -1</clus>
<clus scale="   57.098">  2 10  1 -1</clus>
<clus scale="   92.418">  7  8 -1 -1</clus>
<clus scale="   96.221">  2  7  1 -1</clus>
<clus scale="   97.987">  5  6 -1 -1</clus>
<clus scale="   57.098">  2  5  1 -1</clus>
</clustering>
</event>
<event>
10    2  0.3984345E-006  0.1180304E+03  0.7546771E-02  0.1246727E+00
          4   -1    0    0  503    0 -0.00000000000E+00  0.00000000000E+00  0.11672731107E+03  0.11672731107E+03  0.00000000000E+00 0. -1.
         21   -1    0    0  501  502  0.00000000000E+00 -0.00000000000E+00 -0.36091452875E+03  0.36091452875E+03  0.00000000000E+00 0. -1.
         23    2    1    2    0    0 -0.46817762239E+02  0.38571060826E+02  0.32926402746E+02  0.11559192298E+03  0.92723864603E+02 0.  0.
         23    2    1    2    0    0  0.56338511073E+02 -0.90182234580E+02 -0.26664882849E+03  0.30135396619E+03  0.91682887921E+02 0.  0.
        -13    1    3    3    0    0 -0.56971080779E+01  0.34312150891E+02  0.57717578478E+02  0.67387681401E+02  0.00000000000E+00 0. -1.
         13    1    3    3    0    0 -0.41120654161E+02  0.42589099345E+01 -0.24791175731E+02  0.48204241583E+02  0.00000000000E+00 0.  1.
        -13    1    4    4    0    0  0.11109561785E+02 -0.83675829576E+02 -0.11294878569E+03  0.14100530134E+03  0.00000000000E+00 0.  1.
         13    1    4    4    0    0  0.45228949288E+02 -0.65064050037E+01 -0.15370004281E+03  0.16034866485E+03  0.00000000000E+00 0. -1.
         21    1    1    2  503  502  0.79163630797E+01  0.20193103231E+02 -0.11890982062E+02  0.24735110206E+02  0.00000000000E+00 0. -1.
          4    1    1    2  501    0 -0.17437111914E+02  0.31418070523E+02  0.14261901310E+01  0.35960840446E+02  0.00000000000E+00 0. -1.
<scales pt_clust_5="13000.00000" pt_clust_6="13000.00000" pt_clust_7="13000.00000" pt_clust_8="13000.00000" pt_clust_9="21.68940" pt_clust_10="38.37848"></scales>
<clustering>
<clus scale="   21.689">  1  9  2 -1</clus>
<clus scale="   38.378">  2 10  1 -1</clus>
<clus scale="   91.683">  7  8 -1 -1</clus>
<clus scale="   92.724">  5  6 -1 -1</clus>
<clus scale="  117.214">  2  7  1 -1</clus>
<clus scale="   38.378">  2  5  1 -1</clus>
</clustering>
</event>
<event>
10    2  0.3984345E-006  0.1083815E+03  0.7546771E-02  0.1263953E+00
         21   -1    0    0  503  502  0.00000000000E+00  0.00000000000E+00  0.55553954405E+03  0.55553954405E+03  0.00000000000E+00 0. -1.
         -1   -1    0    0    0  501 -0.00000000000E+00 -0.00000000000E+00 -0.45502530758E+02  0.45502530758E+02  0.00000000000E+00 0.  1.
         23    2    1    2    0    0  0.49332923942E+02  0.67824142778E+02  0.14278816833E+03  0.18927669470E+03  0.91669811903E+02 0.  0.
         23    2    1    2    0    0 -0.18677611590E+02 -0.29511606750E+02  0.13553465167E+03  0.16682508866E+03  0.90780946760E+02 0.  0.
        -11    1    4    4    0    0 -0.54003719982E+02 -0.19693225876E+02  0.61334441832E+02  0.84060327576E+02  0.00000000000E+00 0.  1.
         11    1    4    4    0    0  0.35326108391E+02 -0.98183808743E+01  0.74200209835E+02  0.82764761080E+02  0.00000000000E+00 0. -1.
        -11    1    3    3    0    0  0.33287437842E+02  0.62255753147E+01  0.10269658005E+01  0.33880170673E+02  0.00000000000E+00 0.  1.
         11    1    3    3    0    0  0.16045486100E+02  0.61598567463E+02  0.14176120253E+03  0.15539652403E+03  0.00000000000E+00 0. -1.
         21    1    1    2  503  501 -0.21776851719E+02 -0.12888078996E+02  0.22080615741E+02  0.33584035531E+02  0.00000000000E+00 0. -1.
         -1    1    1    2    0  502 -0.88784606318E+01 -0.25424457031E+02  0.20963357755E+03  0.21135625591E+03  0.00000000000E+00 0.  1.
<scales pt_clust_5="13000.00000" pt_clust_6="13000.00000" pt_clust_7="13000.00000" pt_clust_8="13000.00000" pt_clust_9="25.30482" pt_clust_10="27.35160"></scales>
<clustering>
<clus scale="   25.305">  2  9  1 -1</clus>
<clus scale="   27.352">  1 10  2 -1</clus>
<clus scale="   90.781">  5  6 -1 -1</clus>
<clus scale="   91.670">  7  8 -1 -1</clus>
<clus scale="  107.631">  1  5  2 -1</clus>
<clus scale="   27.352">  1  5  2 -1</clus>
</clustering>
</event>
<event>
10    2  0.3984345E-006  0.1053111E+03  0.7546771E-02  0.1272814E+00
         -3   -1    0    0    0  501 -0.00000000000E+00  0.00000000000E+00  0.86241886217E+03  0.86241886217E+03  0.00000000000E+00 0.  1.
         21   -1    0    0  503  502  0.00000000000E+00 -0.00000000000E+00 -0.94841685220E+02  0.94841685220E+02  0.00000000000E+00 0. -1.
         23    2    1    2    0    0 -0.23622499833E+02  0.72675455373E+02  0.27876161814E+03  0.30295067979E+03  0.90726679251E+02 0.  0.
         23    2    1    2    0    0 -0.31067047559E+02 -0.37706463995E+02  0.14399848241E+03  0.17327698050E+03  0.83080744845E+02 0.  0.
        -11    1    4    4    0    0  0.28544142016E+02 -0.15721669690E+02  0.54939507004E+02  0.63877134963E+02  0.00000000000E+00 0.  1.
         11    1    4    4    0    0 -0.59611189575E+02 -0.21984794305E+02  0.89058975403E+02  0.10939984553E+03  0.00000000000E+00 0. -1.
        -13    1    3    3    0    0  0.10475078956E+02  0.43525868876E+02  0.23852575690E+03  0.24269067812E+03  0.00000000000E+00 0.  1.
         13    1    3    3    0    0 -0.34097578789E+02  0.29149586497E+02  0.40235861236E+02  0.60260001673E+02  0.00000000000E+00 0. -1.
         21    1    1    2  503  501  0.74237149391E+02 -0.28875641885E+02  0.40743703070E+03  0.41515044385E+03  0.00000000000E+00 0.  1.
         -3    1    1    2    0  502 -0.19547601999E+02 -0.60933494938E+01 -0.62619954297E+02  0.65882443246E+02  0.00000000000E+00 0.  1.
<scales pt_clust_5="13000.00000" pt_clust_6="13000.00000" pt_clust_7="13000.00000" pt_clust_8="13000.00000" pt_clust_9="77.65356" pt_clust_10="20.47529"></scales>
<clustering>
<clus scale="   20.475">  2 10  1 -1</clus>
<clus scale="   77.654">  1  9  2 -1</clus>
<clus scale="   83.081">  5  6 -1 -1</clus>
<clus scale="   90.727">  7  8 -1 -1</clus>
<clus scale="   98.800">  2  5  1 -1</clus>
<clus scale="   20.475">  2  5  1 -1</clus>
</clustering>
</event>
<event>
10    2  0.3984345E-006  0.1216232E+03  0.7546771E-02  0.1251850E+00
         21   -1    0    0  501  502  0.00000000000E+00  0.00000000000E+00  0.15639311055E+03  0.15639311055E+03  0.00000000000E+00 0. -1.
          3   -1    0    0  503    0 -0.00000000000E+00 -0.00000000000E+00 -0.24813503802E+03  0.24813503802E+03  0.00000000000E+00 0. -1.
         23    2    1    2    0    0 -0.39041675026E+02 -0.13983267856E+02 -0.80450435035E+02  0.12808784912E+03  0.90633550230E+02 0.  0.
         23    2    1    2    0    0 -0.62480539961E+02  0.24758174348E+02  0.30204003975E+02  0.11600999036E+03  0.89606087603E+02 0.  0.
        -11    1    4    4    0    0 -0.73781291557E+02 -0.10875730791E+02  0.18519584769E+02  0.76843578288E+02  0.00000000000E+00 0. -1.
         11    1    4    4    0    0  0.11300751597E+02  0.35633905139E+02  0.11684419206E+02  0.39166412068E+02  0.00000000000E+00 0.  1.
        -11    1    3    3    0    0 -0.15458559950E+02  0.36428274906E+02 -0.15363457096E+02  0.42450230886E+02  0.00000000000E+00 0. -1.
         11    1    3    3    0    0 -0.23583115077E+02 -0.50411542762E+02 -0.65086977939E+02  0.85637618238E+02  0.00000000000E+00 0.  1.
         21    1    1    2  503  502  0.98825066168E+01  0.19401527602E+02 -0.58538091567E+02  0.62456315730E+02  0.00000000000E+00 0. -1.
          3    1    1    2  501    0  0.91639708370E+02 -0.30176434094E+02  0.17042595151E+02  0.97973993357E+02  0.00000000000E+00 0. -1.
<scales pt_clust_5="13000.00000" pt_clust_6="13000.00000" pt_clust_7="13000.00000" pt_clust_8="13000.00000" pt_clust_9="21.77345" pt_clust_10="82.23717"></scales>
<clustering>
<clus scale="   21.773">  2  9  1 -1</clus>
<clus scale="   89.606">  5  6 -1 -1</clus>
<clus scale="   90.634">  7  8 -1 -1</clus>
<clus scale="   96.697">  2  7  1 -1</clus>
<clus scale="   82.237">  1 10  2 -1</clus>
<clus scale="   82.237">  1  5  2 -1</clus>
</clustering>
</event>
<event>
10    2  0.3984345E-006  0.1081945E+03  0.7546771E-02  0.1264614E+00
          1   -1    0    0  503    0 -0.00000000000E+00  0.00000000000E+00  0.57006622002E+03  0.57006622002E+03  0.00000000000E+00 0. -1.
         21   -1    0    0  501  502  0.00000000000E+00 -0.00000000000E+00 -0.78735795028E+02  0.78735795028E+02  0.00000000000E+00 0.  1.
         23    2    1    2    0    0 -0.37383040176E+02 -0.79470276139E+01  0.13156210976E+03  0.16397120393E+03  0.90096171125E+02 0.  0.
         23    2    1    2    0    0  0.17140566988E+02  0.63730464002E+02  0.17765471758E+02  0.11440194341E+03  0.91743237308E+02 0.  0.
        -11    1    4    4    0    0 -0.69142824526E+01  0.68550211416E+02 -0.17833152118E+02  0.71168533086E+02  0.00000000000E+00 0.  1.
         11    1    4    4    0    0  0.24054849440E+02 -0.48197474149E+01  0.35598623877E+02  0.43233410329E+02  0.00000000000E+00 0. -1.
        -13    1    3    3    0    0  0.16321857651E+02  0.22739522363E+02  0.14385204874E+02  0.31470987175E+02  0.00000000000E+00 0.  1.
         13    1    3    3    0    0 -0.53704897827E+02 -0.30686549977E+02  0.11717690489E+03  0.13250021675E+03  0.00000000000E+00 0. -1.
         21    1    1    2  503  502  0.21642148242E+01 -0.68553562703E+02  0.34146855701E+03  0.34828874545E+03  0.00000000000E+00 0. -1.
          1    1    1    2  501    0  0.18078258364E+02  0.12770126315E+02  0.53428646906E+00  0.22140122259E+02  0.00000000000E+00 0. -1.
<scales pt_clust_5="13000.00000" pt_clust_6="13000.00000" pt_clust_7="13000.00000" pt_clust_8="13000.00000" pt_clust_9="67.98196" pt_clust_10="22.13367"></scales>
<clustering>
<clus scale="   22.134">  2 10  1 -1</clus>
<clus scale="   67.982">  1  9  2 -1</clus>
<clus scale="   90.096">  7  8 -1 -1</clus>
<clus scale="   91.743">  5  6 -1 -1</clus>
<clus scale="  106.801">  1  7  2 -1</clus>
<clus scale="   22.134">  2  5  1 -1</clus>
</clustering>
</event>
<event>
10    2  0.3984345E-006  0.1323750E+03  0.7546771E-02  0.1226023E+00
         21   -1    0    0  501  502  0.00000000000E+00  0.00000000000E+00  0.10508004076E+03  0.10508004076E+03  0.00000000000E+00 0.  1.
          2   -1    0    0  503    0 -0.00000000000E+00 -0.00000000000E+00 -0.58481506460E+03  0.58481506460E+03  0.00000000000E+00 0.  1.
         23    2    1    2    0    0  0.75355886483E+02 -0.24302885508E+02 -0.22303366781E+03  0.25280829445E+03  0.88875625982E+02 0.  0.
         23    2    1    2    0    0 -0.11116622519E+03 -0.25119354901E+01 -0.20976882111E+03  0.25631899702E+03  0.96603470347E+02 0.  0.
        -11    1    3    3    0    0  0.68613945574E+02 -0.51787532063E+02 -0.13240108371E+03  0.15786028308E+03  0.00000000000E+00 0. -1.
         11    1    3    3    0    0  0.67419409084E+01  0.27484646555E+02 -0.90632584101E+02  0.94948011376E+02  0.00000000000E+00 0.  1.
        -11    1    4    4    0    0 -0.54261828875E+02 -0.35307560327E+02 -0.44718861087E+02  0.78681296545E+02  0.00000000000E+00 0.  1.
         11    1    4    4    0    0 -0.56904396318E+02  0.32795624837E+02 -0.16504996002E+03  0.17763770048E+03  0.00000000000E+00 0. -1.
         21    1    1    2  503  502  0.25216444843E+01  0.21821592120E+02 -0.10844504728E+03  0.11064749818E+03  0.00000000000E+00 0. -1.
          2    1    1    2  501    0  0.33288694227E+02  0.49932288784E+01  0.61512512364E+02  0.70120315710E+02  0.00000000000E+00 0.  1.
<scales pt_clust_5="13000.00000" pt_clust_6="13000.00000" pt_clust_7="13000.00000" pt_clust_8="13000.00000" pt_clust_9="21.96681" pt_clust_10="33.71354"></scales>
<clustering>
<clus scale="   21.967">  2  9  1 -1</clus>
<clus scale="   33.714">  1 10  2 -1</clus>
<clus scale="   88.876">  5  6 -1 -1</clus>
<clus scale="   96.603">  7  8 -1 -1</clus>
<clus scale="  126.846">  2  5  1 -1</clus>
<clus scale="   33.714">  1  5  2 -1</clus>
</clustering>
</event>
<event>
10    2  0.3984345E-006  0.9092794E+02  0.7546771E-02  0.1300719E+00
          1   -1    0    0  503    0 -0.00000000000E+00  0.00000000000E+00  0.45256775762E+03  0.45256775762E+03  0.00000000000E+00 0. -1.
         21   -1    0    0  501  502  0.00000000000E+00 -0.00000000000E+00 -0.49613378975E+02  0.49613378975E+02  0.00000000000E+00 0.  1.
         23    2    1    2    0    0 -0.14211097115E+02 -0.23543692914E+02  0.17173271230E+03  0.19611623596E+03  0.90626667015E+02 0.  0.
         23    2    1    2    0    0 -0.80821333864E+01 -0.14751161039E+02  0.61168810195E+02  0.11076064299E+03  0.90793056253E+02 0.  0.
        -13    1    4    4    0    0  0.24965989388E+02 -0.21508412426E+02 -0.79070801194E+01  0.33888557762E+02  0.00000000000E+00 0.  1.
         13    1    4    4    0    0 -0.33048122774E+02  0.67572513868E+01  0.69075890314E+02  0.76872085232E+02  0.00000000000E+00 0. -1.
        -13    1    3    3    0    0  0.17871596304E+02 -0.49617598904E+02  0.10731605719E+03  0.11957439612E+03  0.00000000000E+00 0.  1.
         13    1    3    3    0    0 -0.32082693419E+02  0.26073905991E+02  0.64416655111E+02  0.76541839841E+02  0.00000000000E+00 0. -1.
         21    1    1    2  503  502  0.17801303049E+02  0.17561836019E+02  0.17217767815E+03  0.17398407205E+03  0.00000000000E+00 0. -1.
          1    1    1    2  501    0  0.44919274525E+01  0.20733017933E+02 -0.21248220084E+01  0.21320185586E+02  0.00000000000E+00 0. -1.
<scales pt_clust_5="13000.00000" pt_clust_6="13000.00000" pt_clust_7="13000.00000" pt_clust_8="13000.00000" pt_clust_9="25.43090" pt_clust_10="21.21404"></scales>
<clustering>
<clus scale="   21.214">  2 10  1 -1</clus>
<clus scale="   25.431">  1  9  2 -1</clus>
<clus scale="   90.627">  7  8 -1 -1</clus>
<clus scale="   90.762">  1  7  2 -1</clus>
<clus scale="   90.793">  5  6 -1 -1</clus>
<clus scale="   21.214">  2  5  1 -1</clus>
</clustering>
</event>
<event>
10    2  0.3984345E-006  0.2099876E+03  0.7546771E-02  0.1173533E+00
         -1   -1    0    0    0  501 -0.00000000000E+00  0.00000000000E+00  0.32305081390E+03  0.32305081390E+03  0.00000000000E+00 0.  1.
         21   -1    0    0  503  502  0.00000000000E+00 -0.00000000000E+00 -0.36786081198E+03  0.36786081198E+03  0.00000000000E+00 0.  1.
         23    2    1    2    0    0  0.36473365027E+02  0.16195040060E+02 -0.58258574179E+02  0.11613007307E+03  0.92192986320E+02 0.  0.
         23    2    1    2    0    0 -0.26213991908E+02 -0.18116672787E+03  0.10976094660E+03  0.23656160504E+03  0.10200672000E+03 0.  0.
        -11    1    4    4    0    0  0.15330494750E+01 -0.16801580324E+03  0.11733316955E+03  0.20493592427E+03  0.00000000000E+00 0.  1.
         11    1    4    4    0    0 -0.27747041383E+02 -0.13150924625E+02 -0.75722229527E+01  0.31625680774E+02  0.00000000000E+00 0. -1.
        -13    1    3    3    0    0 -0.24878069345E+02  0.27880511873E+02 -0.15569868339E+02  0.40480391262E+02  0.00000000000E+00 0. -1.
         13    1    3    3    0    0  0.61351434372E+02 -0.11685471813E+02 -0.42688705840E+02  0.75649681806E+02  0.00000000000E+00 0.  1.
         21    1    1    2  503  501 -0.15435036484E+02 -0.18839810415E+02  0.79903495912E+02  0.83532912476E+02  0.00000000000E+00 0.  1.
         -1    1    1    2    0  502  0.51756633645E+01  0.18381149822E+03 -0.17621586641E+03  0.25468703529E+03  0.00000000000E+00 0.  1.
<scales pt_clust_5="13000.00000" pt_clust_6="13000.00000" pt_clust_7="13000.00000" pt_clust_8="13000.00000" pt_clust_9="24.35526" pt_clust_10="183.54678"></scales>
<clustering>
<clus scale="   24.355">  1  9  2 -1</clus>
<clus scale="   92.193">  7  8 -1 -1</clus>
<clus scale="   99.461">  1  7  2 -1</clus>
<clus scale="  102.007">  5  6 -1 -1</clus>
<clus scale="  183.547">  2 10  1 -1</clus>
<clus scale="  183.547">  2  5  1 -1</clus>
</clustering>
</event>
<event>
10    2  0.3984345E-006  0.9196475E+02  0.7546771E-02  0.1298968E+00
         21   -1    0    0  501  502  0.00000000000E+00  0.00000000000E+00  0.55801436427E+03  0.55801436427E+03  0.00000000000E+00 0. -1.
         -4   -1    0    0    0  501 -0.00000000000E+00 -0.00000000000E+00 -0.72040310120E+02  0.72040310120E+02  0.00000000000E+00 0.  1.
         23    2    1    2    0    0  0.36229908809E+01  0.15228449189E+01 -0.87410745864E+01  0.90670878514E+02  0.90162945304E+02 0.  0.
         23    2    1    2    0    0 -0.52253289058E+02 -0.36547498886E+02  0.43625423252E+03  0.45029036630E+03  0.91528862658E+02 0.  0.
        -11    1    3    3    0    0 -0.17953880361E+02  0.22745490527E+02  0.29867121076E+02  0.41614229306E+02  0.00000000000E+00 0.  1.
         11    1    3    3    0    0  0.21576871242E+02 -0.21222645609E+02 -0.38608195662E+02  0.49056649208E+02  0.00000000000E+00 0. -1.
        -13    1    4    4    0    0  0.68142365540E+01 -0.46984708959E+02  0.13452704492E+03  0.14265876248E+03  0.00000000000E+00 0.  1.
         13    1    4    4    0    0 -0.59067525612E+02  0.10437210072E+02  0.30172718760E+03  0.30763160383E+03  0.00000000000E+00 0. -1.
         21    1    1    2  503  502  0.38386934743E+02  0.98744812193E+01  0.29633685577E+02  0.49489569196E+02  0.00000000000E+00 0.  1.
         -4    1    1    2    0  503  0.10243363434E+02  0.25150172748E+02  0.28827210640E+02  0.39603860379E+02  0.00000000000E+00 0.  1.
<scales pt_clust_5="13000.00000" pt_clust_6="13000.00000" pt_clust_7="13000.00000" pt_clust_8="13000.00000" pt_clust_9="25.21955" pt_clust_10="67.23070"></scales>
<clustering>
<clus scale="   25.220">  9 10 -1 -1</clus>
<clus scale="   67.231">  1  9  2 -1</clus>
<clus scale="   90.163">  5  6 -1 -1</clus>
<clus scale="   90.605">  2  5  1 -1</clus>
<clus scale="   91.529">  7  8 -1 -1</clus>
<clus scale="   67.231">  1  5  2 -1</clus>
</clustering>
</event>
<event>
10    2  0.3984345E-006  0.9367618E+02  0.7546771E-02  0.1294761E+00
          4   -1    0    0  503    0 -0.00000000000E+00  0.00000000000E+00  0.92964235557E+02  0.92964235557E+02  0.00000000000E+00 0. -1.
         21   -1    0    0  501  502  0.00000000000E+00 -0.00000000000E+00 -0.29071068922E+03  0.29071068922E+03  0.00000000000E+00 0. -1.
         23    2    1    2    0    0  0.30947461580E+02 -0.53264242659E+01 -0.29030360650E+01  0.96928625063E+02  0.91654866562E+02 0.  0.
         23    2    1    2    0    0 -0.14285067247E+01 -0.14555755490E+01 -0.11349250206E+03  0.14652984013E+03  0.92662218269E+02 0.  0.
        -11    1    4    4    0    0  0.29319203739E+02 -0.26735836456E+02 -0.94362867835E+02  0.10236587070E+03  0.00000000000E+00 0. -1.
         11    1    4    4    0    0 -0.30747710464E+02  0.25280260907E+02 -0.19129634220E+02  0.44163969428E+02  0.00000000000E+00 0.  1.
        -13    1    3    3    0    0  0.38210186303E+02 -0.42726531075E+02 -0.99684185541E+01  0.58180272975E+02  0.00000000000E+00 0.  1.
         13    1    3    3    0    0 -0.72627247230E+01  0.37400106809E+02  0.70653824891E+01  0.38748352087E+02  0.00000000000E+00 0. -1.
         21    1    1    2  503  502 -0.26718615456E+02  0.28422688789E+02  0.14723209365E+02  0.41695401951E+02  0.00000000000E+00 0. -1.
          4    1    1    2  501    0 -0.28003393992E+01 -0.21640688974E+02 -0.96074124905E+02  0.98521057629E+02  0.00000000000E+00 0. -1.
<scales pt_clust_5="13000.00000" pt_clust_6="13000.00000" pt_clust_7="13000.00000" pt_clust_8="13000.00000" pt_clust_9="38.06188" pt_clust_10="21.82112"></scales>
<clustering>
<clus scale="   21.821">  2 10  1 -1</clus>
<clus scale="   38.062">  1  9  2 -1</clus>
<clus scale="   91.655">  7  8 -1 -1</clus>
<clus scale="   92.662">  5  6 -1 -1</clus>
<clus scale="   92.680">  1  7  2 -1</clus>
<clus scale="   21.821">  2  5  1 -1</clus>
</clustering>
</event>
<event>
10    2  0.3984345E-006  0.1225024E+03  0.7546771E-02  0.1239543E+00
         21   -1    0    0  501  502  0.00000000000E+00  0.00000000000E+00  0.20656280246E+03  0.20656280246E+03  0.00000000000E+00 0.  1.
          3   -1    0    0  503    0 -0.00000000000E+00 -0.00000000000E+00 -0.23342814460E+03  0.23342814460E+03  0.00000000000E+00 0. -1.
         23    2    1    2    0    0  0.17478169120E+02 -0.77789045863E+02 -0.12044758636E+03  0.17027940367E+03  0.90171127322E+02 0.  0.
         23    2    1    2    0    0  0.39609729125E+02  0.89966504776E+02  0.10750087684E+03  0.17222874423E+03  0.91887970901E+02 0.  0.
        -11    1    3    3    0    0 -0.21544699873E+02 -0.70814818165E+02 -0.10331565815E+03  0.12709460171E+03  0.00000000000E+00 0. -1.
         11    1    3    3    0    0  0.39022868992E+02 -0.69742276980E+01 -0.17131928209E+02  0.43184801963E+02  0.00000000000E+00 0.  1.
        -13    1    4    4    0    0  0.69552198857E+02  0.56518055124E+02  0.73750520509E+02  0.11606437092E+03  0.00000000000E+00 0.  1.
         13    1    4    4    0    0 -0.29942469732E+02  0.33448449652E+02  0.33750356328E+02  0.56164373316E+02  0.00000000000E+00 0. -1.
         21    1    1    2  503  502 -0.20376065722E+02 -0.17747057092E+01 -0.44243859659E+02  0.48742719991E+02  0.00000000000E+00 0. -1.
          3    1    1    2  501    0 -0.36711832523E+02 -0.10402753204E+02  0.30325227044E+02  0.48740079162E+02  0.00000000000E+00 0. -1.
<scales pt_clust_5="13000.00000" pt_clust_6="13000.00000" pt_clust_7="13000.00000" pt_clust_8="13000.00000" pt_clust_9="20.45321" pt_clust_10="39.14714"></scales>
<clustering>
<clus scale="   20.453">  2  9  1 -1</clus>
<clus scale="   39.147">  1 10  2 -1</clus>
<clus scale="   90.171">  5  6 -1 -1</clus>
<clus scale="   91.888">  7  8 -1 -1</clus>
<clus scale="  121.220">  2  5  1 -1</clus>
<clus scale="   39.147">  1  5  2 -1</clus>
</clustering>
</event>
<event>
10    2  0.3984345E-006  0.1326440E+03  0.7546771E-02  0.1224376E+00
         21   -1    0    0  503  502  0.00000000000E+00  0.00000000000E+00  0.37594205709E+03  0.37594205709E+03  0.00000000000E+00 0.  1.
         -3   -1    0    0    0  501 -0.00000000000E+00 -0.00000000000E+00 -0.49245437213E+03  0.49245437213E+03  0.00000000000E+00 0.  1.
         23    2    1    2    0    0 -0.77935790689E+01 -0.71746419811E+02 -0.37610078402E+03  0.39407305775E+03  0.92916556524E+02 0.  0.
         23    2    1    2    0    0  0.92324041205E+01  0.94855854627E+02  0.56346698296E+02  0.14254777073E+03  0.89788897359E+02 0.  0.
        -11    1    4    4    0    0  0.10786795732E+02  0.26006231177E+02 -0.23808113252E+02  0.36871469713E+02  0.00000000000E+00 0.  1.
         11    1    4    4    0    0 -0.15543916118E+01  0.68849623451E+02  0.80154811549E+02  0.10567630102E+03  0.00000000000E+00 0. -1.
        -13    1    3    3    0    0  0.13731170888E+02  0.17849252954E+02 -0.44029863621E+02  0.49454724501E+02  0.00000000000E+00 0. -1.
         13    1    3    3    0    0 -0.21524749957E+02 -0.89595672766E+02 -0.33207092039E+03  0.34461833325E+03  0.00000000000E+00 0.  1.
         21    1    1    2  503  501  0.46016337933E+02 -0.21612173651E+02 -0.51665777385E+02  0.72484080731E+02  0.00000000000E+00 0.  1.
         -3    1    1    2    0  502 -0.47455162985E+02 -0.14972611651E+01  0.25490754806E+03  0.25929152000E+03  0.00000000000E+00 0.  1.
<scales pt_clust_5="13000.00000" pt_clust_6="13000.00000" pt_clust_7="13000.00000" pt_clust_8="13000.00000" pt_clust_9="47.17010" pt_clust_10="47.47878"></scales>
<clustering>
<clus scale="   47.479">  1 10  2 -1</clus>
<clus scale="   47.170">  2  9  1 -1</clus>
<clus scale="   89.789">  5  6 -1 -1</clus>
<clus scale="   92.917">  7  8 -1 -1</clus>
<clus scale="  130.472">  1  5  2 -1</clus>
<clus scale="   47.479">  1  5  2 -1</clus>
</clustering>
</event>
<event>
10    2  0.3984345E-006  0.1134144E+03  0.7546771E-02  0.1254464E+00
         21   -1    0    0  501  502  0.00000000000E+00  0.00000000000E+00  0.79470829340E+02  0.79470829340E+02  0.00000000000E+00 0.  1.
          2   -1    0    0  503    0 -0.00000000000E+00 -0.00000000000E+00 -0.43785336458E+03  0.43785336458E+03  0.00000000000E+00 0. -1.
         23    2    1    2    0    0  0.52487609946E+02 -0.20584828463E+02 -0.15706072550E+03  0.19083120881E+03  0.92573184023E+02 0.  0.
         23    2    1    2    0    0 -0.79057913720E+02  0.28171366084E+02 -0.15985984867E+03  0.20278861605E+03  0.92326984101E+02 0.  0.
        -11    1    4    4    0    0 -0.12110844354E+02  0.51402536459E+02 -0.55181278161E+02  0.76379753632E+02  0.00000000000E+00 0. -1.
         11    1    4    4    0    0 -0.66947069366E+02 -0.23231170374E+02 -0.10467857051E+03  0.12640886242E+03  0.00000000000E+00 0.  1.
        -11    1    3    3    0    0 -0.25955657597E+02  0.28423317044E+00 -0.26502292617E+02  0.37096475085E+02  0.00000000000E+00 0.  1.
         11    1    3    3    0    0  0.78443267542E+02 -0.20869061633E+02 -0.13055843288E+03  0.15373473372E+03  0.00000000000E+00 0. -1.
         21    1    1    2  503  502 -0.17816172854E+02  0.16192141152E+02 -0.64117160395E+02  0.68488040615E+02  0.00000000000E+00 0.  1.
          2    1    1    2  501    0  0.44386476628E+02 -0.23778678773E+02  0.22655199319E+02  0.55216328453E+02  0.00000000000E+00 0. -1.
<scales pt_clust_5="13000.00000" pt_clust_6="13000.00000" pt_clust_7="13000.00000" pt_clust_8="13000.00000" pt_clust_9="24.07491" pt_clust_10="49.33207"></scales>
<clustering>
<clus scale="   24.075">  2  9  1 -1</clus>
<clus scale="   49.332">  1 10  2 -1</clus>
<clus scale="   92.327">  5  6 -1 -1</clus>
<clus scale="   92.573">  7  8 -1 -1</clus>
<clus scale="  113.214">  1  5  2 -1</clus>
<clus scale="   49.332">  1  5  2 -1</clus>
</clustering>
</event>
<event>
10    2  0.3984345E-006  0.9536155E+02  0.7546771E-02  0.1290503E+00
          1   -1    0    0  503    0 -0.00000000000E+00  0.00000000000E+00  0.89326918198E+03  0.89326918198E+03  0.00000000000E+00 0. -1.
         21   -1    0    0  501  502  0.00000000000E+00 -0.00000000000E+00 -0.59528313060E+02  0.59528313060E+02  0.00000000000E+00 0. -1.
         23    2    1    2    0    0  0.68459276821E+02  0.22322366918E+01  0.53921040132E+03  0.55125608645E+03  0.91889936847E+02 0.  0.
         23    2    1    2    0    0  0.22191359650E+02  0.21920657963E+01  0.18286095669E+03  0.20574745834E+03  0.91633102850E+02 0.  0.
        -11    1    4    4    0    0  0.49547768499E+02 -0.24668924336E+02  0.96238298148E+02  0.11101958035E+03  0.00000000000E+00 0. -1.
         11    1    4    4    0    0 -0.27356408849E+02  0.26860990132E+02  0.86622658538E+02  0.94727877989E+02  0.00000000000E+00 0.  1.
        -13    1    3    3    0    0  0.90873695168E+02 -0.50381353918E+01  0.43353604643E+03  0.44298635965E+03  0.00000000000E+00 0. -1.
         13    1    3    3    0    0 -0.22414418347E+02  0.72703720836E+01  0.10567435489E+03  0.10826972681E+03  0.00000000000E+00 0.  1.
         21    1    1    2  503  502 -0.29974212519E+02 -0.18176075876E+02  0.12697392035E+03  0.13172395226E+03  0.00000000000E+00 0. -1.
          1    1    1    2  501    0 -0.60676423952E+02  0.13751773388E+02 -0.15304409430E+02  0.64069997994E+02  0.00000000000E+00 0. -1.
<scales pt_clust_5="13000.00000" pt_clust_6="13000.00000" pt_clust_7="13000.00000" pt_clust_8="13000.00000" pt_clust_9="35.05457" pt_clust_10="63.02488"></scales>
<clustering>
<clus scale="   35.055">  1  9  2 -1</clus>
<clus scale="   63.025">  2 10  1 -1</clus>
<clus scale="   91.633">  5  6 -1 -1</clus>
<clus scale="   91.890">  7  8 -1 -1</clus>
<clus scale="   95.114">  2  5  1 -1</clus>
<clus scale="   63.025">  2  5  1 -1</clus>
</clustering>
</event>
<event>
10    2  0.3984345E-006  0.1607736E+03  0.7546771E-02  0.1193020E+00
          1   -1    0    0  503    0 -0.00000000000E+00  0.00000000000E+00  0.51094054316E+03  0.51094054316E+03  0.00000000000E+00 0. -1.
         21   -1    0    0  501  502  0.00000000000E+00 -0.00000000000E+00 -0.83241370588E+02  0.83241370588E+02  0.00000000000E+00 0.  1.
         23    2    1    2    0    0  0.80449350395E+02  0.56535866198E+02  0.24463768678E+03  0.28796605367E+03  0.11579485363E+03 0.  0.
         23    2    1    2    0    0 -0.12405667358E+03 -0.47554183702E+02  0.11909902690E+03  0.19986672443E+03  0.90059262033E+02 0.  0.
        -11    1    4    4    0    0 -0.25286088862E+02  0.17585790715E+02 -0.16091962108E+01  0.30842111430E+02  0.00000000000E+00 0. -1.
         11    1    4    4    0    0 -0.98770584723E+02 -0.65139974418E+02  0.12070822311E+03  0.16902461300E+03  0.00000000000E+00 0.  1.
        -11    1    3    3    0    0  0.33803273278E+02  0.73365369602E+02  0.71533325651E+02  0.10789882029E+03  0.00000000000E+00 0.  1.
         11    1    3    3    0    0  0.46646077117E+02 -0.16829503403E+02  0.17310436113E+03  0.18006723338E+03  0.00000000000E+00 0. -1.
         21    1    1    2  503  502  0.15377886914E+02 -0.18998515672E+02  0.71415062417E+02  0.75482012054E+02  0.00000000000E+00 0. -1.
          1    1    1    2  501    0  0.28229436276E+02  0.10016833176E+02 -0.74526035302E+01  0.30867123590E+02  0.00000000000E+00 0. -1.
<scales pt_clust_5="13000.00000" pt_clust_6="13000.00000" pt_clust_7="13000.00000" pt_clust_8="13000.00000" pt_clust_9="24.44224" pt_clust_10="30.17804"></scales>
<clustering>
<clus scale="   24.442">  1  9  2 -1</clus>
<clus scale="   30.178">  2 10  1 -1</clus>
<clus scale="   90.059">  5  6 -1 -1</clus>
<clus scale="  115.795">  7  8 -1 -1</clus>
<clus scale="  143.354">  2  5  1 -1</clus>
<clus scale="   30.178">  2  5  1 -1</clus>
</clustering>
</event>
<event>
10    2  0.3984345E-006  0.1458702E+03  0.7546771E-02  0.1205765E+00
         21   -1    0    0  501  502  0.00000000000E+00  0.00000000000E+00  0.99550725068E+02  0.99550725068E+02  0.00000000000E+00 0. -1.
          2   -1    0    0  503    0 -0.00000000000E+00 -0.00000000000E+00 -0.68764683578E+03  0.68764683578E+03  0.00000000000E+00 0. -1.
         23    2    1    2    0    0 -0.21321355414E+01 -0.10436918127E+03 -0.39591632338E+03  0.41965308559E+03  0.91986439897E+02 0.  0.
         23    2    1    2    0    0 -0.65787118412E+02  0.10829368971E+03 -0.20772086438E+03  0.26034084216E+03  0.92595509719E+02 0.  0.
        -13    1    4    4    0    0 -0.19699830513E+02  0.98024439886E+02 -0.94108548342E+02  0.13730729408E+03  0.00000000000E+00 0.  1.
         13    1    4    4    0    0 -0.46087287900E+02  0.10269249821E+02 -0.11361231604E+03  0.12303354808E+03  0.00000000000E+00 0. -1.
        -13    1    3    3    0    0  0.32955158613E+02 -0.37896813983E+02 -0.76499585918E+02  0.91511734957E+02  0.00000000000E+00 0.  1.
         13    1    3    3    0    0 -0.35087294154E+02 -0.66472367291E+02 -0.31941673746E+03  0.32814135063E+03  0.00000000000E+00 0. -1.
         21    1    1    2  503  502  0.23707575055E+02 -0.11408635106E+02 -0.32282808845E+02  0.41645957989E+02  0.00000000000E+00 0.  1.
          2    1    1    2  501    0  0.44211678899E+02  0.74841266737E+01  0.47823885893E+02  0.65557675104E+02  0.00000000000E+00 0. -1.
<scales pt_clust_5="13000.00000" pt_clust_6="13000.00000" pt_clust_7="13000.00000" pt_clust_8="13000.00000" pt_clust_9="26.30981" pt_clust_10="45.13372"></scales>
<clustering>
<clus scale="   26.310">  2  9  1 -1</clus>
<clus scale="   45.134">  1 10  2 -1</clus>
<clus scale="   91.986">  7  8 -1 -1</clus>
<clus scale="   92.596">  5  6 -1 -1</clus>
<clus scale="  145.484">  2  7  1 -1</clus>
<clus scale="   45.134">  1  5  2 -1</clus>
</clustering>
</event>
<event>
10    2  0.3984345E-006  0.2501190E+03  0.7546771E-02  0.1113273E+00
          2   -1    0    0  503    0 -0.00000000000E+00  0.00000000000E+00  0.16538715253E+04  0.16538715253E+04  0.00000000000E+00 0. -1.
         21   -1    0    0  501  502  0.00000000000E+00 -0.00000000000E+00 -0.14540526214E+03  0.14540526214E+03  0.00000000000E+00 0. -1.
         23    2    1    2    0    0 -0.15447823822E+03  0.11199774641E+03  0.89901852134E+03  0.92357740579E+03  0.91399679905E+02 0.  0.
         23    2    1    2    0    0  0.17125422964E+03 -0.18897906389E+03  0.37069850432E+03  0.45929204559E+03  0.92145017676E+02 0.  0.
        -11    1    3    3    0    0 -0.38764604185E+02 -0.45704030765E+01  0.90738710153E+02  0.98778016998E+02  0.00000000000E+00 0.  1.
         11    1    3    3    0    0 -0.11571363403E+03  0.11656814949E+03  0.80827981119E+03  0.82479938879E+03  0.00000000000E+00 0. -1.
        -13    1    4    4    0    0  0.14198085433E+03 -0.19506658102E+03  0.33027169882E+03  0.40900969312E+03  0.00000000000E+00 0. -1.
         13    1    4    4    0    0  0.29273375315E+02  0.60875171320E+01  0.40426805499E+02  0.50282352471E+02  0.00000000000E+00 0.  1.
         21    1    1    2  503  502 -0.10774669772E+03 -0.36072639187E+02  0.24614927439E+03  0.27110892912E+03  0.00000000000E+00 0. -1.
          2    1    1    2  501    0  0.90970706299E+02  0.11305395667E+03 -0.74000368587E+01  0.14529840697E+03  0.00000000000E+00 0. -1.
<scales pt_clust_5="13000.00000" pt_clust_6="13000.00000" pt_clust_7="13000.00000" pt_clust_8="13000.00000" pt_clust_9="113.62476" pt_clust_10="140.41572"></scales>
<clustering>
<clus scale="   91.400">  5  6 -1 -1</clus>
<clus scale="   92.145">  7  8 -1 -1</clus>
<clus scale="  113.625">  1  9  2 -1</clus>
<clus scale="  140.416">  2 10  1 -1</clus>
<clus scale="  249.845">  1  5  2 -1</clus>
<clus scale="  140.416">  2  5  1 -1</clus>
</clustering>
</event>
<event>
10    2  0.3984345E-006  0.2267902E+03  0.7546771E-02  0.1129083E+00
          1   -1    0    0  503    0 -0.00000000000E+00  0.00000000000E+00  0.22479502582E+03  0.22479502582E+03  0.00000000000E+00 0. -1.
         21   -1    0    0  501  502  0.00000000000E+00 -0.00000000000E+00 -0.58249619235E+03  0.58249619235E+03  0.00000000000E+00 0. -1.
         23    2    1    2    0    0  0.85747361353E+02 -0.17253367208E+03  0.35222671153E+02  0.21584292703E+03  0.90703112433E+02 0.  0.
         23    2    1    2    0    0 -0.98337618215E+02  0.24582467254E+03 -0.39790574471E+03  0.48689555718E+03  0.92942160196E+02 0.  0.
        -11    1    3    3    0    0 -0.10536437864E+02 -0.34877772447E+02 -0.16608387541E+02  0.40041404451E+02  0.00000000000E+00 0.  1.
         11    1    3    3    0    0  0.96283799217E+02 -0.13765589963E+03  0.51831058694E+02  0.17580152258E+03  0.00000000000E+00 0. -1.
        -11    1    4    4    0    0  0.69250243339E+00  0.69980856099E+02 -0.16183937673E+03  0.17632295268E+03  0.00000000000E+00 0.  1.
         11    1    4    4    0    0 -0.99030120649E+02  0.17584381644E+03 -0.23606636798E+03  0.31057260450E+03  0.00000000000E+00 0. -1.
         21    1    1    2  503  502  0.20574381028E+02  0.77618326524E+01 -0.48440782344E+01  0.22517022333E+02  0.00000000000E+00 0. -1.
          1    1    1    2  501    0 -0.79841241658E+01 -0.81052833120E+02  0.98259852711E+01  0.82035711627E+02  0.00000000000E+00 0. -1.
<scales pt_clust_5="13000.00000" pt_clust_6="13000.00000" pt_clust_7="13000.00000" pt_clust_8="13000.00000" pt_clust_9="21.98980" pt_clust_10="79.48400"></scales>
<clustering>
<clus scale="   21.990">  1  9  2 -1</clus>
<clus scale="   79.484">  2 10  1 -1</clus>
<clus scale="   90.703">  5  6 -1 -1</clus>
<clus scale="   92.942">  7  8 -1 -1</clus>
<clus scale="  225.882">  1  5  2 -1</clus>
<clus scale="   79.484">  2  5  1 -1</clus>
</clustering>
</event>
<event>
10    2  0.3984345E-006  0.1253292E+03  0.7546771E-02  0.1234917E+00
          1   -1    0    0  503    0 -0.00000000000E+00  0.00000000000E+00  0.43605294275E+03  0.43605294275E+03  0.00000000000E+00 0. -1.
         21   -1    0    0  501  502  0.00000000000E+00 -0.00000000000E+00 -0.11065616121E+03  0.11065616121E+03  0.00000000000E+00 0.  1.
         23    2    1    2    0    0  0.86278896887E+02 -0.60448566510E+01  0.32708786249E+03  0.35003914349E+03  0.89779417714E+02 0.  0.
         23    2    1    2    0    0 -0.94218308439E+02 -0.14476775777E+02 -0.10560514051E+02  0.13048964090E+03  0.88483643936E+02 0.  0.
        -11    1    4    4    0    0 -0.18532040390E+02  0.32219113193E+02 -0.17901733558E+02  0.41255058360E+02  0.00000000000E+00 0.  1.
         11    1    4    4    0    0 -0.75686268049E+02 -0.46695888969E+02  0.73412195067E+01  0.89234582543E+02  0.00000000000E+00 0. -1.
        -13    1    3    3    0    0  0.48806222251E+02 -0.47963895555E+02  0.17764332049E+03  0.19036736044E+03  0.00000000000E+00 0.  1.
         13    1    3    3    0    0  0.37472674635E+02  0.41919038904E+02  0.14944454200E+03  0.15967178305E+03  0.00000000000E+00 0. -1.
         21    1    1    2  503  502 -0.23402749708E+02 -0.57258458363E+01 -0.10397450003E+01  0.24115453015E+02  0.00000000000E+00 0.  1.
          1    1    1    2  501    0  0.31342161260E+02  0.26247478264E+02  0.99091781014E+01  0.42064866555E+02  0.00000000000E+00 0. -1.
<scales pt_clust_5="13000.00000" pt_clust_6="13000.00000" pt_clust_7="13000.00000" pt_clust_8="13000.00000" pt_clust_9="24.09303" pt_clust_10="37.37789"></scales>
<clustering>
<clus scale="   24.093">  2  9  1 -1</clus>
<clus scale="   37.378">  2 10  1 -1</clus>
<clus scale="   88.484">  5  6 -1 -1</clus>
<clus scale="   89.779">  7  8 -1 -1</clus>
<clus scale="  124.404">  2  5  1 -1</clus>
<clus scale="   24.093">  2  5  1 -1</clus>
</clustering>
</event>
<event>
10    2  0.3984345E-006  0.9313683E+02  0.7546771E-02  0.1295644E+00
          1   -1    0    0  503    0 -0.00000000000E+00  0.00000000000E+00  0.30393805146E+03  0.30393805146E+03  0.00000000000E+00 0. -1.
         21   -1    0    0  501  502  0.00000000000E+00 -0.00000000000E+00 -0.93494345178E+02  0.93494345178E+02  0.00000000000E+00 0.  1.
         23    2    1    2    0    0  0.16027434253E+02  0.33155549132E+01  0.12267192461E+03  0.15439012308E+03  0.92304049006E+02 0.  0.
         23    2    1    2    0    0  0.29275830634E+01 -0.22587582615E+01  0.29412463899E+02  0.96589850342E+02  0.91928414677E+02 0.  0.
        -13    1    3    3    0    0  0.24015541753E+02  0.45099278276E+02  0.63229465634E+02  0.81293643485E+02  0.00000000000E+00 0.  1.
         13    1    3    3    0    0 -0.79881075000E+01 -0.41783723363E+02  0.59442458977E+02  0.73096479592E+02  0.00000000000E+00 0. -1.
        -13    1    4    4    0    0 -0.26674719004E+02  0.23984417418E+02 -0.13404876487E+02  0.38294694495E+02  0.00000000000E+00 0.  1.
         13    1    4    4    0    0  0.29602302068E+02 -0.26243175680E+02  0.42817340386E+02  0.58295155847E+02  0.00000000000E+00 0. -1.
         21    1    1    2  503  502  0.19041841018E+01 -0.31610110247E+02  0.91474811281E+02  0.96801167791E+02  0.00000000000E+00 0. -1.
          1    1    1    2  501    0 -0.20859201418E+02  0.30553313595E+02 -0.33115493508E+02  0.49651255429E+02  0.00000000000E+00 0. -1.
<scales pt_clust_5="13000.00000" pt_clust_6="13000.00000" pt_clust_7="13000.00000" pt_clust_8="13000.00000" pt_clust_9="31.66741" pt_clust_10="35.92934"></scales>
<clustering>
<clus scale="   31.667">  1  9  2 -1</clus>
<clus scale="   35.929">  2 10  1 -1</clus>
<clus scale="   91.928">  7  8 -1 -1</clus>
<clus scale="   92.304">  5  6 -1 -1</clus>
<clus scale="   92.765">  2  7  1 -1</clus>
<clus scale="   35.929">  2  5  1 -1</clus>
</clustering>
</event>
<event>
10    2  0.3984345E-006  0.1517621E+03  0.7546771E-02  0.1198532E+00
          1   -1    0    0  503    0 -0.00000000000E+00  0.00000000000E+00  0.89447646108E+03  0.89447646108E+03  0.00000000000E+00 0. -1.
         21   -1    0    0  501  502  0.00000000000E+00 -0.00000000000E+00 -0.91075458110E+02  0.91075458110E+02  0.00000000000E+00 0. -1.
         23    2    1    2    0    0 -0.84492562671E+02 -0.63097808892E+02  0.44841204831E+03  0.46952617953E+03  0.90890822208E+02 0.  0.
         23    2    1    2    0    0  0.12584657772E+03  0.46254018412E+02  0.29794499490E+03  0.33943551224E+03  0.92024190525E+02 0.  0.
        -11    1    3    3    0    0 -0.66157264998E+02 -0.36603735026E+02  0.41942719269E+03  0.42618750227E+03  0.00000000000E+00 0. -1.
         11    1    3    3    0    0 -0.18335297673E+02 -0.26494073866E+02  0.28984855621E+02  0.43338677254E+02  0.00000000000E+00 0.  1.
        -13    1    4    4    0    0  0.80395984558E+02  0.59899781325E+02  0.12576892391E+03  0.16083942414E+03  0.00000000000E+00 0.  1.
         13    1    4    4    0    0  0.45450593164E+02 -0.13645762913E+02  0.17217607099E+03  0.17859608810E+03  0.00000000000E+00 0. -1.
         21    1    1    2  503  502 -0.25880844012E+02 -0.73497729433E+01  0.11167532462E+03  0.11487042865E+03  0.00000000000E+00 0. -1.
          1    1    1    2  501    0 -0.15473171039E+02  0.24193563424E+02 -0.54631364861E+02  0.61719798766E+02  0.00000000000E+00 0. -1.
<scales pt_clust_5="13000.00000" pt_clust_6="13000.00000" pt_clust_7="13000.00000" pt_clust_8="13000.00000" pt_clust_9="26.90422" pt_clust_10="28.75383"></scales>
<clustering>
<clus scale="   26.904">  1  9  2 -1</clus>
<clus scale="   28.754">  2 10  1 -1</clus>
<clus scale="   90.891">  5  6 -1 -1</clus>
<clus scale="   92.024">  7  8 -1 -1</clus>
<clus scale="  151.078">  1  5  2 -1</clus>
<clus scale="   28.754">  2  5  1 -1</clus>
</clustering>
</event>
<event>
10    2  0.3984345E-006  0.1105819E+03  0.7546771E-02  0.1265696E+00
         21   -1    0    0  501  502  0.00000000000E+00  0.00000000000E+00  0.95523416414E+02  0.95523416414E+02  0.00000000000E+00 0.  1.
          1   -1    0    0  503    0 -0.00000000000E+00 -0.00000000000E+00 -0.10773053307E+04  0.10773053307E+04  0.00000000000E+00 0. -1.
         23    2    1    2    0    0 -0.53247836572E+01 -0.72363794291E+02 -0.35940533582E+03  0.38067908500E+03  0.10236942073E+03 0.  0.
         23    2    1    2    0    0 -0.42981817761E+02  0.27409128610E+02  0.36799681100E+02  0.10861560901E+03  0.88568826358E+02 0.  0.
        -13    1    3    3    0    0  0.30002269163E+02  0.10112243278E+02 -0.56516590444E+02  0.64780541943E+02  0.00000000000E+00 0.  1.
         13    1    3    3    0    0 -0.35327052820E+02 -0.82476037569E+02 -0.30288874537E+03  0.31589854306E+03  0.00000000000E+00 0. -1.
        -13    1    4    4    0    0 -0.31513238442E+01  0.52217828570E+02  0.63967395436E+01  0.52702473750E+02  0.00000000000E+00 0.  1.
         13    1    4    4    0    0 -0.39830493917E+02 -0.24808699960E+02  0.30402941557E+02  0.55913135261E+02  0.00000000000E+00 0. -1.
         21    1    1    2  503  502  0.50512192289E+02  0.69178280740E+02 -0.65279001862E+03  0.65838584774E+03  0.00000000000E+00 0.  1.
          1    1    1    2  501    0 -0.22055908711E+01 -0.24223615059E+02 -0.63862409055E+01  0.25148205314E+02  0.00000000000E+00 0. -1.
<scales pt_clust_5="13000.00000" pt_clust_6="13000.00000" pt_clust_7="13000.00000" pt_clust_8="13000.00000" pt_clust_9="84.98027" pt_clust_10="24.32382"></scales>
<clustering>
<clus scale="   24.324">  1 10  2 -1</clus>
<clus scale="   84.980">  2  9  1 -1</clus>
<clus scale="   88.569">  7  8 -1 -1</clus>
<clus scale="   97.945">  1  7  2 -1</clus>
<clus scale="  102.369">  5  6 -1 -1</clus>
<clus scale="   24.324">  1  5  2 -1</clus>
</clustering>
</event>
<event>
10    2  0.3984345E-006  0.1089987E+03  0.7546771E-02  0.1263165E+00
         21   -1    0    0  501  502  0.00000000000E+00  0.00000000000E+00  0.13339746934E+03  0.13339746934E+03  0.00000000000E+00 0.  1.
          3   -1    0    0  503    0 -0.00000000000E+00 -0.00000000000E+00 -0.28826853830E+03  0.28826853830E+03  0.00000000000E+00 0. -1.
         23    2    1    2    0    0  0.13153307583E+02  0.60551806804E+02 -0.17392753641E+03  0.20617518755E+03  0.91749055771E+02 0.  0.
         23    2    1    2    0    0  0.17683111029E+02 -0.51382131207E+02  0.72179671015E+01  0.10530228033E+03  0.89909150648E+02 0.  0.
        -13    1    3    3    0    0  0.19890382361E+02  0.80556024370E+02 -0.16178885070E+03  0.18182555537E+03  0.00000000000E+00 0. -1.
         13    1    3    3    0    0 -0.67370747776E+01 -0.20004217566E+02 -0.12138685702E+02  0.24349632186E+02  0.00000000000E+00 0.  1.
        -13    1    4    4    0    0  0.23881238561E+02  0.20260293212E+02 -0.67784398667E+01  0.32042788319E+02  0.00000000000E+00 0. -1.
         13    1    4    4    0    0 -0.61981275315E+01 -0.71642424419E+02  0.13996406968E+02  0.73259492010E+02  0.00000000000E+00 0.  1.
         21    1    1    2  503  502 -0.59253142066E+02  0.11276016995E+02 -0.19307325100E+02  0.63331320897E+02  0.00000000000E+00 0. -1.
          3    1    1    2  501    0  0.28416723454E+02 -0.20445692591E+02  0.31145825440E+02  0.46857218865E+02  0.00000000000E+00 0. -1.
<scales pt_clust_5="13000.00000" pt_clust_6="13000.00000" pt_clust_7="13000.00000" pt_clust_8="13000.00000" pt_clust_9="53.02762" pt_clust_10="35.00766"></scales>
<clustering>
<clus scale="   35.008">  1 10  2 -1</clus>
<clus scale="   53.028">  1  9  2 -1</clus>
<clus scale="   89.909">  7  8 -1 -1</clus>
<clus scale="   91.749">  5  6 -1 -1</clus>
<clus scale="  107.455">  1  7  2 -1</clus>
<clus scale="   35.008">  1  5  2 -1</clus>
</clustering>
</event>
<event>
10    2  0.3984345E-006  0.1960482E+03  0.7546771E-02  0.1153697E+00
         21   -1    0    0  501  502  0.00000000000E+00  0.00000000000E+00  0.10870431180E+04  0.10870431180E+04  0.00000000000E+00 0. -1.
          1   -1    0    0  503    0 -0.00000000000E+00 -0.00000000000E+00 -0.75438999357E+03  0.75438999357E+03  0.00000000000E+00 0. -1.
         23    2    1    2    0    0  0.19637544923E+01  0.17668693412E+03 -0.59625531765E+03  0.62861779660E+03  0.91748576871E+02 0.  0.
         23    2    1    2    0    0 -0.91378291632E+02 -0.18626639745E+03  0.62025055724E+03  0.65964946514E+03  0.85915656882E+02 0.  0.
        -11    1    4    4    0    0  0.13807565666E+02 -0.44232134711E+02  0.16198891392E+03  0.16848601973E+03  0.00000000000E+00 0.  1.
         11    1    4    4    0    0 -0.10518585730E+03 -0.14203426274E+03  0.45826164332E+03  0.49116344541E+03  0.00000000000E+00 0. -1.
        -13    1    3    3    0    0  0.33305767975E+02  0.71239722347E+02 -0.35286320143E+03  0.36152013933E+03  0.00000000000E+00 0. -1.
         13    1    3    3    0    0 -0.31342013483E+02  0.10544721177E+03 -0.24339211623E+03  0.26709765727E+03  0.00000000000E+00 0.  1.
         21    1    1    2  503  502  0.29087834587E+02 -0.70453418417E+01 -0.11810579691E+03  0.12183890277E+03  0.00000000000E+00 0. -1.
          1    1    1    2  501    0  0.60326702553E+02  0.16624805173E+02  0.42676368178E+03  0.43132694708E+03  0.00000000000E+00 0. -1.
<scales pt_clust_5="13000.00000" pt_clust_6="13000.00000" pt_clust_7="13000.00000" pt_clust_8="13000.00000" pt_clust_9="29.92890" pt_clust_10="62.66966"></scales>
<clustering>
<clus scale="   29.929">  2  9  1 -1</clus>
<clus scale="   62.670">  1 10  2 -1</clus>
<clus scale="   85.916">  5  6 -1 -1</clus>
<clus scale="   91.749">  7  8 -1 -1</clus>
<clus scale="  193.387">  1  5  2 -1</clus>
<clus scale="   62.670">  1  5  2 -1</clus>
</clustering>
</event>
<event>
10    2  0.3984345E-006  0.1353436E+03  0.7546771E-02  0.1220033E+00
          2   -1    0    0  503    0 -0.00000000000E+00  0.00000000000E+00  0.52820819661E+03  0.52820819661E+03  0.00000000000E+00 0. -1.
         21   -1    0    0  501  502  0.00000000000E+00 -0.00000000000E+00 -0.10149145622E+03  0.10149145622E+03  0.00000000000E+00 0.  1.
         23    2    1    2    0    0  0.26351273073E+02  0.87104159032E+02  0.28203596710E+03  0.31012051889E+03  0.91372454197E+02 0.  0.
         23    2    1    2    0    0 -0.16965019346E+02 -0.77858555048E+02  0.39958772206E+02  0.12675768346E+03  0.90116815110E+02 0.  0.
        -11    1    4    4    0    0  0.28856774943E+01 -0.93608168021E+02  0.38857998104E+02  0.10139408401E+03  0.00000000000E+00 0.  1.
         11    1    4    4    0    0 -0.19850696840E+02  0.15749612973E+02  0.11007741011E+01  0.25363599458E+02  0.00000000000E+00 0. -1.
        -13    1    3    3    0    0  0.12743958527E+02  0.10523289878E+03  0.23987112808E+03  0.26224898389E+03  0.00000000000E+00 0. -1.
         13    1    3    3    0    0  0.13607314546E+02 -0.18128739746E+02  0.42164839017E+02  0.47871535000E+02  0.00000000000E+00 0.  1.
         21    1    1    2  503  502  0.52279405867E+01  0.26866367745E+02  0.13854965958E+03  0.14122726808E+03  0.00000000000E+00 0. -1.
          2    1    1    2  501    0 -0.14614194314E+02 -0.36111971729E+02 -0.33827658496E+02  0.51594182394E+02  0.00000000000E+00 0. -1.
<scales pt_clust_5="13000.00000" pt_clust_6="13000.00000" pt_clust_7="13000.00000" pt_clust_8="13000.00000" pt_clust_9="27.37030" pt_clust_10="38.34262"></scales>
<clustering>
<clus scale="   27.370">  1  9  2 -1</clus>
<clus scale="   38.343">  2 10  1 -1</clus>
<clus scale="   90.117">  5  6 -1 -1</clus>
<clus scale="   91.372">  7  8 -1 -1</clus>
<clus scale="  134.499">  2  5  1 -1</clus>
<clus scale="   38.343">  2  5  1 -1</clus>
</clustering>
</event>
<event>
10    2  0.3984345E-006  0.1014292E+03  0.7546771E-02  0.1278035E+00
         21   -1    0    0  501  502  0.00000000000E+00  0.00000000000E+00  0.11617779269E+03  0.11617779269E+03  0.00000000000E+00 0.  1.
          4   -1    0    0  503    0 -0.00000000000E+00 -0.00000000000E+00 -0.42141941637E+03  0.42141941637E+03  0.00000000000E+00 0. -1.
         23    2    1    2    0    0  0.19677421930E+02 -0.47611611756E+01 -0.26269563474E+03  0.27899775227E+03  0.91765351168E+02 0.  0.
         23    2    1    2    0    0 -0.39090523393E+02  0.66273065770E+02  0.38022087669E+02  0.12453511115E+03  0.90239273557E+02 0.  0.
        -13    1    4    4    0    0 -0.14700212493E+02  0.75811772278E+02  0.53655906322E+02  0.94034447659E+02  0.00000000000E+00 0. -1.
         13    1    4    4    0    0 -0.24390310900E+02 -0.95387065074E+01 -0.15633818652E+02  0.30500663489E+02  0.00000000000E+00 0.  1.
        -13    1    3    3    0    0  0.50564116195E+02 -0.23525741327E+02 -0.12975327239E+03  0.14123066964E+03  0.00000000000E+00 0. -1.
         13    1    3    3    0    0 -0.30886694265E+02  0.18764580151E+02 -0.13294236234E+03  0.13776708263E+03  0.00000000000E+00 0.  1.
         21    1    1    2  503  502  0.21514520380E+02 -0.14509368286E+02 -0.82990066900E+02  0.86952559245E+02  0.00000000000E+00 0. -1.
          4    1    1    2  501    0 -0.21014189176E+01 -0.47002536309E+02  0.24219902865E+01  0.47111786401E+02  0.00000000000E+00 0. -1.
<scales pt_clust_5="13000.00000" pt_clust_6="13000.00000" pt_clust_7="13000.00000" pt_clust_8="13000.00000" pt_clust_9="25.94988" pt_clust_10="47.97088"></scales>
<clustering>
<clus scale="   25.950">  2  9  1 -1</clus>
<clus scale="   47.971">  1 10  2 -1</clus>
<clus scale="   90.239">  5  6 -1 -1</clus>
<clus scale="   91.765">  7  8 -1 -1</clus>
<clus scale="  100.051">  1  5  2 -1</clus>
<clus scale="   47.971">  1  5  2 -1</clus>
</clustering>
</event>
<event>
10    2  0.3984345E-006  0.9723200E+02  0.7546771E-02  0.1286954E+00
          1   -1    0    0  503    0 -0.00000000000E+00  0.00000000000E+00  0.12918151155E+03  0.12918151155E+03  0.00000000000E+00 0. -1.
         21   -1    0    0  501  502  0.00000000000E+00 -0.00000000000E+00 -0.21156055506E+03  0.21156055506E+03  0.00000000000E+00 0.  1.
         23    2    1    2    0    0  0.86343216767E+01  0.10909955961E+02  0.46263774140E+01  0.90921562311E+02  0.89731535567E+02 0.  0.
         23    2    1    2    0    0 -0.45378571176E+02  0.18326949925E+02 -0.53348189158E+02  0.11639702400E+03  0.91143546637E+02 0.  0.
        -13    1    4    4    0    0 -0.19589921816E+02  0.24645494546E+02 -0.75511081872E+02  0.81811300709E+02  0.00000000000E+00 0.  1.
         13    1    4    4    0    0 -0.25788649360E+02 -0.63185446211E+01  0.22162892714E+02  0.34585723289E+02  0.00000000000E+00 0. -1.
        -13    1    3    3    0    0 -0.25885338700E+02  0.37396324721E+02  0.11397921207E+02  0.46887615317E+02  0.00000000000E+00 0.  1.
         13    1    3    3    0    0  0.34519660376E+02 -0.26486368760E+02 -0.67715437930E+01  0.44033946995E+02  0.00000000000E+00 0. -1.
         21    1    1    2  503  502  0.50791587085E+02 -0.50017293022E+02  0.20132310777E+02  0.74073104816E+02  0.00000000000E+00 0. -1.
          1    1    1    2  501    0 -0.14047337586E+02  0.20780387136E+02 -0.53789542546E+02  0.59350375484E+02  0.00000000000E+00 0. -1.
<scales pt_clust_5="13000.00000" pt_clust_6="13000.00000" pt_clust_7="13000.00000" pt_clust_8="13000.00000" pt_clust_9="67.01136" pt_clust_10="25.08291"></scales>
<clustering>
<clus scale="   25.083">  2 10  1 -1</clus>
<clus scale="   67.011">  1  9  2 -1</clus>
<clus scale="   89.732">  7  8 -1 -1</clus>
<clus scale="   91.144">  5  6 -1 -1</clus>
<clus scale="   95.910">  1  7  2 -1</clus>
<clus scale="   25.083">  2  5  1 -1</clus>
</clustering>
</event>
<event>
10    2  0.3984345E-006  0.1125801E+03  0.7546771E-02  0.1260202E+00
          2   -1    0    0  503    0 -0.00000000000E+00  0.00000000000E+00  0.20505724016E+03  0.20505724016E+03  0.00000000000E+00 0. -1.
         21   -1    0    0  501  502  0.00000000000E+00 -0.00000000000E+00 -0.26339372656E+03  0.26339372656E+03  0.00000000000E+00 0.  1.
         23    2    1    2    0    0  0.30154666838E+02  0.70495100397E+02  0.55921467764E+02  0.12351741435E+03  0.79059964444E+02 0.  0.
         23    2    1    2    0    0  0.61659645076E+02 -0.53530121281E+02 -0.19801352941E+02  0.12370297501E+03  0.90790675365E+02 0.  0.
        -13    1    3    3    0    0  0.54442025981E+02  0.63961328500E+02  0.49744392756E+02  0.97619108514E+02  0.00000000000E+00 0.  1.
         13    1    3    3    0    0 -0.24287359143E+02  0.65337718975E+01  0.61770750082E+01  0.25898305833E+02  0.00000000000E+00 0. -1.
        -13    1    4    4    0    0  0.85984557632E+01  0.23823824750E+02  0.67537457718E+01  0.26212995807E+02  0.00000000000E+00 0. -1.
         13    1    4    4    0    0  0.53061189313E+02 -0.77353946031E+02 -0.26555098713E+02  0.97489979205E+02  0.00000000000E+00 0.  1.
         21    1    1    2  503  502 -0.39741108242E+02  0.30904616832E+01  0.51410977462E+02  0.65053787294E+02  0.00000000000E+00 0.  1.
          2    1    1    2  501    0 -0.52073203672E+02 -0.20055440800E+02 -0.14586757868E+03  0.15617679007E+03  0.00000000000E+00 0. -1.
<scales pt_clust_5="13000.00000" pt_clust_6="13000.00000" pt_clust_7="13000.00000" pt_clust_8="13000.00000" pt_clust_9="39.86109" pt_clust_10="57.06795"></scales>
<clustering>
<clus scale="   39.861">  1  9  2 -1</clus>
<clus scale="   57.068">  2 10  1 -1</clus>
<clus scale="   79.060">  5  6 -1 -1</clus>
<clus scale="   90.791">  7  8 -1 -1</clus>
<clus scale="  103.353">  1  5  2 -1</clus>
<clus scale="   57.068">  2  5  1 -1</clus>
</clustering>
</event>
<event>
10    2  0.3984345E-006  0.1328023E+03  0.7546771E-02  0.1223410E+00
         -2   -1    0    0    0  501 -0.00000000000E+00  0.00000000000E+00  0.53896384897E+03  0.53896384897E+03  0.00000000000E+00 0.  1.
         21   -1    0    0  503  502  0.00000000000E+00 -0.00000000000E+00 -0.20595003567E+03  0.20595003567E+03  0.00000000000E+00 0.  1.
         23    2    1    2    0    0 -0.22521256714E+02  0.10039229292E+03  0.27002349547E+03  0.30296055994E+03  0.91030727206E+02 0.  0.
         23    2    1    2    0    0  0.14224592848E+03  0.35400961024E+01  0.52390113396E+01  0.16911525486E+03  0.91247387553E+02 0.  0.
        -13    1    3    3    0    0 -0.32329128990E+02  0.57159086219E+02  0.62160337926E+02  0.90422570909E+02  0.00000000000E+00 0.  1.
         13    1    3    3    0    0  0.98078722759E+01  0.43233206700E+02  0.20786315754E+03  0.21253798904E+03  0.00000000000E+00 0. -1.
        -13    1    4    4    0    0  0.12603834873E+03  0.36401004562E+02  0.12425459526E+02  0.13177666914E+03  0.00000000000E+00 0.  1.
         13    1    4    4    0    0  0.16207579753E+02 -0.32860908460E+02 -0.71864481863E+01  0.37338585723E+02  0.00000000000E+00 0. -1.
         21    1    1    2  503  501 -0.70089474884E+02 -0.81238596343E+02  0.13860915026E+03  0.17528474138E+03  0.00000000000E+00 0. -1.
         -2    1    1    2    0  502 -0.49635196885E+02 -0.22693792677E+02 -0.80857843764E+02  0.97553328462E+02  0.00000000000E+00 0.  1.
<scales pt_clust_5="13000.00000" pt_clust_6="13000.00000" pt_clust_7="13000.00000" pt_clust_8="13000.00000" pt_clust_9="115.14261" pt_clust_10="54.57711"></scales>
<clustering>
<clus scale="   54.577">  2 10  1 -1</clus>
<clus scale="   91.031">  5  6 -1 -1</clus>
<clus scale="   91.247">  7  8 -1 -1</clus>
<clus scale="  115.143">  1  9  2 -1</clus>
<clus scale="  132.654">  1  5  2 -1</clus>
<clus scale="   54.577">  2  5  1 -1</clus>
</clustering>
</event>
<event>
10    2  0.3984345E-006  0.1092465E+03  0.7546771E-02  0.1264682E+00
          1   -1    0    0  503    0 -0.00000000000E+00  0.00000000000E+00  0.10394410558E+04  0.10394410558E+04  0.00000000000E+00 0. -1.
         21   -1    0    0  501  502  0.00000000000E+00 -0.00000000000E+00 -0.31370120290E+02  0.31370120290E+02  0.00000000000E+00 0.  1.
         23    2    1    2    0    0 -0.31023398173E+01  0.66100240382E+02  0.32483850359E+03  0.34565484756E+03  0.97869065262E+02 0.  0.
         23    2    1    2    0    0 -0.58867002472E+02 -0.94961232097E+01  0.20090171345E+03  0.22868140004E+03  0.91532420060E+02 0.  0.
        -11    1    4    4    0    0 -0.27267406565E+02 -0.39444318087E+02  0.41419663736E+02  0.63363666514E+02  0.00000000000E+00 0. -1.
         11    1    4    4    0    0 -0.31599595908E+02  0.29948194877E+02  0.15948204971E+03  0.16531773353E+03  0.00000000000E+00 0.  1.
        -13    1    3    3    0    0  0.30922197502E+02 -0.71919420440E+01  0.14594905309E+03  0.14936208497E+03  0.00000000000E+00 0. -1.
         13    1    3    3    0    0 -0.34024537319E+02  0.73292182426E+02  0.17888945050E+03  0.19629276259E+03  0.00000000000E+00 0.  1.
         21    1    1    2  503  502  0.53692074297E+02 -0.31341874602E+02  0.45152410104E+03  0.45578412189E+03  0.00000000000E+00 0. -1.
          1    1    1    2  501    0  0.82772679927E+01 -0.25262242570E+02  0.30806617465E+02  0.40690806637E+02  0.00000000000E+00 0. -1.
<scales pt_clust_5="13000.00000" pt_clust_6="13000.00000" pt_clust_7="13000.00000" pt_clust_8="13000.00000" pt_clust_9="63.78878" pt_clust_10="26.58372"></scales>
<clustering>
<clus scale="   26.584">  2 10  1 -1</clus>
<clus scale="   63.789">  1  9  2 -1</clus>
<clus scale="   91.532">  5  6 -1 -1</clus>
<clus scale="   97.869">  7  8 -1 -1</clus>
<clus scale="  103.608">  2  5  1 -1</clus>
<clus scale="   26.584">  2  5  1 -1</clus>
</clustering>
</event>
<event>
10    2  0.3984345E-006  0.1116285E+03  0.7546771E-02  0.1259007E+00
          1   -1    0    0  503    0 -0.00000000000E+00  0.00000000000E+00  0.21943785505E+03  0.21943785505E+03  0.00000000000E+00 0. -1.
         21   -1    0    0  501  502  0.00000000000E+00 -0.00000000000E+00 -0.84378714591E+03  0.84378714591E+03  0.00000000000E+00 0. -1.
         23    2    1    2    0    0  0.63287863457E+02  0.47233027780E+02 -0.86819555732E+02  0.15044474935E+03  0.94125845420E+02 0.  0.
         23    2    1    2    0    0 -0.75470982324E+02  0.38319631167E+02 -0.29363100513E+03  0.31868995729E+03  0.90442569629E+02 0.  0.
        -11    1    4    4    0    0 -0.17268881980E+02 -0.29681186596E+02 -0.78599666956E+02  0.85773508545E+02  0.00000000000E+00 0.  1.
         11    1    4    4    0    0 -0.58202100345E+02  0.68000817764E+02 -0.21503133817E+03  0.23291644875E+03  0.00000000000E+00 0. -1.
        -11    1    3    3    0    0 -0.22991779144E+02  0.56553850060E+01 -0.32902121641E+02  0.40535847052E+02  0.00000000000E+00 0.  1.
         11    1    3    3    0    0  0.86279642601E+02  0.41577642774E+02 -0.53917434091E+02  0.10990890230E+03  0.00000000000E+00 0. -1.
         21    1    1    2  503  502 -0.28889609248E+02 -0.67911473355E+00  0.16854584291E+03  0.17100518087E+03  0.00000000000E+00 0. -1.
          1    1    1    2  501    0  0.41072728115E+02 -0.84873544214E+02 -0.41244457291E+03  0.42308511345E+03  0.00000000000E+00 0. -1.
<scales pt_clust_5="13000.00000" pt_clust_6="13000.00000" pt_clust_7="13000.00000" pt_clust_8="13000.00000" pt_clust_9="28.89759" pt_clust_10="93.04938"></scales>
<clustering>
<clus scale="   28.898">  1  9  2 -1</clus>
<clus scale="   90.443">  5  6 -1 -1</clus>
<clus scale="   93.049">  2 10  1 -1</clus>
<clus scale="   94.126">  7  8 -1 -1</clus>
<clus scale="  108.541">  2  5  1 -1</clus>
<clus scale="   93.049">  2  5  1 -1</clus>
</clustering>
</event>
<event>
10    2  0.3984345E-006  0.9100232E+02  0.7546771E-02  0.1300996E+00
         21   -1    0    0  503  502  0.00000000000E+00  0.00000000000E+00  0.10195124747E+03  0.10195124747E+03  0.00000000000E+00 0. -1.
         -3   -1    0    0    0  501 -0.00000000000E+00 -0.00000000000E+00 -0.31640702069E+03  0.31640702069E+03  0.00000000000E+00 0.  1.
         23    2    1    2    0    0 -0.26333335523E+02  0.10219069982E+02 -0.56535494095E+02  0.10929399562E+03  0.89168612381E+02 0.  0.
         23    2    1    2    0    0 -0.10421500430E+00 -0.15282963389E+02 -0.64672858618E+02  0.11045420122E+03  0.88226821849E+02 0.  0.
        -11    1    3    3    0    0 -0.35186769678E+02  0.44005270787E+02 -0.22946825932E+02  0.60836908516E+02  0.00000000000E+00 0.  1.
         11    1    3    3    0    0  0.88534341553E+01 -0.33786200805E+02 -0.33588668163E+02  0.48457087099E+02  0.00000000000E+00 0. -1.
        -11    1    4    4    0    0 -0.30911590867E+02  0.69647405042E+00 -0.68873895790E+02  0.75495861127E+02  0.00000000000E+00 0.  1.
         11    1    4    4    0    0  0.30807375862E+02 -0.15979437440E+02  0.42010371723E+01  0.34958340088E+02  0.00000000000E+00 0. -1.
         21    1    1    2  503  501  0.68229757071E+02 -0.33398366757E+02 -0.11497038113E+03  0.13780035990E+03  0.00000000000E+00 0. -1.
         -3    1    1    2    0  502 -0.41792206544E+02  0.38462260165E+02  0.21722960629E+02  0.60809711422E+02  0.00000000000E+00 0.  1.
<scales pt_clust_5="13000.00000" pt_clust_6="13000.00000" pt_clust_7="13000.00000" pt_clust_8="13000.00000" pt_clust_9="65.79430" pt_clust_10="56.79731"></scales>
<clustering>
<clus scale="   56.797">  1 10  2 -1</clus>
<clus scale="   65.794">  2  9  1 -1</clus>
<clus scale="   88.227">  7  8 -1 -1</clus>
<clus scale="   89.169">  5  6 -1 -1</clus>
<clus scale="   90.080">  1  7  2 -1</clus>
<clus scale="   56.797">  1  5  2 -1</clus>
</clustering>
</event>
<event>
10    2  0.3984345E-006  0.9688850E+02  0.7546771E-02  0.1287866E+00
          2   -1    0    0  503    0 -0.00000000000E+00  0.00000000000E+00  0.34984019088E+03  0.34984019088E+03  0.00000000000E+00 0. -1.
         21   -1    0    0  501  502  0.00000000000E+00 -0.00000000000E+00 -0.64887894068E+02  0.64887894068E+02  0.00000000000E+00 0.  1.
         23    2    1    2    0    0  0.14178584239E+02 -0.11354231326E+02  0.13587351519E+03  0.16485478563E+03  0.91572579936E+02 0.  0.
         23    2    1    2    0    0 -0.41705055722E+02  0.40802020721E+02  0.27078664409E+02  0.11051991100E+03  0.89873689665E+02 0.  0.
        -11    1    3    3    0    0  0.27872012387E+02 -0.40443647612E+02  0.38794840036E+02  0.62590552962E+02  0.00000000000E+00 0.  1.
         11    1    3    3    0    0 -0.13693428147E+02  0.29089416286E+02  0.97078675154E+02  0.10226423267E+03  0.00000000000E+00 0. -1.
        -13    1    4    4    0    0  0.21731582189E+02  0.98604240074E+01  0.31827003127E+02  0.39779991881E+02  0.00000000000E+00 0. -1.
         13    1    4    4    0    0 -0.63436637910E+02  0.30941596714E+02 -0.47483387183E+01  0.70739919120E+02  0.00000000000E+00 0.  1.
         21    1    1    2  503  502 -0.11250843123E+02 -0.19589172311E+02  0.71145689141E+02  0.74646006097E+02  0.00000000000E+00 0.  1.
          2    1    1    2  501    0  0.38777314606E+02 -0.98586170831E+01  0.50854428072E+02  0.64707382217E+02  0.00000000000E+00 0. -1.
<scales pt_clust_5="13000.00000" pt_clust_6="13000.00000" pt_clust_7="13000.00000" pt_clust_8="13000.00000" pt_clust_9="22.59020" pt_clust_10="39.00802"></scales>
<clustering>
<clus scale="   22.590">  1  9  2 -1</clus>
<clus scale="   39.008">  2 10  1 -1</clus>
<clus scale="   89.874">  7  8 -1 -1</clus>
<clus scale="   91.573">  5  6 -1 -1</clus>
<clus scale="   95.284">  2  7  1 -1</clus>
<clus scale="   39.008">  2  5  1 -1</clus>
</clustering>
</event>
<event>
10    2  0.3984345E-006  0.2577704E+03  0.7546771E-02  0.1108505E+00
         21   -1    0    0  501  502  0.00000000000E+00  0.00000000000E+00  0.77271471464E+03  0.77271471464E+03  0.00000000000E+00 0.  1.
          4   -1    0    0  503    0 -0.00000000000E+00 -0.00000000000E+00 -0.27665361937E+03  0.27665361937E+03  0.00000000000E+00 0. -1.
         23    2    1    2    0    0 -0.12651651366E+03  0.22441105213E+03  0.16264029094E+02  0.27333396541E+03  0.89889874029E+02 0.  0.
         23    2    1    2    0    0  0.38695079031E+02 -0.19603247198E+03  0.57086388965E+03  0.61150880204E+03  0.90174249383E+02 0.  0.
        -11    1    3    3    0    0 -0.82971436310E+02  0.21070453987E+03  0.59421080163E+01  0.22653028719E+03  0.00000000000E+00 0.  1.
         11    1    3    3    0    0 -0.43545077355E+02  0.13706512265E+02  0.10321921077E+02  0.46803678221E+02  0.00000000000E+00 0. -1.
        -13    1    4    4    0    0 -0.16036542653E+01 -0.30720905064E+02  0.24693499026E+02  0.39447618548E+02  0.00000000000E+00 0. -1.
         13    1    4    4    0    0  0.40298733296E+02 -0.16531156691E+03  0.54617039062E+03  0.57206118349E+03  0.00000000000E+00 0.  1.
         21    1    1    2  503  502  0.29129182800E+02  0.67521838914E+01 -0.91352935119E+02  0.96122110010E+02  0.00000000000E+00 0. -1.
          4    1    1    2  501    0  0.58692251834E+02 -0.35130764051E+02  0.28611164788E+00  0.68403456550E+02  0.00000000000E+00 0. -1.
<scales pt_clust_5="13000.00000" pt_clust_6="13000.00000" pt_clust_7="13000.00000" pt_clust_8="13000.00000" pt_clust_9="29.90153" pt_clust_10="72.51406"></scales>
<clustering>
<clus scale="   29.902">  2  9  1 -1</clus>
<clus scale="   72.514">  1 10  2 -1</clus>
<clus scale="   89.890">  5  6 -1 -1</clus>
<clus scale="   90.174">  7  8 -1 -1</clus>
<clus scale="  257.671">  2  5  1 -1</clus>
<clus scale="   72.514">  1  5  2 -1</clus>
</clustering>
</event>
<event>
10    2  0.3984345E-006  0.9580678E+02  0.7546771E-02  0.1294551E+00
         -2   -1    0    0    0  501 -0.00000000000E+00  0.00000000000E+00  0.26336001596E+03  0.26336001596E+03  0.00000000000E+00 0.  1.
         21   -1    0    0  501  502  0.00000000000E+00 -0.00000000000E+00 -0.85116207436E+02  0.85116207436E+02  0.00000000000E+00 0. -1.
         23    2    1    2    0    0 -0.10684823584E+02  0.11521544654E+02  0.10908912034E+03  0.13708402332E+03  0.81514917813E+02 0.  0.
         23    2    1    2    0    0  0.14676339097E+02 -0.54347827376E+02  0.10172319224E+03  0.14756798558E+03  0.90882458490E+02 0.  0.
        -11    1    3    3    0    0  0.19372616167E+02  0.31397754626E+02  0.87785249770E+02  0.95222724861E+02  0.00000000000E+00 0.  1.
         11    1    3    3    0    0 -0.30057439751E+02 -0.19876209972E+02  0.21303870570E+02  0.41861298457E+02  0.00000000000E+00 0. -1.
        -13    1    4    4    0    0 -0.70999312229E+01 -0.38134823311E+02  0.11200918269E+03  0.11853577848E+03  0.00000000000E+00 0.  1.
         13    1    4    4    0    0  0.21776270320E+02 -0.16213004065E+02 -0.10285990455E+02  0.29032207107E+02  0.00000000000E+00 0. -1.
         21    1    1    2  503  502  0.19008326614E+01  0.20590864075E+02  0.35715122288E+01  0.20984578808E+02  0.00000000000E+00 0.  1.
         -2    1    1    2    0  503 -0.58923481745E+01  0.22235418647E+02 -0.36140016278E+02  0.42839635689E+02  0.00000000000E+00 0.  1.
<scales pt_clust_5="13000.00000" pt_clust_6="13000.00000" pt_clust_7="13000.00000" pt_clust_8="13000.00000" pt_clust_9="20.67842" pt_clust_10="33.24174"></scales>
<clustering>
<clus scale="   20.678">  2  9  1 -1</clus>
<clus scale="   33.242">  2 10  1 -1</clus>
<clus scale="   81.515">  5  6 -1 -1</clus>
<clus scale="   86.971">  1  5  2 -1</clus>
<clus scale="   90.882">  7  8 -1 -1</clus>
<clus scale="   20.678">  2  5  1 -1</clus>
</clustering>
</event>
<event>
10    2  0.3984345E-006  0.1483718E+03  0.7546771E-02  0.1202977E+00
          1   -1    0    0  503    0 -0.00000000000E+00  0.00000000000E+00  0.80023556278E+03  0.80023556278E+03  0.00000000000E+00 0. -1.
         21   -1    0    0  501  502  0.00000000000E+00 -0.00000000000E+00 -0.66668053250E+02  0.66668053250E+02  0.00000000000E+00 0. -1.
         23    2    1    2    0    0  0.23598556168E+02  0.10107402875E+03  0.24726204924E+03  0.28414309532E+03  0.93946402180E+02 0.  0.
         23    2    1    2    0    0 -0.81102874707E+02 -0.10793685642E+03  0.16039863741E+03  0.22873926262E+03  0.91465218108E+02 0.  0.
        -11    1    3    3    0    0  0.52451901643E+02  0.80153552675E+02  0.12931474789E+03  0.16092886011E+03  0.00000000000E+00 0. -1.
         11    1    3    3    0    0 -0.28853345475E+02  0.20920476074E+02  0.11794730134E+03  0.12321423521E+03  0.00000000000E+00 0.  1.
        -13    1    4    4    0    0 -0.89247496398E+02 -0.86249689492E+02  0.16360201939E+03  0.20535273385E+03  0.00000000000E+00 0. -1.
         13    1    4    4    0    0  0.81446216902E+01 -0.21687166926E+02 -0.32033819870E+01  0.23386528770E+02  0.00000000000E+00 0.  1.
         21    1    1    2  503  502  0.45146989213E+02 -0.12852921388E+02  0.32735929177E+03  0.33070765659E+03  0.00000000000E+00 0. -1.
          1    1    1    2  501    0  0.12357329327E+02  0.19715749057E+02 -0.14524688818E+01  0.23313601498E+02  0.00000000000E+00 0. -1.
<scales pt_clust_5="13000.00000" pt_clust_6="13000.00000" pt_clust_7="13000.00000" pt_clust_8="13000.00000" pt_clust_9="47.14599" pt_clust_10="23.26831"></scales>
<clustering>
<clus scale="   23.268">  2 10  1 -1</clus>
<clus scale="   47.146">  1  9  2 -1</clus>
<clus scale="   91.465">  7  8 -1 -1</clus>
<clus scale="   93.946">  5  6 -1 -1</clus>
<clus scale="  146.813">  2  7  1 -1</clus>
<clus scale="   23.268">  2  5  1 -1</clus>
</clustering>
</event>
<event>
10    2  0.3984345E-006  0.1246026E+03  0.7546771E-02  0.1238560E+00
         21   -1    0    0  501  502  0.00000000000E+00  0.00000000000E+00  0.42948124467E+02  0.42948124467E+02  0.00000000000E+00 0.  1.
          3   -1    0    0  503    0 -0.00000000000E+00 -0.00000000000E+00 -0.75647568540E+03  0.75647568540E+03  0.00000000000E+00 0. -1.
         23    2    1    2    0    0 -0.58347318262E+02 -0.62056044777E+02 -0.31878622828E+03  0.34413090059E+03  0.97703915764E+02 0.  0.
         23    2    1    2    0    0  0.70350155651E+02  0.24512809527E+02 -0.30741462784E+03  0.32845792221E+03  0.88491982824E+02 0.  0.
        -13    1    3    3    0    0 -0.14794809081E+02 -0.61142795293E+02 -0.27597320008E+03  0.28305217709E+03  0.00000000000E+00 0. -1.
         13    1    3    3    0    0 -0.43552509181E+02 -0.91324948404E+00 -0.42813028204E+02  0.61078723502E+02  0.00000000000E+00 0.  1.
        -13    1    4    4    0    0  0.60867883316E+02 -0.60788724562E+01 -0.27904924172E+03  0.28567521981E+03  0.00000000000E+00 0. -1.
         13    1    4    4    0    0  0.94822723347E+01  0.30591681984E+02 -0.28365386123E+02  0.42782702405E+02  0.00000000000E+00 0.  1.
         21    1    1    2  503  502  0.70523977276E+01  0.25520875510E+02 -0.98279025054E+02  0.10178319196E+03  0.00000000000E+00 0.  1.
          3    1    1    2  501    0 -0.19055235116E+02  0.12022359740E+02  0.10952320244E+02  0.25051795101E+02  0.00000000000E+00 0. -1.
<scales pt_clust_5="13000.00000" pt_clust_6="13000.00000" pt_clust_7="13000.00000" pt_clust_8="13000.00000" pt_clust_9="26.97735" pt_clust_10="22.53085"></scales>
<clustering>
<clus scale="   22.531">  1 10  2 -1</clus>
<clus scale="   26.977">  2  9  1 -1</clus>
<clus scale="   88.492">  7  8 -1 -1</clus>
<clus scale="   97.704">  5  6 -1 -1</clus>
<clus scale="  117.518">  1  7  2 -1</clus>
<clus scale="   22.531">  1  5  2 -1</clus>
</clustering>
</event>
<event>
10    2  0.3984345E-006  0.1408049E+03  0.7546771E-02  0.1228263E+00
          1   -1    0    0  503    0 -0.00000000000E+00  0.00000000000E+00  0.97173119308E+03  0.97173119308E+03  0.00000000000E+00 0. -1.
         21   -1    0    0  501  502  0.00000000000E+00 -0.00000000000E+00 -0.54500061327E+02  0.54500061327E+02  0.00000000000E+00 0.  1.
         23    2    1    2    0    0  0.39839217872E+02 -0.16603254204E+02  0.48713763327E+03  0.49752920540E+03  0.91484453036E+02 0.  0.
         23    2    1    2    0    0 -0.18299571479E+02  0.10801514634E+03  0.18762713665E+03  0.23509861514E+03  0.89806849843E+02 0.  0.
        -11    1    3    3    0    0 -0.62372559507E+01  0.32922639942E+02  0.16250582484E+03  0.16592452106E+03  0.00000000000E+00 0.  1.
         11    1    3    3    0    0  0.46076473822E+02 -0.49525894146E+02  0.32463180842E+03  0.33160468433E+03  0.00000000000E+00 0. -1.
        -13    1    4    4    0    0 -0.36854755285E+02  0.58213880860E+02  0.43493126408E+02  0.81478714746E+02  0.00000000000E+00 0.  1.
         13    1    4    4    0    0  0.18555183806E+02  0.49801265484E+02  0.14413401024E+03  0.15361990039E+03  0.00000000000E+00 0. -1.
         21    1    1    2  503  502 -0.15665555146E+02 -0.11265302350E+03  0.10634394403E+03  0.15570853462E+03  0.00000000000E+00 0.  1.
          1    1    1    2  501    0 -0.58740912469E+01  0.21241131359E+02  0.13612241780E+03  0.13789489924E+03  0.00000000000E+00 0. -1.
<scales pt_clust_5="13000.00000" pt_clust_6="13000.00000" pt_clust_7="13000.00000" pt_clust_8="13000.00000" pt_clust_9="108.44702" pt_clust_10="22.03840"></scales>
<clustering>
<clus scale="   22.038">  2 10  1 -1</clus>
<clus scale="   89.807">  7  8 -1 -1</clus>
<clus scale="   91.484">  5  6 -1 -1</clus>
<clus scale="  100.614">  1  5  2 -1</clus>
<clus scale="  108.447">  2  9  1 -1</clus>
<clus scale="   22.038">  2  5  1 -1</clus>
</clustering>
</event>
<event>
10    2  0.3984345E-006  0.1121549E+03  0.7546771E-02  0.1257357E+00
         21   -1    0    0  501  502  0.00000000000E+00  0.00000000000E+00  0.22769646061E+03  0.22769646061E+03  0.00000000000E+00 0. -1.
          1   -1    0    0  503    0 -0.00000000000E+00 -0.00000000000E+00 -0.62940288085E+03  0.62940288085E+03  0.00000000000E+00 0. -1.
         23    2    1    2    0    0  0.99886184902E+02 -0.23902005063E+02 -0.38555383323E+03  0.40879030582E+03  0.88933683364E+02 0.  0.
         23    2    1    2    0    0 -0.11337755045E+03 -0.34808351165E+02  0.91278812427E+02  0.17510778342E+03  0.90911077209E+02 0.  0.
        -11    1    4    4    0    0 -0.72459214454E+02  0.21752895589E+02  0.67411075784E+02  0.10133005163E+03  0.00000000000E+00 0. -1.
         11    1    4    4    0    0 -0.40918335995E+02 -0.56561246754E+02  0.23867736643E+02  0.73777731785E+02  0.00000000000E+00 0.  1.
        -13    1    3    3    0    0  0.58826312989E+02 -0.51719483818E+02 -0.16389517751E+03  0.18165095462E+03  0.00000000000E+00 0. -1.
         13    1    3    3    0    0  0.41059871913E+02  0.27817478755E+02 -0.22165865572E+03  0.22713935120E+03  0.00000000000E+00 0.  1.
         21    1    1    2  503  502 -0.50277844045E+02 -0.41000934258E+01 -0.16111595301E+03  0.16882838233E+03  0.00000000000E+00 0. -1.
          1    1    1    2  501    0  0.63769209592E+02  0.62810449654E+02  0.53684553567E+02  0.10437286989E+03  0.00000000000E+00 0. -1.
<scales pt_clust_5="13000.00000" pt_clust_6="13000.00000" pt_clust_7="13000.00000" pt_clust_8="13000.00000" pt_clust_9="50.44475" pt_clust_10="87.41402"></scales>
<clustering>
<clus scale="   50.445">  2  9  1 -1</clus>
<clus scale="   87.414">  1 10  2 -1</clus>
<clus scale="   88.934">  7  8 -1 -1</clus>
<clus scale="   90.911">  5  6 -1 -1</clus>
<clus scale="  110.558">  2  7  1 -1</clus>
<clus scale="   87.414">  1  5  2 -1</clus>
</clustering>
</event>
<event>
10    2  0.3984345E-006  0.1032231E+03  0.7546771E-02  0.1273759E+00
         21   -1    0    0  501  502  0.00000000000E+00  0.00000000000E+00  0.11789370616E+03  0.11789370616E+03  0.00000000000E+00 0.  1.
          2   -1    0    0  503    0 -0.00000000000E+00 -0.00000000000E+00 -0.63171577082E+03  0.63171577082E+03  0.00000000000E+00 0. -1.
         23    2    1    2    0    0  0.10840471219E+02 -0.39383522007E+02 -0.22786823828E+03  0.24953335050E+03  0.93136359034E+02 0.  0.
         23    2    1    2    0    0 -0.44386344662E+02 -0.26029030562E+02 -0.43192126515E+02  0.11466201111E+03  0.92920175277E+02 0.  0.
        -11    1    4    4    0    0 -0.20077499621E+02 -0.25885523138E+02 -0.70718821748E+02  0.77937911497E+02  0.00000000000E+00 0. -1.
         11    1    4    4    0    0 -0.24308845041E+02 -0.14350742382E+00  0.27526695233E+02  0.36724099609E+02  0.00000000000E+00 0.  1.
        -11    1    3    3    0    0 -0.18524667034E+02 -0.55670565606E+02 -0.19032868430E+03  0.19916672220E+03  0.00000000000E+00 0.  1.
         11    1    3    3    0    0  0.29365138253E+02  0.16287043599E+02 -0.37539553984E+02  0.50366628308E+02  0.00000000000E+00 0. -1.
         21    1    1    2  503  502  0.51748487365E+02  0.19930414973E+02 -0.30285066234E+03  0.30788577601E+03  0.00000000000E+00 0.  1.
          2    1    1    2  501    0 -0.18202613923E+02  0.45482137596E+02  0.60088962476E+02  0.77528339369E+02  0.00000000000E+00 0. -1.
<scales pt_clust_5="13000.00000" pt_clust_6="13000.00000" pt_clust_7="13000.00000" pt_clust_8="13000.00000" pt_clust_9="55.47794" pt_clust_10="48.98939"></scales>
<clustering>
<clus scale="   48.989">  1 10  2 -1</clus>
<clus scale="   55.478">  2  9  1 -1</clus>
<clus scale="   92.920">  5  6 -1 -1</clus>
<clus scale="   93.136">  7  8 -1 -1</clus>
<clus scale="  103.028">  1  5  2 -1</clus>
<clus scale="   48.989">  1  5  2 -1</clus>
</clustering>
</event>
<event>
10    2  0.3984345E-006  0.1634623E+03  0.7546771E-02  0.1210835E+00
          2   -1    0    0  503    0 -0.00000000000E+00  0.00000000000E+00  0.86488992096E+03  0.86488992096E+03  0.00000000000E+00 0. -1.
         21   -1    0    0  501  502  0.00000000000E+00 -0.00000000000E+00 -0.15564233938E+03  0.15564233938E+03  0.00000000000E+00 0. -1.
         23    2    1    2    0    0  0.12499010147E+02  0.15950651535E+02  0.23245143151E+03  0.25028730402E+03  0.90550637802E+02 0.  0.
         23    2    1    2    0    0 -0.51478868009E+02 -0.13577346295E+03  0.47169399136E+03  0.50192492489E+03  0.91372324306E+02 0.  0.
        -11    1    3    3    0    0 -0.23311197611E+02  0.42252887489E+02  0.11515278295E+03  0.12485544384E+03  0.00000000000E+00 0.  1.
         11    1    3    3    0    0  0.35810207758E+02 -0.26302235954E+02  0.11729864855E+03  0.12543186018E+03  0.00000000000E+00 0. -1.
        -11    1    4    4    0    0 -0.20575870547E+02 -0.48958942630E+02  0.32043664043E+03  0.32480761236E+03  0.00000000000E+00 0.  1.
         11    1    4    4    0    0 -0.30902997462E+02 -0.86814520318E+02  0.15125735093E+03  0.17711731254E+03  0.00000000000E+00 0. -1.
         21    1    1    2  503  502 -0.43863908706E+02  0.12902676000E+02  0.95330470078E+02  0.10572804765E+03  0.00000000000E+00 0.  1.
          2    1    1    2  501    0  0.82843766568E+02  0.10692013541E+03 -0.90228311363E+02  0.16259198377E+03  0.00000000000E+00 0. -1.
<scales pt_clust_5="13000.00000" pt_clust_6="13000.00000" pt_clust_7="13000.00000" pt_clust_8="13000.00000" pt_clust_9="45.72222" pt_clust_10="135.53977"></scales>
<clustering>
<clus scale="   45.722">  1  9  2 -1</clus>
<clus scale="   90.551">  5  6 -1 -1</clus>
<clus scale="   91.372">  7  8 -1 -1</clus>
<clus scale="   92.748">  1  5  2 -1</clus>
<clus scale="  135.540">  2 10  1 -1</clus>
<clus scale="  135.540">  2  5  1 -1</clus>
</clustering>
</event>
<event>
10    2  0.3984345E-006  0.9989546E+02  0.7546771E-02  0.1282315E+00
         21   -1    0    0  501  502  0.00000000000E+00  0.00000000000E+00  0.85033081344E+02  0.85033081344E+02  0.00000000000E+00 0.  1.
          2   -1    0    0  503    0 -0.00000000000E+00 -0.00000000000E+00 -0.42956265820E+03  0.42956265820E+03  0.00000000000E+00 0. -1.
         23    2    1    2    0    0 -0.25328834017E+02  0.52406380557E+02 -0.29866177227E+03  0.31675479065E+03  0.88015706713E+02 0.  0.
         23    2    1    2    0    0  0.23343196697E+02 -0.33049758721E+02 -0.12836333262E+02  0.10103396042E+03  0.91683686248E+02 0.  0.
        -11    1    3    3    0    0  0.83494092598E+01 -0.20980751130E+02 -0.41920538205E+02  0.47615502479E+02  0.00000000000E+00 0.  1.
         11    1    3    3    0    0 -0.33678243277E+02  0.73387131687E+02 -0.25674123407E+03  0.26913928817E+03  0.00000000000E+00 0. -1.
        -11    1    4    4    0    0 -0.20351177786E+02 -0.29162445304E+02 -0.36694343751E+02  0.51098860229E+02  0.00000000000E+00 0. -1.
         11    1    4    4    0    0  0.43694374483E+02 -0.38873134163E+01  0.23858010489E+02  0.49935100196E+02  0.00000000000E+00 0.  1.
         21    1    1    2  503  502  0.24053345918E+02 -0.15785116315E+02 -0.57112149209E+02  0.63949440453E+02  0.00000000000E+00 0.  1.
          2    1    1    2  501    0 -0.22067708598E+02 -0.35715055222E+01  0.24080677883E+02  0.32857548019E+02  0.00000000000E+00 0. -1.
<scales pt_clust_5="13000.00000" pt_clust_6="13000.00000" pt_clust_7="13000.00000" pt_clust_8="13000.00000" pt_clust_9="27.78870" pt_clust_10="22.35485"></scales>
<clustering>
<clus scale="   22.355">  1 10  2 -1</clus>
<clus scale="   27.789">  2  9  1 -1</clus>
<clus scale="   88.016">  5  6 -1 -1</clus>
<clus scale="   91.684">  7  8 -1 -1</clus>
<clus scale="   96.540">  2  5  1 -1</clus>
<clus scale="   22.355">  1  5  2 -1</clus>
</clustering>
</event>
<event>
10    2  0.3984345E-006  0.1004417E+03  0.7546771E-02  0.1281192E+00
         -2   -1    0    0    0  501 -0.00000000000E+00  0.00000000000E+00  0.19553786546E+03  0.19553786546E+03  0.00000000000E+00 0.  1.
         21   -1    0    0  503  502  0.00000000000E+00 -0.00000000000E+00 -0.42141270579E+03  0.42141270579E+03  0.00000000000E+00 0.  1.
         23    2    1    2    0    0  0.15648650158E+02 -0.32039088608E+02  0.61303871600E+02  0.11351794985E+03  0.88638461258E+02 0.  0.
         23    2    1    2    0    0  0.20006826051E+02  0.54431602402E+02 -0.15394495035E+01  0.10907810000E+03  0.92372017230E+02 0.  0.
        -11    1    3    3    0    0 -0.25253126586E+01  0.23234638144E+02  0.48650526437E+02  0.53973135320E+02  0.00000000000E+00 0. -1.
         11    1    3    3    0    0  0.18173962817E+02 -0.55273726751E+02  0.12653345163E+02  0.59544814529E+02  0.00000000000E+00 0.  1.
        -13    1    4    4    0    0  0.35386385975E+02  0.47015933782E+01  0.31345982263E+02  0.47506545830E+02  0.00000000000E+00 0.  1.
         13    1    4    4    0    0 -0.15379559924E+02  0.49730009024E+02 -0.32885431766E+02  0.61571554174E+02  0.00000000000E+00 0. -1.
         21    1    1    2  503  501 -0.59540742165E+02 -0.65490970307E+02  0.14940292095E+02  0.89762907135E+02  0.00000000000E+00 0.  1.
         -2    1    1    2    0  502  0.23885265955E+02  0.43098456513E+02 -0.30057955452E+03  0.30459161426E+03  0.00000000000E+00 0.  1.
<scales pt_clust_5="13000.00000" pt_clust_6="13000.00000" pt_clust_7="13000.00000" pt_clust_8="13000.00000" pt_clust_9="73.49861" pt_clust_10="49.27457"></scales>
<clustering>
<clus scale="   49.275">  2 10  1 -1</clus>
<clus scale="   73.499">  2  9  1 -1</clus>
<clus scale="   88.638">  5  6 -1 -1</clus>
<clus scale="   92.372">  7  8 -1 -1</clus>
<clus scale="   97.019">  1  5  2 -1</clus>
<clus scale="   49.275">  2  5  1 -1</clus>
</clustering>
</event>
<event>
10    2  0.3984345E-006  0.1474862E+03  0.7546771E-02  0.1203985E+00
         21   -1    0    0  501  502  0.00000000000E+00  0.00000000000E+00  0.88486963609E+03  0.88486963609E+03  0.00000000000E+00 0.  1.
          3   -1    0    0  503    0 -0.00000000000E+00 -0.00000000000E+00 -0.40404239420E+02  0.40404239420E+02  0.00000000000E+00 0. -1.
         23    2    1    2    0    0 -0.86683464797E+02 -0.86601633445E+02  0.20804318811E+03  0.25816242432E+03  0.91389294925E+02 0.  0.
         23    2    1    2    0    0  0.89900361570E+02  0.49914668069E+02  0.52512461414E+03  0.54251215954E+03  0.89386988832E+02 0.  0.
        -11    1    3    3    0    0 -0.15337869917E+02  0.13921479688E+02  0.61413706888E+01  0.21604959714E+02  0.00000000000E+00 0. -1.
         11    1    3    3    0    0 -0.71345594879E+02 -0.10052311313E+03  0.20190181743E+03  0.23655746461E+03  0.00000000000E+00 0.  1.
        -13    1    4    4    0    0  0.40686369030E+02 -0.23364822335E+02  0.21564411855E+03  0.22068910579E+03  0.00000000000E+00 0.  1.
         13    1    4    4    0    0  0.49213992541E+02  0.73279490404E+02  0.30948049559E+03  0.32182305375E+03  0.00000000000E+00 0. -1.
         21    1    1    2  503  502 -0.19286687073E+02  0.22464095748E+02  0.37697769814E+02  0.47934682068E+02  0.00000000000E+00 0.  1.
          3    1    1    2  501    0  0.16069790299E+02  0.14222869628E+02  0.73599824604E+02  0.76664609583E+02  0.00000000000E+00 0. -1.
<scales pt_clust_5="13000.00000" pt_clust_6="13000.00000" pt_clust_7="13000.00000" pt_clust_8="13000.00000" pt_clust_9="29.64644" pt_clust_10="21.45992"></scales>
<clustering>
<clus scale="   21.460">  1 10  2 -1</clus>
<clus scale="   29.646">  2  9  1 -1</clus>
<clus scale="   89.387">  7  8 -1 -1</clus>
<clus scale="   91.389">  5  6 -1 -1</clus>
<clus scale="  146.254">  1  7  2 -1</clus>
<clus scale="   21.460">  1  5  2 -1</clus>
</clustering>
</event>
<event>
10    2  0.3984345E-006  0.9551722E+02  0.7546771E-02  0.1290877E+00
         21   -1    0    0  501  502  0.00000000000E+00  0.00000000000E+00  0.14310553063E+03  0.14310553063E+03  0.00000000000E+00 0. -1.
          3   -1    0    0  503    0 -0.00000000000E+00 -0.00000000000E+00 -0.20078329497E+03  0.20078329497E+03  0.00000000000E+00 0. -1.
         23    2    1    2    0    0 -0.32174329781E+01  0.36636716154E+01 -0.46123505008E+02  0.10168218290E+03  0.90488199454E+02 0.  0.
         23    2    1    2    0    0  0.57412314261E+00 -0.41887234652E+02  0.29332973762E+01  0.10119929540E+03  0.92075094955E+02 0.  0.
        -11    1    4    4    0    0  0.30848766412E+02 -0.45920799729E+02 -0.24165472922E+02  0.60368338709E+02  0.00000000000E+00 0.  1.
         11    1    4    4    0    0 -0.30274643269E+02  0.40335650776E+01  0.27098770298E+02  0.40830956687E+02  0.00000000000E+00 0. -1.
        -11    1    3    3    0    0  0.38706790145E+02  0.16338622018E+02 -0.38967713667E+02  0.57303131514E+02  0.00000000000E+00 0.  1.
         11    1    3    3    0    0 -0.41924223124E+02 -0.12674950403E+02 -0.71557913412E+01  0.44379051386E+02  0.00000000000E+00 0. -1.
         21    1    1    2  503  502 -0.18024617797E+02  0.29444218862E+02 -0.71682224795E+02  0.79562492562E+02  0.00000000000E+00 0. -1.
          3    1    1    2  501    0  0.20667927633E+02  0.87793441741E+01  0.57194668082E+02  0.61444854738E+02  0.00000000000E+00 0. -1.
<scales pt_clust_5="13000.00000" pt_clust_6="13000.00000" pt_clust_7="13000.00000" pt_clust_8="13000.00000" pt_clust_9="34.38370" pt_clust_10="22.45529"></scales>
<clustering>
<clus scale="   22.455">  1 10  2 -1</clus>
<clus scale="   34.384">  2  9  1 -1</clus>
<clus scale="   90.488">  7  8 -1 -1</clus>
<clus scale="   92.075">  5  6 -1 -1</clus>
<clus scale="   93.988">  2  7  1 -1</clus>
<clus scale="   22.455">  1  5  2 -1</clus>
</clustering>
</event>
<event>
10    2  0.6022886E-006  0.1017361E+03  0.7546771E-02  0.1277884E+00
         -2   -1    0    0    0  501 -0.00000000000E+00  0.00000000000E+00  0.31940448481E+03  0.31940448481E+03  0.00000000000E+00 0.  1.
         21   -1    0    0  503  502  0.00000000000E+00 -0.00000000000E+00 -0.42085481553E+03  0.42085481553E+03  0.00000000000E+00 0. -1.
         23    2    1    2    0    0 -0.34029620858E+02  0.10387733601E+02  0.15517207561E+03  0.18061834469E+03  0.85315258206E+02 0.  0.
         23    2    1    2    0    0  0.84392996653E+01 -0.22843651247E+02 -0.21493047769E+03  0.23351631464E+03  0.87986958038E+02 0.  0.
        -11    1    3    3    0    0 -0.41720267485E+02  0.42088264639E+02  0.10927427012E+03  0.12430956861E+03  0.00000000000E+00 0.  1.
         11    1    3    3    0    0  0.76906466266E+01 -0.31700531038E+02  0.45897805493E+02  0.56308776072E+02  0.00000000000E+00 0. -1.
        -13    1    4    4    0    0 -0.25796918059E+02 -0.43563281663E+02 -0.10606692986E+03  0.11753056667E+03  0.00000000000E+00 0. -1.
         13    1    4    4    0    0  0.34236217725E+02  0.20719630417E+02 -0.10886354782E+03  0.11598574797E+03  0.00000000000E+00 0.  1.
         21    1    1    2  503  501 -0.21968962725E+02 -0.12379446940E+02  0.13712889145E+03  0.13942818546E+03  0.00000000000E+00 0.  1.
         -2    1    1    2    0  502  0.47559283918E+02  0.24835364585E+02 -0.17882082009E+03  0.18669645556E+03  0.00000000000E+00 0.  1.
<scales pt_clust_5="13000.00000" pt_clust_6="13000.00000" pt_clust_7="13000.00000" pt_clust_8="13000.00000" pt_clust_9="25.21678" pt_clust_10="53.10539"></scales>
<clustering>
<clus scale="   25.217">  1  9  2 -1</clus>
<clus scale="   53.105">  2 10  1 -1</clus>
<clus scale="   85.315">  5  6 -1 -1</clus>
<clus scale="   87.987">  7  8 -1 -1</clus>
<clus scale="   99.435">  1  5  2 -1</clus>
<clus scale="   53.105">  2  5  1 -1</clus>
</clustering>
</event>
<event>
10    2  0.3984345E-006  0.1481897E+03  0.7546771E-02  0.1202761E+00
         21   -1    0    0  503  502  0.00000000000E+00  0.00000000000E+00  0.14564714785E+03  0.14564714785E+03  0.00000000000E+00 0.  1.
          2   -1    0    0  502    0 -0.00000000000E+00 -0.00000000000E+00 -0.78891931627E+03  0.78891931627E+03  0.00000000000E+00 0. -1.
         23    2    1    2    0    0  0.91820338889E+02 -0.69345852207E+02 -0.65172115059E+03  0.66794682512E+03  0.90402882741E+02 0.  0.
         23    2    1    2    0    0 -0.13864911902E+03  0.41554681976E+02 -0.41700617874E+02  0.17555194778E+03  0.90161937864E+02 0.  0.
        -11    1    3    3    0    0 -0.14953858771E+02 -0.16029542382E+02 -0.51433426549E+02  0.55910298583E+02  0.00000000000E+00 0.  1.
         11    1    3    3    0    0  0.10677419766E+03 -0.53316309826E+02 -0.60028772404E+03  0.61203652654E+03  0.00000000000E+00 0. -1.
        -13    1    4    4    0    0 -0.97479901671E+02  0.20295870820E+02  0.16744654517E+02  0.10096849537E+03  0.00000000000E+00 0.  1.
         13    1    4    4    0    0 -0.41169217349E+02  0.21258811156E+02 -0.58445272391E+02  0.74583452412E+02  0.00000000000E+00 0. -1.
         21    1    1    2  503  501  0.23604140128E+02 -0.11624215152E+02  0.33011372691E+02  0.42214079832E+02  0.00000000000E+00 0. -1.
          2    1    1    2  501    0  0.23224640003E+02  0.39415385383E+02  0.17138227361E+02  0.48853611383E+02  0.00000000000E+00 0. -1.
<scales pt_clust_5="13000.00000" pt_clust_6="13000.00000" pt_clust_7="13000.00000" pt_clust_8="13000.00000" pt_clust_9="26.31117" pt_clust_10="47.03748"></scales>
<clustering>
<clus scale="   26.311">  1  9  2 -1</clus>
<clus scale="   47.037">  1 10  2 -1</clus>
<clus scale="   90.162">  7  8 -1 -1</clus>
<clus scale="   90.403">  5  6 -1 -1</clus>
<clus scale="  148.043">  1  7  2 -1</clus>
<clus scale="   26.311">  1  5  2 -1</clus>
</clustering>
</event>
<event>
10    2  0.3984345E-006  0.9814817E+02  0.7546771E-02  0.1286661E+00
         -4   -1    0    0    0  501 -0.00000000000E+00  0.00000000000E+00  0.18283475384E+03  0.18283475384E+03  0.00000000000E+00 0. -1.
         21   -1    0    0  503  502  0.00000000000E+00 -0.00000000000E+00 -0.20384248582E+03  0.20384248582E+03  0.00000000000E+00 0.  1.
         23    2    1    2    0    0 -0.19492764234E+02 -0.33793465399E+02 -0.35596976138E+02  0.10603741106E+03  0.91950104254E+02 0.  0.
         23    2    1    2    0    0 -0.34772772649E+01  0.53093842838E+01 -0.48597767418E+02  0.10815724896E+03  0.96415592551E+02 0.  0.
        -11    1    4    4    0    0 -0.49343368165E+02 -0.45867992204E+01 -0.21983651014E+02  0.54213352791E+02  0.00000000000E+00 0.  1.
         11    1    4    4    0    0  0.45866090900E+02  0.98961835041E+01 -0.26614116404E+02  0.53943896173E+02  0.00000000000E+00 0. -1.
        -13    1    3    3    0    0 -0.14771386616E+02 -0.64033634584E+02 -0.10694261258E+02  0.66579782550E+02  0.00000000000E+00 0. -1.
         13    1    3    3    0    0 -0.47213776183E+01  0.30240169185E+02 -0.24902714880E+02  0.39457628507E+02  0.00000000000E+00 0.  1.
         21    1    1    2  503  501  0.13466076192E+02  0.47788554221E+02  0.11015128596E+03  0.12082378458E+03  0.00000000000E+00 0. -1.
         -4    1    1    2    0  502  0.95039653067E+01 -0.19304473106E+02 -0.46964274377E+02  0.51658795052E+02  0.00000000000E+00 0. -1.
<scales pt_clust_5="13000.00000" pt_clust_6="13000.00000" pt_clust_7="13000.00000" pt_clust_8="13000.00000" pt_clust_9="49.09947" pt_clust_10="21.51716"></scales>
<clustering>
<clus scale="   21.517">  2 10  1 -1</clus>
<clus scale="   49.099">  1  9  2 -1</clus>
<clus scale="   91.950">  7  8 -1 -1</clus>
<clus scale="   93.765">  1  7  2 -1</clus>
<clus scale="   96.416">  5  6 -1 -1</clus>
<clus scale="   21.517">  2  5  1 -1</clus>
</clustering>
</event>
<event>
10    2  0.7255137E-006  0.5400484E+03  0.7546771E-02  0.1003882E+00
          4   -1    0    0  503    0 -0.00000000000E+00  0.00000000000E+00  0.84431113118E+03  0.84431113118E+03  0.00000000000E+00 0. -1.
         21   -1    0    0  501  502  0.00000000000E+00 -0.00000000000E+00 -0.58228777813E+03  0.58228777813E+03  0.00000000000E+00 0. -1.
         23    2    1    2    0    0 -0.54832119765E+03 -0.12667497292E+03  0.32937865988E+03  0.65830113821E+03  0.90373682158E+02 0.  0.
         23    2    1    2    0    0  0.53477823927E+03  0.15340962278E+03 -0.13977913044E+03  0.58162281218E+03  0.96044847757E+02 0.  0.
        -11    1    4    4    0    0  0.43481900367E+03  0.15671261209E+03 -0.94136507800E+02  0.47168643275E+03  0.00000000000E+00 0. -1.
         11    1    4    4    0    0  0.99959235603E+02 -0.33029893071E+01 -0.45642622643E+02  0.10993637943E+03  0.00000000000E+00 0.  1.
        -11    1    3    3    0    0 -0.22462596000E+02 -0.95234474447E+01  0.39733489349E+02  0.46626327822E+02  0.00000000000E+00 0.  1.
         11    1    3    3    0    0 -0.52585860165E+03 -0.11715152547E+03  0.28964517053E+03  0.61167481039E+03  0.00000000000E+00 0. -1.
         21    1    1    2  503  502  0.69806855219E+02  0.28457424532E+02  0.76960031874E+02  0.10772960852E+03  0.00000000000E+00 0.  1.
          4    1    1    2  501    0 -0.56263896836E+02 -0.55192074391E+02 -0.45362082586E+01  0.78945350390E+02  0.00000000000E+00 0. -1.
<scales pt_clust_5="13000.00000" pt_clust_6="13000.00000" pt_clust_7="13000.00000" pt_clust_8="13000.00000" pt_clust_9="75.38449" pt_clust_10="75.37664"></scales>
<clustering>
<clus scale="   75.384">  1  9  2 -1</clus>
<clus scale="   75.377">  2 10  1 -1</clus>
<clus scale="   90.374">  7  8 -1 -1</clus>
<clus scale="   96.045">  5  6 -1 -1</clus>
<clus scale="  539.069">  1  7  2 -1</clus>
<clus scale="   75.377">  2  5  1 -1</clus>
</clustering>
</event>
<event>
10    2  0.3984345E-006  0.1136499E+03  0.7546771E-02  0.1254131E+00
          2   -1    0    0  503    0 -0.00000000000E+00  0.00000000000E+00  0.19167983196E+03  0.19167983196E+03  0.00000000000E+00 0. -1.
         21   -1    0    0  501  502  0.00000000000E+00 -0.00000000000E+00 -0.33936769618E+03  0.33936769618E+03  0.00000000000E+00 0. -1.
         23    2    1    2    0    0  0.74047992498E+02  0.67585212868E+02 -0.12305513127E+02  0.13655890806E+03  0.91902358656E+02 0.  0.
         23    2    1    2    0    0 -0.75798698344E+02  0.65095722174E+01 -0.22830961772E+03  0.25742960968E+03  0.91416110133E+02 0.  0.
        -13    1    3    3    0    0  0.10073597154E+02  0.17422283761E+02 -0.44719424807E+02  0.49039170937E+02  0.00000000000E+00 0.  1.
         13    1    3    3    0    0  0.63974395344E+02  0.50162929107E+02  0.32413911680E+02  0.87519737126E+02  0.00000000000E+00 0. -1.
        -13    1    4    4    0    0 -0.85422239047E+02 -0.15622546136E+02 -0.20965081903E+03  0.22692397139E+03  0.00000000000E+00 0. -1.
         13    1    4    4    0    0  0.96235407030E+01  0.22132118354E+02 -0.18658798691E+02  0.30505638284E+02  0.00000000000E+00 0.  1.
         21    1    1    2  503  502 -0.18932840283E+02 -0.76058925238E+02  0.82557767643E+02  0.11383847130E+03  0.00000000000E+00 0. -1.
          2    1    1    2  501    0  0.20683546129E+02  0.19641401529E+01  0.10369498987E+02  0.23220539103E+02  0.00000000000E+00 0. -1.
<scales pt_clust_5="13000.00000" pt_clust_6="13000.00000" pt_clust_7="13000.00000" pt_clust_8="13000.00000" pt_clust_9="78.06112" pt_clust_10="20.77661"></scales>
<clustering>
<clus scale="   20.777">  2 10  1 -1</clus>
<clus scale="   78.061">  1  9  2 -1</clus>
<clus scale="   91.416">  7  8 -1 -1</clus>
<clus scale="   91.902">  5  6 -1 -1</clus>
<clus scale="  113.257">  2  7  1 -1</clus>
<clus scale="   20.777">  2  5  1 -1</clus>
</clustering>
</event>
<event>
10    2  0.3984345E-006  0.1875993E+03  0.7546771E-02  0.1180121E+00
         21   -1    0    0  503  502  0.00000000000E+00  0.00000000000E+00  0.44948035600E+03  0.44948035600E+03  0.00000000000E+00 0.  1.
         -2   -1    0    0    0  501 -0.00000000000E+00 -0.00000000000E+00 -0.51952892304E+03  0.51952892304E+03  0.00000000000E+00 0.  1.
         23    2    1    2    0    0  0.71759026763E+02 -0.36178627996E+02  0.21907059572E+03  0.25037268854E+03  0.90754097488E+02 0.  0.
         23    2    1    2    0    0 -0.14028503668E+03  0.13339091656E+03 -0.36465662539E+03  0.42099772768E+03  0.82411189402E+02 0.  0.
        -11    1    4    4    0    0 -0.86799631827E+02  0.99518272025E+02 -0.16380499309E+03  0.21040470126E+03  0.00000000000E+00 0. -1.
         11    1    4    4    0    0 -0.53485404852E+02  0.33872644533E+02 -0.20085163230E+03  0.21059302643E+03  0.00000000000E+00 0.  1.
        -13    1    3    3    0    0  0.84669516174E+02 -0.20453910883E+01  0.15037236305E+03  0.17258319201E+03  0.00000000000E+00 0.  1.
         13    1    3    3    0    0 -0.12910489411E+02 -0.34133236908E+02  0.68698232674E+02  0.77789496535E+02  0.00000000000E+00 0. -1.
         21    1    1    2  503  501 -0.32603362018E+02  0.34770312323E+02 -0.64535193705E+02  0.80229327932E+02  0.00000000000E+00 0. -1.
         -2    1    1    2    0  502  0.10112937193E+03 -0.13198260088E+03  0.14007265633E+03  0.21740953488E+03  0.00000000000E+00 0.  1.
<scales pt_clust_5="13000.00000" pt_clust_6="13000.00000" pt_clust_7="13000.00000" pt_clust_8="13000.00000" pt_clust_9="47.66502" pt_clust_10="168.52867"></scales>
<clustering>
<clus scale="   47.665">  2  9  1 -1</clus>
<clus scale="   82.411">  5  6 -1 -1</clus>
<clus scale="   90.754">  7  8 -1 -1</clus>
<clus scale="  120.189">  2  7  1 -1</clus>
<clus scale="  168.529">  1 10  2 -1</clus>
<clus scale="  168.529">  1  5  2 -1</clus>
</clustering>
</event>
<event>
10    2  0.3984345E-006  0.1042681E+03  0.7546771E-02  0.1272441E+00
         21   -1    0    0  501  502  0.00000000000E+00  0.00000000000E+00  0.10510279690E+03  0.10510279690E+03  0.00000000000E+00 0. -1.
          2   -1    0    0  503    0 -0.00000000000E+00 -0.00000000000E+00 -0.55756075163E+03  0.55756075163E+03  0.00000000000E+00 0. -1.
         23    2    1    2    0    0  0.16313276270E+02  0.42934936802E+02 -0.34088800620E+03  0.35615120102E+03  0.92355364972E+02 0.  0.
         23    2    1    2    0    0 -0.53533135682E+02 -0.32126499554E+02 -0.16040462899E+03  0.19441548222E+03  0.90387090531E+02 0.  0.
        -11    1    3    3    0    0  0.14185322259E+02  0.71963030429E+02 -0.22445957245E+03  0.23613979076E+03  0.00000000000E+00 0.  1.
         11    1    3    3    0    0  0.21279540110E+01 -0.29028093627E+02 -0.11642843375E+03  0.12001141026E+03  0.00000000000E+00 0. -1.
        -11    1    4    4    0    0  0.10596124709E+02 -0.38410112290E+02 -0.33368929481E+02  0.51972108286E+02  0.00000000000E+00 0. -1.
         11    1    4    4    0    0 -0.64129260390E+02  0.62836127356E+01 -0.12703569951E+03  0.14244337393E+03  0.00000000000E+00 0.  1.
         21    1    1    2  503  502 -0.24778072150E+02 -0.12189404582E+02 -0.71784234164E+01  0.28531810428E+02  0.00000000000E+00 0. -1.
          2    1    1    2  501    0  0.61997931561E+02  0.13809673349E+01  0.56013103876E+02  0.83565054864E+02  0.00000000000E+00 0. -1.
<scales pt_clust_5="13000.00000" pt_clust_6="13000.00000" pt_clust_7="13000.00000" pt_clust_8="13000.00000" pt_clust_9="27.61403" pt_clust_10="44.34578"></scales>
<clustering>
<clus scale="   27.614">  1  9  2 -1</clus>
<clus scale="   44.346">  1 10  2 -1</clus>
<clus scale="   90.387">  7  8 -1 -1</clus>
<clus scale="   92.355">  5  6 -1 -1</clus>
<clus scale="  102.529">  1  7  2 -1</clus>
<clus scale="   27.614">  1  5  2 -1</clus>
</clustering>
</event>
<event>
10    2  0.3984345E-006  0.2766310E+03  0.7546771E-02  0.1097606E+00
          1   -1    0    0  503    0 -0.00000000000E+00  0.00000000000E+00  0.42781532835E+03  0.42781532835E+03  0.00000000000E+00 0. -1.
         21   -1    0    0  501  502  0.00000000000E+00 -0.00000000000E+00 -0.69405937059E+03  0.69405937059E+03  0.00000000000E+00 0.  1.
         23    2    1    2    0    0  0.19706135763E+03 -0.15833410865E+03  0.25655906899E+03  0.37148002688E+03  0.90950458226E+02 0.  0.
         23    2    1    2    0    0 -0.21901842446E+03  0.24410022044E+03 -0.34552984640E+03  0.48525043151E+03  0.92320737926E+02 0.  0.
        -11    1    3    3    0    0  0.47961430154E+02 -0.49702779399E+02  0.13172629459E+03  0.14873628255E+03  0.00000000000E+00 0.  1.
         11    1    3    3    0    0  0.14909992748E+03 -0.10863132925E+03  0.12483277441E+03  0.22274374432E+03  0.00000000000E+00 0. -1.
        -13    1    4    4    0    0  0.70717752206E+01  0.24506433164E+02 -0.24688135849E+02  0.35497596016E+02  0.00000000000E+00 0. -1.
         13    1    4    4    0    0 -0.22609019968E+03  0.21959378728E+03 -0.32084171055E+03  0.44975283549E+03  0.00000000000E+00 0.  1.
         21    1    1    2  503  502  0.24244940976E+02  0.39260022885E+02  0.24392973140E+01  0.46207323351E+02  0.00000000000E+00 0. -1.
          1    1    1    2  501    0 -0.22878741451E+01 -0.12502613468E+03 -0.17971256215E+03  0.21893691720E+03  0.00000000000E+00 0. -1.
<scales pt_clust_5="13000.00000" pt_clust_6="13000.00000" pt_clust_7="13000.00000" pt_clust_8="13000.00000" pt_clust_9="46.14289" pt_clust_10="123.12286"></scales>
<clustering>
<clus scale="   46.143">  1  9  2 -1</clus>
<clus scale="   90.950">  5  6 -1 -1</clus>
<clus scale="   92.321">  7  8 -1 -1</clus>
<clus scale="  123.123">  2 10  1 -1</clus>
<clus scale="  276.177">  1  5  2 -1</clus>
<clus scale="  123.123">  2  5  1 -1</clus>
</clustering>
</event>
<event>
10    2  0.3984345E-006  0.2819334E+03  0.7546771E-02  0.1118911E+00
          2   -1    0    0  503    0 -0.00000000000E+00  0.00000000000E+00  0.19871547224E+03  0.19871547224E+03  0.00000000000E+00 0. -1.
         21   -1    0    0  501  502  0.00000000000E+00 -0.00000000000E+00 -0.90864631839E+03  0.90864631839E+03  0.00000000000E+00 0.  1.
         23    2    1    2    0    0  0.90946882639E+02 -0.75351682445E+02 -0.19883524669E+03  0.24903039419E+03  0.92365959071E+02 0.  0.
         23    2    1    2    0    0 -0.69720619059E+02  0.30231914111E+03 -0.47772231791E+03  0.57816489433E+03  0.98985878825E+02 0.  0.
        -11    1    3    3    0    0  0.28992104315E+02 -0.81518932546E+02 -0.13059317779E+03  0.15665393886E+03  0.00000000000E+00 0.  1.
         11    1    3    3    0    0  0.61954778324E+02  0.61672501011E+01 -0.68242068897E+02  0.92376455325E+02  0.00000000000E+00 0. -1.
        -13    1    4    4    0    0 -0.91653880505E+02  0.26571558045E+03 -0.43400515007E+03  0.51707414729E+03  0.00000000000E+00 0. -1.
         13    1    4    4    0    0  0.21933261446E+02  0.36603560658E+02 -0.43717167835E+02  0.61090747041E+02  0.00000000000E+00 0.  1.
         21    1    1    2  503  502 -0.41011999005E+01 -0.20769949572E+02  0.52147752798E+02  0.56281424713E+02  0.00000000000E+00 0. -1.
          2    1    1    2  501    0 -0.17125063679E+02 -0.20619750909E+03 -0.85521034361E+02  0.22388507739E+03  0.00000000000E+00 0. -1.
<scales pt_clust_5="13000.00000" pt_clust_6="13000.00000" pt_clust_7="13000.00000" pt_clust_8="13000.00000" pt_clust_9="21.17099" pt_clust_10="263.98545"></scales>
<clustering>
<clus scale="   21.171">  1  9  2 -1</clus>
<clus scale="   92.366">  5  6 -1 -1</clus>
<clus scale="   98.986">  7  8 -1 -1</clus>
<clus scale="  151.355">  1  5  2 -1</clus>
<clus scale="  263.985">  2 10  1 -1</clus>
<clus scale="  263.985">  2  5  1 -1</clus>
</clustering>
</event>
<event>
10    2  0.4744103E-006  0.2016743E+03  0.7546771E-02  0.1148670E+00
         21   -1    0    0  501  502  0.00000000000E+00  0.00000000000E+00  0.26942879371E+03  0.26942879371E+03  0.00000000000E+00 0. -1.
          1   -1    0    0  503    0 -0.00000000000E+00 -0.00000000000E+00 -0.85923420565E+03  0.85923420565E+03  0.00000000000E+00 0. -1.
         23    2    1    2    0    0 -0.16659935530E+03 -0.10568526700E+03 -0.76198264127E+03  0.79226379524E+03  0.90220035559E+02 0.  0.
         23    2    1    2    0    0  0.96736726847E+02  0.29344306142E+02  0.11826451090E+03  0.17805012340E+03  0.86580998368E+02 0.  0.
        -11    1    3    3    0    0 -0.16425924719E+03 -0.66874206316E+02 -0.59870168804E+03  0.62441730519E+03  0.00000000000E+00 0. -1.
         11    1    3    3    0    0 -0.23401081086E+01 -0.38811060680E+02 -0.16328095323E+03  0.16784649005E+03  0.00000000000E+00 0.  1.
        -13    1    4    4    0    0  0.46670902156E+02 -0.25491045728E+02  0.24790792847E+02  0.58673247144E+02  0.00000000000E+00 0.  1.
         13    1    4    4    0    0  0.50065824690E+02  0.54835351870E+02  0.93473718057E+02  0.11937687625E+03  0.00000000000E+00 0. -1.
         21    1    1    2  503  502 -0.33439740705E+01  0.21763868523E+02 -0.28041051071E+02  0.35653172100E+02  0.00000000000E+00 0. -1.
          1    1    1    2  501    0  0.73206602521E+02  0.54577092331E+02  0.81953769487E+02  0.12269590862E+03  0.00000000000E+00 0. -1.
<scales pt_clust_5="13000.00000" pt_clust_6="13000.00000" pt_clust_7="13000.00000" pt_clust_8="13000.00000" pt_clust_9="22.01927" pt_clust_10="91.56743"></scales>
<clustering>
<clus scale="   22.019">  2  9  1 -1</clus>
<clus scale="   86.581">  7  8 -1 -1</clus>
<clus scale="   90.220">  5  6 -1 -1</clus>
<clus scale="   91.567">  1 10  2 -1</clus>
<clus scale="  200.073">  1  7  2 -1</clus>
<clus scale="   91.567">  1  5  2 -1</clus>
</clustering>
</event>
<event>
10    2  0.3984345E-006  0.9839082E+02  0.7546771E-02  0.1284441E+00
         21   -1    0    0  501  502  0.00000000000E+00  0.00000000000E+00  0.49406175464E+02  0.49406175464E+02  0.00000000000E+00 0.  1.
          1   -1    0    0  503    0 -0.00000000000E+00 -0.00000000000E+00 -0.62816048521E+03  0.62816048521E+03  0.00000000000E+00 0. -1.
         23    2    1    2    0    0 -0.36494108291E+02  0.35780401151E+02 -0.36446014463E+03  0.37936755783E+03  0.92067854692E+02 0.  0.
         23    2    1    2    0    0 -0.22466743730E+02 -0.45004094855E+02 -0.92513986552E+02  0.14080797501E+03  0.93476868753E+02 0.  0.
        -11    1    4    4    0    0 -0.43241981836E+02 -0.64467022105E+02 -0.69708286939E+02  0.10433173630E+03  0.00000000000E+00 0.  1.
         11    1    4    4    0    0  0.20775238106E+02  0.19462927250E+02 -0.22805699613E+02  0.36476238709E+02  0.00000000000E+00 0. -1.
        -13    1    3    3    0    0 -0.66206799801E+02  0.14765931189E+02 -0.26189337474E+03  0.27053560357E+03  0.00000000000E+00 0.  1.
         13    1    3    3    0    0  0.29712691510E+02  0.21014469962E+02 -0.10256676989E+03  0.10883195427E+03  0.00000000000E+00 0. -1.
         21    1    1    2  503  502  0.38478661873E+02 -0.16400205610E+02 -0.11698568418E+03  0.12423857882E+03  0.00000000000E+00 0.  1.
          1    1    1    2  501    0  0.20482190147E+02  0.25623899314E+02 -0.47944943832E+01  0.33152549008E+02  0.00000000000E+00 0. -1.
<scales pt_clust_5="13000.00000" pt_clust_6="13000.00000" pt_clust_7="13000.00000" pt_clust_8="13000.00000" pt_clust_9="42.85701" pt_clust_10="32.80403"></scales>
<clustering>
<clus scale="   32.804">  1 10  2 -1</clus>
<clus scale="   42.857">  2  9  1 -1</clus>
<clus scale="   92.068">  7  8 -1 -1</clus>
<clus scale="   93.477">  5  6 -1 -1</clus>
<clus scale="   97.053">  2  7  1 -1</clus>
<clus scale="   32.804">  1  5  2 -1</clus>
</clustering>
</event>
<event>
10    2  0.3984345E-006  0.1385778E+03  0.7546771E-02  0.1216395E+00
         21   -1    0    0  501  502  0.00000000000E+00  0.00000000000E+00  0.36810247911E+03  0.36810247911E+03  0.00000000000E+00 0. -1.
          2   -1    0    0  503    0 -0.00000000000E+00 -0.00000000000E+00 -0.25068498553E+03  0.25068498553E+03  0.00000000000E+00 0. -1.
         23    2    1    2    0    0 -0.52280755392E+02 -0.84257790062E+02 -0.15713069183E+03  0.20520526215E+03  0.87100474904E+02 0.  0.
         23    2    1    2    0    0  0.81078237762E+02  0.96171707644E+02  0.23763765894E+03  0.28422604147E+03  0.92141780478E+02 0.  0.
        -11    1    3    3    0    0 -0.51871659330E+02 -0.49491510353E+02 -0.15451563710E+03  0.17033837133E+03  0.00000000000E+00 0.  1.
         11    1    3    3    0    0 -0.40909606280E+00 -0.34766279709E+02 -0.26150547322E+01  0.34866890823E+02  0.00000000000E+00 0. -1.
        -11    1    4    4    0    0 -0.20695054808E+02  0.18817223200E+02  0.47073256809E+02  0.54756412310E+02  0.00000000000E+00 0.  1.
         11    1    4    4    0    0  0.10177329257E+03  0.77354484443E+02  0.19056440213E+03  0.22946962916E+03  0.00000000000E+00 0. -1.
         21    1    1    2  503  502  0.41466687168E+02 -0.20136616237E+02 -0.61990220386E+01  0.46512335271E+02  0.00000000000E+00 0. -1.
          2    1    1    2  501    0 -0.70264169538E+02  0.82226986554E+01  0.43109548502E+02  0.82843825757E+02  0.00000000000E+00 0. -1.
<scales pt_clust_5="13000.00000" pt_clust_6="13000.00000" pt_clust_7="13000.00000" pt_clust_8="13000.00000" pt_clust_9="46.09739" pt_clust_10="66.90240"></scales>
<clustering>
<clus scale="   46.097">  2  9  1 -1</clus>
<clus scale="   66.902">  1 10  2 -1</clus>
<clus scale="   87.100">  5  6 -1 -1</clus>
<clus scale="   92.142">  7  8 -1 -1</clus>
<clus scale="  135.278">  2  5  1 -1</clus>
<clus scale="   66.902">  1  5  2 -1</clus>
</clustering>
</event>
<event>
10    2  0.3984345E-006  0.2566043E+03  0.7546771E-02  0.1109298E+00
         -1   -1    0    0    0  501 -0.00000000000E+00  0.00000000000E+00  0.10382759066E+04  0.10382759066E+04  0.00000000000E+00 0.  1.
         21   -1    0    0  503  502  0.00000000000E+00 -0.00000000000E+00 -0.11056352110E+03  0.11056352110E+03  0.00000000000E+00 0. -1.
         23    2    1    2    0    0  0.23530338342E+03 -0.97672791406E+02  0.58375698566E+03  0.64339832785E+03  0.91002931501E+02 0.  0.
         23    2    1    2    0    0 -0.18367019650E+03  0.15146597832E+03  0.28077743662E+03  0.37877242505E+03  0.89195837319E+02 0.  0.
        -11    1    3    3    0    0  0.31174136433E+02 -0.42495130110E+02  0.18086016818E+03  0.18838275744E+03  0.00000000000E+00 0.  1.
         11    1    3    3    0    0  0.20412924699E+03 -0.55177661296E+02  0.40289681748E+03  0.45501557041E+03  0.00000000000E+00 0. -1.
        -13    1    4    4    0    0 -0.14466242191E+03  0.78369422228E+02  0.14292461431E+03  0.21793675236E+03  0.00000000000E+00 0.  1.
         13    1    4    4    0    0 -0.39007774581E+02  0.73096556091E+02  0.13785282231E+03  0.16083567269E+03  0.00000000000E+00 0. -1.
         21    1    1    2  503  501 -0.25744680136E+02  0.41844836387E-01  0.61765008390E+02  0.66915667581E+02  0.00000000000E+00 0.  1.
         -1    1    1    2    0  502 -0.25888506788E+02 -0.53835031749E+02  0.14129547906E+01  0.59753007191E+02  0.00000000000E+00 0.  1.
<scales pt_clust_5="13000.00000" pt_clust_6="13000.00000" pt_clust_7="13000.00000" pt_clust_8="13000.00000" pt_clust_9="25.74471" pt_clust_10="60.08989"></scales>
<clustering>
<clus scale="   25.745">  1  9  2 -1</clus>
<clus scale="   60.090">  2 10  1 -1</clus>
<clus scale="   89.196">  7  8 -1 -1</clus>
<clus scale="   91.003">  5  6 -1 -1</clus>
<clus scale="  255.969">  2  7  1 -1</clus>
<clus scale="   60.090">  2  5  1 -1</clus>
</clustering>
</event>
<event>
10    2  0.3984345E-006  0.3194257E+03  0.7546771E-02  0.1075949E+00
         21   -1    0    0  501  502  0.00000000000E+00  0.00000000000E+00  0.27402596831E+03  0.27402596831E+03  0.00000000000E+00 0. -1.
          3   -1    0    0  503    0 -0.00000000000E+00 -0.00000000000E+00 -0.76629776893E+03  0.76629776893E+03  0.00000000000E+00 0. -1.
         23    2    1    2    0    0 -0.20723427255E+03  0.24232734129E+03 -0.14669077720E+03  0.36236919811E+03  0.90136937832E+02 0.  0.
         23    2    1    2    0    0  0.15575250081E+03 -0.26930232977E+03 -0.12035218727E+03  0.34581266980E+03  0.91209469279E+02 0.  0.
        -11    1    4    4    0    0  0.19520933211E+02 -0.61219339730E+01  0.91397766127E+01  0.22407151214E+02  0.00000000000E+00 0.  1.
         11    1    4    4    0    0  0.13623156760E+03 -0.26318039580E+03 -0.12949196388E+03  0.32340551859E+03  0.00000000000E+00 0. -1.
        -13    1    3    3    0    0 -0.16085333425E+03  0.16807407500E+03 -0.14629848220E+03  0.27481982411E+03  0.00000000000E+00 0. -1.
         13    1    3    3    0    0 -0.46380938301E+02  0.74253266284E+02 -0.39229500083E+00  0.87549373995E+02  0.00000000000E+00 0.  1.
         21    1    1    2  503  502  0.13056982509E+02 -0.94217863654E+02 -0.16725320779E+03  0.19240874756E+03  0.00000000000E+00 0. -1.
          3    1    1    2  501    0  0.38424789236E+02  0.12119285214E+03 -0.57975628356E+02  0.13973312177E+03  0.00000000000E+00 0. -1.
<scales pt_clust_5="13000.00000" pt_clust_6="13000.00000" pt_clust_7="13000.00000" pt_clust_8="13000.00000" pt_clust_9="95.11830" pt_clust_10="112.87596"></scales>
<clustering>
<clus scale="   90.137">  7  8 -1 -1</clus>
<clus scale="   91.209">  5  6 -1 -1</clus>
<clus scale="   95.118">  2  9  1 -1</clus>
<clus scale="  112.876">  1 10  2 -1</clus>
<clus scale="  319.121">  2  7  1 -1</clus>
<clus scale="  112.876">  1  5  2 -1</clus>
</clustering>
</event>
<event>
10    2  0.3984345E-006  0.1244154E+03  0.7546771E-02  0.1236605E+00
          1   -1    0    0  503    0 -0.00000000000E+00  0.00000000000E+00  0.24165779170E+03  0.24165779170E+03  0.00000000000E+00 0. -1.
         21   -1    0    0  501  502  0.00000000000E+00 -0.00000000000E+00 -0.60435019508E+03  0.60435019508E+03  0.00000000000E+00 0. -1.
         23    2    1    2    0    0  0.49560493799E+02 -0.51305372828E+02  0.10256005406E+02  0.11751799437E+03  0.92826771613E+02 0.  0.
         23    2    1    2    0    0 -0.98263507648E+00  0.69472006866E+02 -0.38694034224E+03  0.40346021930E+03  0.90719318782E+02 0.  0.
        -11    1    3    3    0    0  0.44738601513E+02 -0.77218390867E+02  0.20344114679E-01  0.89242494179E+02  0.00000000000E+00 0. -1.
         11    1    3    3    0    0  0.48218922861E+01  0.25913018040E+02  0.10235661291E+02  0.28275500194E+02  0.00000000000E+00 0.  1.
        -13    1    4    4    0    0 -0.35960429433E+02  0.65658891638E+02 -0.20721535831E+03  0.22032350591E+03  0.00000000000E+00 0.  1.
         13    1    4    4    0    0  0.34977794356E+02  0.38131152278E+01 -0.17972498392E+03  0.18313671339E+03  0.00000000000E+00 0. -1.
         21    1    1    2  503  502 -0.35726749936E+01 -0.26403018421E+02  0.16505423296E+03  0.16719085862E+03  0.00000000000E+00 0. -1.
          1    1    1    2  501    0 -0.45005183729E+02  0.82363843829E+01 -0.15106229951E+03  0.15783891448E+03  0.00000000000E+00 0. -1.
<scales pt_clust_5="13000.00000" pt_clust_6="13000.00000" pt_clust_7="13000.00000" pt_clust_8="13000.00000" pt_clust_9="26.64364" pt_clust_10="45.71267"></scales>
<clustering>
<clus scale="   26.644">  1  9  2 -1</clus>
<clus scale="   45.713">  2 10  1 -1</clus>
<clus scale="   90.719">  7  8 -1 -1</clus>
<clus scale="   92.827">  5  6 -1 -1</clus>
<clus scale="  122.851">  2  7  1 -1</clus>
<clus scale="   45.713">  2  5  1 -1</clus>
</clustering>
</event>
<event>
10    2  0.3984345E-006  0.1699088E+03  0.7546771E-02  0.1178170E+00
         21   -1    0    0  501  502  0.00000000000E+00  0.00000000000E+00  0.45228773940E+02  0.45228773940E+02  0.00000000000E+00 0.  1.
          1   -1    0    0  503    0 -0.00000000000E+00 -0.00000000000E+00 -0.12910129504E+04  0.12910129504E+04  0.00000000000E+00 0. -1.
         23    2    1    2    0    0  0.13601185773E+03  0.41882534328E+02 -0.76635707196E+03  0.78472382836E+03  0.90746641436E+02 0.  0.
         23    2    1    2    0    0 -0.12183909308E+03 -0.82530846774E+02 -0.46628826766E+03  0.49760399742E+03  0.92351959484E+02 0.  0.
        -11    1    3    3    0    0  0.98989892381E+02  0.55449201926E+02 -0.68479588619E+03  0.69413184520E+03  0.00000000000E+00 0. -1.
         11    1    3    3    0    0  0.37021965347E+02 -0.13566667598E+02 -0.81561185777E+02  0.90591983162E+02  0.00000000000E+00 0.  1.
        -13    1    4    4    0    0 -0.92724784453E+02 -0.68444674575E+02 -0.44300783480E+03  0.45775375567E+03  0.00000000000E+00 0.  1.
         13    1    4    4    0    0 -0.29114308623E+02 -0.14086172199E+02 -0.23280432855E+02  0.39850241753E+02  0.00000000000E+00 0. -1.
         21    1    1    2  503  502 -0.17135051481E+02  0.16382213269E+02  0.40228208650E+01  0.24045165597E+02  0.00000000000E+00 0.  1.
          1    1    1    2  501    0  0.29622868293E+01  0.24266099177E+02 -0.17161657668E+02  0.29868732923E+02  0.00000000000E+00 0. -1.
<scales pt_clust_5="13000.00000" pt_clust_6="13000.00000" pt_clust_7="13000.00000" pt_clust_8="13000.00000" pt_clust_9="23.70626" pt_clust_10="27.60776"></scales>
<clustering>
<clus scale="   23.706">  1  9  2 -1</clus>
<clus scale="   27.608">  1 10  2 -1</clus>
<clus scale="   90.747">  5  6 -1 -1</clus>
<clus scale="   92.352">  7  8 -1 -1</clus>
<clus scale="  169.042">  2  5  1 -1</clus>
<clus scale="   23.706">  1  5  2 -1</clus>
</clustering>
</event>
<event>
10    2  0.3984345E-006  0.1415721E+03  0.7546771E-02  0.1223211E+00
         21   -1    0    0  503  502  0.00000000000E+00  0.00000000000E+00  0.34317797760E+03  0.34317797760E+03  0.00000000000E+00 0. -1.
          2   -1    0    0  502    0 -0.00000000000E+00 -0.00000000000E+00 -0.21083278322E+03  0.21083278322E+03  0.00000000000E+00 0. -1.
         23    2    1    2    0    0 -0.34387820560E+00 -0.62004412810E+02  0.60509836517E+01  0.11011771711E+03  0.90799954615E+02 0.  0.
         23    2    1    2    0    0 -0.65781410415E+02 -0.77416607481E+02  0.21472688221E+03  0.25470606479E+03  0.91907673397E+02 0.  0.
        -13    1    4    4    0    0 -0.39192947958E+02 -0.69664301224E+02  0.66687103045E+02  0.10409789502E+03  0.00000000000E+00 0.  1.
         13    1    4    4    0    0 -0.26588462457E+02 -0.77523062565E+01  0.14803977916E+03  0.15060816977E+03  0.00000000000E+00 0. -1.
        -13    1    3    3    0    0  0.86363434413E+01  0.22579943746E+02  0.65861992494E+01  0.25056302763E+02  0.00000000000E+00 0.  1.
         13    1    3    3    0    0 -0.89802216469E+01 -0.84584356557E+02 -0.53521559765E+00  0.85061414347E+02  0.00000000000E+00 0. -1.
         21    1    1    2  503  501  0.12883212414E+02  0.40654971432E+02  0.53113199110E+01  0.42976900579E+02  0.00000000000E+00 0. -1.
          2    1    1    2  501    0  0.53242076206E+02  0.98766048860E+02 -0.93743991385E+02  0.14621007834E+03  0.00000000000E+00 0. -1.
<scales pt_clust_5="13000.00000" pt_clust_6="13000.00000" pt_clust_7="13000.00000" pt_clust_8="13000.00000" pt_clust_9="39.76700" pt_clust_10="125.52388"></scales>
<clustering>
<clus scale="   39.767">  9 10 -1 -1</clus>
<clus scale="   90.800">  7  8 -1 -1</clus>
<clus scale="   91.908">  5  6 -1 -1</clus>
<clus scale="  109.951">  2  7  1 -1</clus>
<clus scale="  125.524">  1  9  2 -1</clus>
<clus scale="  125.524">  1  5  2 -1</clus>
</clustering>
</event>
<event>
10    2  0.3984345E-006  0.2013825E+03  0.7546771E-02  0.1149235E+00
         21   -1    0    0  501  502  0.00000000000E+00  0.00000000000E+00  0.92258692386E+03  0.92258692386E+03  0.00000000000E+00 0.  1.
          1   -1    0    0  503    0 -0.00000000000E+00 -0.00000000000E+00 -0.12063400435E+03  0.12063400435E+03  0.00000000000E+00 0. -1.
         23    2    1    2    0    0  0.17705771414E+03  0.72903816625E+02  0.16993198372E+03  0.27192980829E+03  0.91676283357E+02 0.  0.
         23    2    1    2    0    0 -0.17447999804E+03  0.22463848738E+02  0.34074284141E+03  0.39585906074E+03  0.98238575845E+02 0.  0.
        -11    1    3    3    0    0  0.86315767142E+02  0.47667595797E+02  0.29654377514E+02  0.10296598201E+03  0.00000000000E+00 0. -1.
         11    1    3    3    0    0  0.90741946997E+02  0.25236220829E+02  0.14027760620E+03  0.16896382627E+03  0.00000000000E+00 0.  1.
        -11    1    4    4    0    0 -0.52553621724E+02 -0.38512803898E+02  0.10811181103E+03  0.12622710844E+03  0.00000000000E+00 0. -1.
         11    1    4    4    0    0 -0.12192637632E+03  0.60976652636E+02  0.23263103037E+03  0.26963195230E+03  0.00000000000E+00 0.  1.
         21    1    1    2  503  502 -0.14244990697E+02 -0.14351289831E+02 -0.34248585431E+02  0.39772413603E+02  0.00000000000E+00 0. -1.
          1    1    1    2  501    0  0.11667274600E+02 -0.81016375532E+02  0.32552667982E+03  0.33565964558E+03  0.00000000000E+00 0. -1.
<scales pt_clust_5="13000.00000" pt_clust_6="13000.00000" pt_clust_7="13000.00000" pt_clust_8="13000.00000" pt_clust_9="20.22076" pt_clust_10="82.59557"></scales>
<clustering>
<clus scale="   20.221">  2  9  1 -1</clus>
<clus scale="   82.596">  1 10  2 -1</clus>
<clus scale="   91.676">  5  6 -1 -1</clus>
<clus scale="   98.239">  7  8 -1 -1</clus>
<clus scale="  198.264">  2  5  1 -1</clus>
<clus scale="   82.596">  1  5  2 -1</clus>
</clustering>
</event>
<event>
10    2  0.3984345E-006  0.1219861E+03  0.7546771E-02  0.1241769E+00
         21   -1    0    0  501  502  0.00000000000E+00  0.00000000000E+00  0.29268678115E+03  0.29268678115E+03  0.00000000000E+00 0.  1.
          2   -1    0    0  503    0 -0.00000000000E+00 -0.00000000000E+00 -0.64093969475E+03  0.64093969475E+03  0.00000000000E+00 0. -1.
         23    2    1    2    0    0 -0.14277288019E+03 -0.10893511075E+02 -0.29242190516E+03  0.33835898733E+03  0.92051451847E+02 0.  0.
         23    2    1    2    0    0  0.90949698890E+02 -0.44540092515E+01  0.18348122927E+03  0.22207989937E+03  0.85804628556E+02 0.  0.
        -11    1    4    4    0    0  0.46130134086E+02  0.79013795338E+01  0.16590003796E+03  0.17237529889E+03  0.00000000000E+00 0.  1.
         11    1    4    4    0    0  0.44819564804E+02 -0.12355388785E+02  0.17581191306E+02  0.49704600481E+02  0.00000000000E+00 0. -1.
        -13    1    3    3    0    0 -0.57268457606E+02  0.14429711480E+02 -0.41826178450E+02  0.72369344433E+02  0.00000000000E+00 0.  1.
         13    1    3    3    0    0 -0.85504422582E+02 -0.25323222555E+02 -0.25059572671E+03  0.26598964290E+03  0.00000000000E+00 0. -1.
         21    1    1    2  503  502  0.70456636492E+02  0.30192333467E+02 -0.29913262618E+03  0.30879773747E+03  0.00000000000E+00 0. -1.
          2    1    1    2  501    0 -0.18633455194E+02 -0.14844813141E+02  0.59820388463E+02  0.64389851728E+02  0.00000000000E+00 0. -1.
<scales pt_clust_5="13000.00000" pt_clust_6="13000.00000" pt_clust_7="13000.00000" pt_clust_8="13000.00000" pt_clust_9="76.17183" pt_clust_10="23.82381"></scales>
<clustering>
<clus scale="   23.824">  1 10  2 -1</clus>
<clus scale="   76.172">  2  9  1 -1</clus>
<clus scale="   85.805">  5  6 -1 -1</clus>
<clus scale="   92.051">  7  8 -1 -1</clus>
<clus scale="  117.344">  1  5  2 -1</clus>
<clus scale="   23.824">  1  5  2 -1</clus>
</clustering>
</event>
<event>
10    2  0.3984345E-006  0.1250994E+03  0.7546771E-02  0.1235366E+00
          2   -1    0    0  503    0 -0.00000000000E+00  0.00000000000E+00  0.63368851509E+03  0.63368851509E+03  0.00000000000E+00 0. -1.
         21   -1    0    0  501  502  0.00000000000E+00 -0.00000000000E+00 -0.11145148873E+03  0.11145148873E+03  0.00000000000E+00 0.  1.
         23    2    1    2    0    0 -0.13234999348E+03  0.73789953446E+02  0.11616791368E+03  0.21222297524E+03  0.92639781137E+02 0.  0.
         23    2    1    2    0    0  0.22188026029E+02 -0.24014034437E+02  0.51396471471E+02  0.11215877744E+03  0.94175430595E+02 0.  0.
        -11    1    3    3    0    0 -0.57083470562E+02  0.71676347003E+02  0.27017902244E+02  0.95530039112E+02  0.00000000000E+00 0.  1.
         11    1    3    3    0    0 -0.75266522919E+02  0.21136064430E+01  0.89150011432E+02  0.11669293613E+03  0.00000000000E+00 0. -1.
        -13    1    4    4    0    0  0.44524698154E+02 -0.45169817367E+02  0.16298576237E+02  0.65485912485E+02  0.00000000000E+00 0. -1.
         13    1    4    4    0    0 -0.22336672125E+02  0.21155782931E+02  0.35097895234E+02  0.46672864952E+02  0.00000000000E+00 0.  1.
         21    1    1    2  503  502  0.58930195482E+02 -0.36581703603E+02  0.36088603332E+03  0.36749111285E+03  0.00000000000E+00 0. -1.
          2    1    1    2  501    0  0.51231771971E+02 -0.13194215407E+02 -0.62133921092E+01  0.53267138284E+02  0.00000000000E+00 0. -1.
<scales pt_clust_5="13000.00000" pt_clust_6="13000.00000" pt_clust_7="13000.00000" pt_clust_8="13000.00000" pt_clust_9="71.40465" pt_clust_10="52.90351"></scales>
<clustering>
<clus scale="   52.904">  2 10  1 -1</clus>
<clus scale="   71.405">  1  9  2 -1</clus>
<clus scale="   92.640">  5  6 -1 -1</clus>
<clus scale="   94.175">  7  8 -1 -1</clus>
<clus scale="  123.948">  1  5  2 -1</clus>
<clus scale="   52.904">  2  5  1 -1</clus>
</clustering>
</event>
<event>
10    2  0.3984345E-006  0.2565750E+03  0.7546771E-02  0.1109793E+00
         21   -1    0    0  501  502  0.00000000000E+00  0.00000000000E+00  0.24775062431E+03  0.24775062431E+03  0.00000000000E+00 0.  1.
          2   -1    0    0  503    0 -0.00000000000E+00 -0.00000000000E+00 -0.74260780853E+03  0.74260780853E+03  0.00000000000E+00 0. -1.
         23    2    1    2    0    0  0.19666362855E+02 -0.21480693754E+03 -0.39556151120E+03  0.45976755528E+03  0.91588806670E+02 0.  0.
         23    2    1    2    0    0 -0.13318558674E+03  0.26704164076E+03  0.49978051135E+02  0.31911577171E+03  0.10142697740E+03 0.  0.
        -11    1    3    3    0    0  0.54940496562E+02 -0.10799179135E+03 -0.22271780803E+03  0.25354271272E+03  0.00000000000E+00 0. -1.
         11    1    3    3    0    0 -0.35274133706E+02 -0.10681514619E+03 -0.17284370317E+03  0.20622484256E+03  0.00000000000E+00 0.  1.
        -13    1    4    4    0    0 -0.94185532078E+02  0.23909652868E+03  0.10854453605E+02  0.25720786077E+03  0.00000000000E+00 0.  1.
         13    1    4    4    0    0 -0.39000054659E+02  0.27945112073E+02  0.39123597531E+02  0.61907910932E+02  0.00000000000E+00 0. -1.
         21    1    1    2  503  502  0.23555779381E+02 -0.12662298209E+02 -0.96056469425E+02  0.99709848343E+02  0.00000000000E+00 0. -1.
          2    1    1    2  501    0  0.89963444500E+02 -0.39572405011E+02 -0.53217254731E+02  0.11176525751E+03  0.00000000000E+00 0. -1.
<scales pt_clust_5="13000.00000" pt_clust_6="13000.00000" pt_clust_7="13000.00000" pt_clust_8="13000.00000" pt_clust_9="26.74338" pt_clust_10="101.69377"></scales>
<clustering>
<clus scale="   26.743">  2  9  1 -1</clus>
<clus scale="   91.589">  5  6 -1 -1</clus>
<clus scale="  101.427">  7  8 -1 -1</clus>
<clus scale="  101.694">  1 10  2 -1</clus>
<clus scale="  252.847">  2  5  1 -1</clus>
<clus scale="  101.694">  1  5  2 -1</clus>
</clustering>
</event>
<event>
10    2  0.3984345E-006  0.9524229E+02  0.7546771E-02  0.1291642E+00
         21   -1    0    0  501  502  0.00000000000E+00  0.00000000000E+00  0.10790485490E+03  0.10790485490E+03  0.00000000000E+00 0.  1.
          1   -1    0    0  503    0 -0.00000000000E+00 -0.00000000000E+00 -0.24956370136E+03  0.24956370136E+03  0.00000000000E+00 0. -1.
         23    2    1    2    0    0  0.26391702454E+02 -0.14748943900E+02 -0.54439603153E+02  0.11065092738E+03  0.91465316018E+02 0.  0.
         23    2    1    2    0    0 -0.33936193103E+02 -0.20199963133E+02  0.56127449325E+01  0.98084692705E+02  0.89606921186E+02 0.  0.
        -11    1    4    4    0    0  0.21447052859E+02 -0.19179455197E+02  0.26274728394E+02  0.38963943976E+02  0.00000000000E+00 0.  1.
         11    1    4    4    0    0 -0.55383245962E+02 -0.10205079355E+01 -0.20661983462E+02  0.59120748729E+02  0.00000000000E+00 0. -1.
        -11    1    3    3    0    0  0.17588794472E+02 -0.50046869747E+02 -0.11332296831E+02  0.54244592485E+02  0.00000000000E+00 0.  1.
         11    1    3    3    0    0  0.88029079818E+01  0.35297925847E+02 -0.43107306322E+02  0.56406334896E+02  0.00000000000E+00 0. -1.
         21    1    1    2  503  502 -0.99479835567E+01  0.23805465534E+02 -0.11530244741E+03  0.11815378515E+03  0.00000000000E+00 0. -1.
          1    1    1    2  501    0  0.17492474205E+02  0.11143441498E+02  0.22470459173E+02  0.30579151030E+02  0.00000000000E+00 0. -1.
<scales pt_clust_5="13000.00000" pt_clust_6="13000.00000" pt_clust_7="13000.00000" pt_clust_8="13000.00000" pt_clust_9="25.86488" pt_clust_10="20.74037"></scales>
<clustering>
<clus scale="   20.740">  1 10  2 -1</clus>
<clus scale="   25.865">  2  9  1 -1</clus>
<clus scale="   89.607">  5  6 -1 -1</clus>
<clus scale="   91.465">  7  8 -1 -1</clus>
<clus scale="   93.459">  1  5  2 -1</clus>
<clus scale="   20.740">  1  5  2 -1</clus>
</clustering>
</event>
<event>
10    2  0.3984345E-006  0.1494475E+03  0.7546771E-02  0.1201504E+00
         21   -1    0    0  501  502  0.00000000000E+00  0.00000000000E+00  0.15698051187E+03  0.15698051187E+03  0.00000000000E+00 0. -1.
          1   -1    0    0  503    0 -0.00000000000E+00 -0.00000000000E+00 -0.22351031633E+04  0.22351031633E+04  0.00000000000E+00 0. -1.
         23    2    1    2    0    0 -0.36657787708E+02 -0.14579552220E+03 -0.70105614257E+03  0.72265528661E+03  0.90281894834E+02 0.  0.
         23    2    1    2    0    0 -0.81752395053E+02  0.97951037789E+02 -0.68534670487E+03  0.70318260517E+03  0.92129313668E+02 0.  0.
        -11    1    4    4    0    0 -0.60285572553E+00  0.51424269266E+02 -0.12638167524E+03  0.13644466549E+03  0.00000000000E+00 0.  1.
         11    1    4    4    0    0 -0.81149539328E+02  0.46526768523E+02 -0.55896502963E+03  0.56673793968E+03  0.00000000000E+00 0. -1.
        -11    1    3    3    0    0 -0.15078778643E+02 -0.14286101818E+03 -0.66652827955E+03  0.68183325493E+03  0.00000000000E+00 0.  1.
         11    1    3    3    0    0 -0.21579009065E+02 -0.29345040201E+01 -0.34527863019E+02  0.40822031683E+02  0.00000000000E+00 0. -1.
         21    1    1    2  503  502  0.51423624691E+02  0.99819407066E+02 -0.81164554605E+03  0.81937585737E+03  0.00000000000E+00 0. -1.
          1    1    1    2  501    0  0.66986558070E+02 -0.51974922650E+02  0.11992574209E+03  0.14686992600E+03  0.00000000000E+00 0. -1.
<scales pt_clust_5="13000.00000" pt_clust_6="13000.00000" pt_clust_7="13000.00000" pt_clust_8="13000.00000" pt_clust_9="110.58898" pt_clust_10="84.78556"></scales>
<clustering>
<clus scale="   84.786">  1 10  2 -1</clus>
<clus scale="   90.282">  7  8 -1 -1</clus>
<clus scale="   92.129">  5  6 -1 -1</clus>
<clus scale="  110.589">  2  9  1 -1</clus>
<clus scale="  148.316">  2  7  1 -1</clus>
<clus scale="   84.786">  1  5  2 -1</clus>
</clustering>
</event>
<event>
10    2  0.3984345E-006  0.1388673E+03  0.7546771E-02  0.1214925E+00
         21   -1    0    0  503  502  0.00000000000E+00  0.00000000000E+00  0.31172586367E+03  0.31172586367E+03  0.00000000000E+00 0.  1.
         -1   -1    0    0    0  501 -0.00000000000E+00 -0.00000000000E+00 -0.27964259214E+03  0.27964259214E+03  0.00000000000E+00 0.  1.
         23    2    1    2    0    0  0.23263544725E+02 -0.53939220997E+02 -0.41418493999E+02  0.11451244982E+03  0.89145821235E+02 0.  0.
         23    2    1    2    0    0  0.52048534313E+02  0.15584488034E+03  0.92379653191E+02  0.20863800686E+03  0.89437916621E+02 0.  0.
        -11    1    4    4    0    0  0.14805082024E+02  0.13033634558E+03  0.97167865346E+02  0.16324321575E+03  0.00000000000E+00 0.  1.
         11    1    4    4    0    0  0.37243452289E+02  0.25508534764E+02 -0.47882121552E+01  0.45394791110E+02  0.00000000000E+00 0. -1.
        -11    1    3    3    0    0  0.43525400769E+02 -0.63965921863E+02 -0.47896673455E+02  0.90995554836E+02  0.00000000000E+00 0.  1.
         11    1    3    3    0    0 -0.20261856044E+02  0.10026700866E+02  0.64781794565E+01  0.23516894984E+02  0.00000000000E+00 0. -1.
         21    1    1    2  503  501 -0.53902014723E+02 -0.67731109686E+02 -0.12650399410E+03  0.15328467286E+03  0.00000000000E+00 0.  1.
         -1    1    1    2    0  502 -0.21410064315E+02 -0.34174549658E+02  0.10762610644E+03  0.11493332627E+03  0.00000000000E+00 0.  1.
<scales pt_clust_5="13000.00000" pt_clust_6="13000.00000" pt_clust_7="13000.00000" pt_clust_8="13000.00000" pt_clust_9="89.23916" pt_clust_10="40.32729"></scales>
<clustering>
<clus scale="   40.327">  1 10  2 -1</clus>
<clus scale="   89.146">  7  8 -1 -1</clus>
<clus scale="   89.239">  2  9  1 -1</clus>
<clus scale="   89.438">  5  6 -1 -1</clus>
<clus scale="  138.679">  2  7  1 -1</clus>
<clus scale="   40.327">  1  5  2 -1</clus>
</clustering>
</event>
<event>
10    2  0.3984345E-006  0.1159517E+03  0.7546771E-02  0.1250106E+00
         21   -1    0    0  503  502  0.00000000000E+00  0.00000000000E+00  0.81282672009E+02  0.81282672009E+02  0.00000000000E+00 0.  1.
         -2   -1    0    0    0  501 -0.00000000000E+00 -0.00000000000E+00 -0.59934688044E+03  0.59934688044E+03  0.00000000000E+00 0.  1.
         23    2    1    2    0    0  0.50822510402E+02  0.52632789546E+02 -0.38111829311E+03  0.39857292652E+03  0.90863008488E+02 0.  0.
         23    2    1    2    0    0 -0.20762583475E+02 -0.41109162465E+02  0.27966988219E+02  0.10518829490E+03  0.90340338953E+02 0.  0.
        -11    1    3    3    0    0  0.61948151561E+02  0.32515695597E+02 -0.36192527078E+03  0.36862548145E+03  0.00000000000E+00 0.  1.
         11    1    3    3    0    0 -0.11125641159E+02  0.20117093949E+02 -0.19193022328E+02  0.29947445070E+02  0.00000000000E+00 0. -1.
        -11    1    4    4    0    0 -0.42167772961E+02  0.67949464267E+01 -0.53343955051E+01  0.43043561061E+02  0.00000000000E+00 0.  1.
         11    1    4    4    0    0  0.21405189486E+02 -0.47904108891E+02  0.33301383724E+02  0.62144733836E+02  0.00000000000E+00 0. -1.
         21    1    1    2  503  501 -0.20249126441E+02  0.19300956106E+02 -0.10632435400E+03  0.10994281369E+03  0.00000000000E+00 0.  1.
         -2    1    1    2    0  502 -0.98108004866E+01 -0.30824583187E+02 -0.58588549547E+02  0.66925517352E+02  0.00000000000E+00 0.  1.
<scales pt_clust_5="13000.00000" pt_clust_6="13000.00000" pt_clust_7="13000.00000" pt_clust_8="13000.00000" pt_clust_9="27.97417" pt_clust_10="30.95033"></scales>
<clustering>
<clus scale="   27.974">  2  9  1 -1</clus>
<clus scale="   30.950">  1 10  2 -1</clus>
<clus scale="   90.340">  7  8 -1 -1</clus>
<clus scale="   90.863">  5  6 -1 -1</clus>
<clus scale="  115.543">  1  7  2 -1</clus>
<clus scale="   30.950">  1  5  2 -1</clus>
</clustering>
</event>
<event>
10    2  0.3984345E-006  0.1441841E+03  0.7546771E-02  0.1220885E+00
         -4   -1    0    0    0  501 -0.00000000000E+00  0.00000000000E+00  0.12942247268E+04  0.12942247268E+04  0.00000000000E+00 0.  1.
         21   -1    0    0  503  502  0.00000000000E+00 -0.00000000000E+00 -0.93005724378E+02  0.93005724378E+02  0.00000000000E+00 0. -1.
         23    2    1    2    0    0  0.12171967204E+03 -0.20256518272E+02  0.49699471352E+03  0.52000183083E+03  0.90399965184E+02 0.  0.
         23    2    1    2    0    0 -0.21231864708E+02  0.94437053525E+02  0.31210799001E+02  0.13634920370E+03  0.90817631647E+02 0.  0.
        -11    1    3    3    0    0  0.33323658336E+02  0.25900715937E+02  0.25166009164E+03  0.25517467549E+03  0.00000000000E+00 0.  1.
         11    1    3    3    0    0  0.88396013705E+02 -0.46157234208E+02  0.24533462189E+03  0.26482715534E+03  0.00000000000E+00 0. -1.
        -13    1    4    4    0    0 -0.52274811393E+02  0.82141493526E+02  0.33281469421E+02  0.10289575828E+03  0.00000000000E+00 0.  1.
         13    1    4    4    0    0  0.31042946685E+02  0.12295559999E+02 -0.20706704201E+01  0.33453445422E+02  0.00000000000E+00 0. -1.
         21    1    1    2  503  501 -0.10740899809E+03 -0.27476467303E+02  0.67458924493E+03  0.68363901183E+03  0.00000000000E+00 0.  1.
         -4    1    1    2    0  502  0.69211907518E+01 -0.46704067950E+02 -0.15757550152E+01  0.47240404829E+02  0.00000000000E+00 0.  1.
<scales pt_clust_5="13000.00000" pt_clust_6="13000.00000" pt_clust_7="13000.00000" pt_clust_8="13000.00000" pt_clust_9="112.32499" pt_clust_10="47.21412"></scales>
<clustering>
<clus scale="   47.214">  2 10  1 -1</clus>
<clus scale="   90.400">  5  6 -1 -1</clus>
<clus scale="   90.818">  7  8 -1 -1</clus>
<clus scale="  109.274">  2  7  1 -1</clus>
<clus scale="  112.325">  1  9  2 -1</clus>
<clus scale="   47.214">  2  5  1 -1</clus>
</clustering>
</event>
<event>
10    2  0.3984345E-006  0.1080669E+03  0.7546771E-02  0.1264524E+00
          1   -1    0    0  503    0 -0.00000000000E+00  0.00000000000E+00  0.86029464944E+03  0.86029464944E+03  0.00000000000E+00 0. -1.
         21   -1    0    0  501  502  0.00000000000E+00 -0.00000000000E+00 -0.80765501266E+02  0.80765501266E+02  0.00000000000E+00 0. -1.
         23    2    1    2    0    0 -0.23030907522E+02  0.52464991182E+02  0.45757719749E+03  0.46997782025E+03  0.90660144848E+02 0.  0.
         23    2    1    2    0    0 -0.16230805846E+02 -0.25968610511E+02  0.10427929206E+03  0.14206132633E+03  0.91484653885E+02 0.  0.
        -11    1    4    4    0    0  0.12887883091E+02 -0.40508873175E+02  0.11941046273E+02  0.44154896927E+02  0.00000000000E+00 0.  1.
         11    1    4    4    0    0 -0.29118688938E+02  0.14540262664E+02  0.92338245789E+02  0.97906429407E+02  0.00000000000E+00 0. -1.
        -11    1    3    3    0    0 -0.51113585076E+02  0.58490505063E+02  0.30613023531E+03  0.31583137706E+03  0.00000000000E+00 0. -1.
         11    1    3    3    0    0  0.28082677555E+02 -0.60255138814E+01  0.15144696217E+03  0.15414644319E+03  0.00000000000E+00 0.  1.
         21    1    1    2  503  502  0.19310562343E+02  0.29114826312E+02  0.25614543996E+03  0.25851703492E+03  0.00000000000E+00 0. -1.
          1    1    1    2  501    0  0.19951151025E+02 -0.55611206983E+02 -0.38472781341E+02  0.70503969204E+02  0.00000000000E+00 0. -1.
<scales pt_clust_5="13000.00000" pt_clust_6="13000.00000" pt_clust_7="13000.00000" pt_clust_8="13000.00000" pt_clust_9="34.93667" pt_clust_10="58.53179"></scales>
<clustering>
<clus scale="   34.937">  1  9  2 -1</clus>
<clus scale="   58.532">  2 10  1 -1</clus>
<clus scale="   90.660">  7  8 -1 -1</clus>
<clus scale="   91.485">  5  6 -1 -1</clus>
<clus scale="  107.370">  1  7  2 -1</clus>
<clus scale="   58.532">  2  5  1 -1</clus>
</clustering>
</event>
<event>
10    2  0.3984345E-006  0.1902410E+03  0.7546771E-02  0.1174654E+00
          1   -1    0    0  503    0 -0.00000000000E+00  0.00000000000E+00  0.97272605830E+03  0.97272605830E+03  0.00000000000E+00 0. -1.
         21   -1    0    0  501  502  0.00000000000E+00 -0.00000000000E+00 -0.78438211360E+02  0.78438211360E+02  0.00000000000E+00 0. -1.
         23    2    1    2    0    0 -0.56437322102E+02  0.78698345046E+02  0.12377589051E+03  0.18185484801E+03  0.91499255927E+02 0.  0.
         23    2    1    2    0    0  0.20024588964E+03 -0.17105749971E+02  0.47099837595E+03  0.52020222183E+03  0.91541566761E+02 0.  0.
        -13    1    4    4    0    0  0.16428461160E+03 -0.48020935935E+02  0.39683377273E+03  0.43217182587E+03  0.00000000000E+00 0. -1.
         13    1    4    4    0    0  0.35961278037E+02  0.30915185964E+02  0.74164603227E+02  0.88030395961E+02  0.00000000000E+00 0.  1.
        -13    1    3    3    0    0 -0.49601932922E+02  0.17986351020E+02  0.10570716166E+03  0.11814340692E+03  0.00000000000E+00 0.  1.
         13    1    3    3    0    0 -0.68353891798E+01  0.60711994027E+02  0.18068728850E+02  0.63711441093E+02  0.00000000000E+00 0. -1.
         21    1    1    2  503  502  0.38549341356E+01 -0.26291151222E+02  0.58613302507E+02  0.64355297999E+02  0.00000000000E+00 0.  1.
          1    1    1    2  501    0 -0.14766350167E+03 -0.35301443852E+02  0.24090027797E+03  0.28475190182E+03  0.00000000000E+00 0. -1.
<scales pt_clust_5="13000.00000" pt_clust_6="13000.00000" pt_clust_7="13000.00000" pt_clust_8="13000.00000" pt_clust_9="26.57226" pt_clust_10="166.76863"></scales>
<clustering>
<clus scale="   26.572">  1  9  2 -1</clus>
<clus scale="   91.499">  7  8 -1 -1</clus>
<clus scale="   91.542">  5  6 -1 -1</clus>
<clus scale="  130.398">  1  7  2 -1</clus>
<clus scale="  166.769">  2 10  1 -1</clus>
<clus scale="  166.769">  2  5  1 -1</clus>
</clustering>
</event>
<event>
10    2  0.3984345E-006  0.1374793E+03  0.7546771E-02  0.1216846E+00
         21   -1    0    0  501  502  0.00000000000E+00  0.00000000000E+00  0.26412025492E+03  0.26412025492E+03  0.00000000000E+00 0. -1.
          2   -1    0    0  503    0 -0.00000000000E+00 -0.00000000000E+00 -0.29699100209E+03  0.29699100209E+03  0.00000000000E+00 0. -1.
         23    2    1    2    0    0  0.36402235795E+01  0.86521396179E+02 -0.80152607218E+02  0.14931747526E+03  0.91498987699E+02 0.  0.
         23    2    1    2    0    0  0.18589492606E+02 -0.10575784896E+03  0.21437250880E+01  0.14085484847E+03  0.91132875125E+02 0.  0.
        -13    1    4    4    0    0  0.95752882255E+01 -0.63651668839E+02  0.46214198722E+02  0.79239972578E+02  0.00000000000E+00 0.  1.
         13    1    4    4    0    0  0.90142043809E+01 -0.42106180118E+02 -0.44070473634E+02  0.61614875891E+02  0.00000000000E+00 0. -1.
        -13    1    3    3    0    0 -0.11393371101E+02 -0.17464123347E+02 -0.11549273469E+02  0.23836741115E+02  0.00000000000E+00 0.  1.
         13    1    3    3    0    0  0.15033594681E+02  0.10398551953E+03 -0.68603333749E+02  0.12548073415E+03  0.00000000000E+00 0. -1.
         21    1    1    2  503  502 -0.38975655104E+00  0.40342925810E+02 -0.10775401278E+03  0.11505924928E+03  0.00000000000E+00 0. -1.
          2    1    1    2  501    0 -0.21839959635E+02 -0.21106473032E+02  0.15289214774E+03  0.15587968400E+03  0.00000000000E+00 0. -1.
<scales pt_clust_5="13000.00000" pt_clust_6="13000.00000" pt_clust_7="13000.00000" pt_clust_8="13000.00000" pt_clust_9="39.65610" pt_clust_10="30.37214"></scales>
<clustering>
<clus scale="   30.372">  1 10  2 -1</clus>
<clus scale="   39.656">  2  9  1 -1</clus>
<clus scale="   91.133">  5  6 -1 -1</clus>
<clus scale="   91.499">  7  8 -1 -1</clus>
<clus scale="  137.236">  1  5  2 -1</clus>
<clus scale="   30.372">  1  5  2 -1</clus>
</clustering>
</event>
<event>
10    2  0.3984345E-006  0.1418537E+03  0.7546771E-02  0.1211115E+00
         21   -1    0    0  501  502  0.00000000000E+00  0.00000000000E+00  0.48769925811E+03  0.48769925811E+03  0.00000000000E+00 0.  1.
          1   -1    0    0  503    0 -0.00000000000E+00 -0.00000000000E+00 -0.81563758312E+02  0.81563758312E+02  0.00000000000E+00 0. -1.
         23    2    1    2    0    0  0.79775873941E+02  0.12430388997E+03  0.15005087306E+03  0.22991297747E+03  0.92352940274E+02 0.  0.
         23    2    1    2    0    0 -0.24829236352E+02 -0.72185599495E+02  0.20876918331E+03  0.24116695700E+03  0.93539710795E+02 0.  0.
        -11    1    4    4    0    0  0.24326960267E+02 -0.67001631449E+02  0.12568197440E+03  0.14448867880E+03  0.00000000000E+00 0.  1.
         11    1    4    4    0    0 -0.49156196618E+02 -0.51839680460E+01  0.83087208908E+02  0.96678278196E+02  0.00000000000E+00 0. -1.
        -11    1    3    3    0    0 -0.44501955407E+01  0.21269779271E+02  0.72938418968E+02  0.76106640394E+02  0.00000000000E+00 0.  1.
         11    1    3    3    0    0  0.84226069482E+02  0.10303411070E+03  0.77112454091E+02  0.15380633707E+03  0.00000000000E+00 0. -1.
         21    1    1    2  503  502 -0.35476307314E+02 -0.30231820616E+02  0.52250683687E+01  0.46902374117E+02  0.00000000000E+00 0. -1.
          1    1    1    2  501    0 -0.19470330276E+02 -0.21886469856E+02  0.42090375059E+02  0.51280707838E+02  0.00000000000E+00 0. -1.
<scales pt_clust_5="13000.00000" pt_clust_6="13000.00000" pt_clust_7="13000.00000" pt_clust_8="13000.00000" pt_clust_9="48.32578" pt_clust_10="29.29354"></scales>
<clustering>
<clus scale="   29.294">  1 10  2 -1</clus>
<clus scale="   48.326">  2  9  1 -1</clus>
<clus scale="   92.353">  7  8 -1 -1</clus>
<clus scale="   93.540">  5  6 -1 -1</clus>
<clus scale="  141.074">  2  7  1 -1</clus>
<clus scale="   29.294">  1  5  2 -1</clus>
</clustering>
</event>
<event>
10    2  0.3984345E-006  0.9395299E+02  0.7546771E-02  0.1294145E+00
         21   -1    0    0  501  502  0.00000000000E+00  0.00000000000E+00  0.63878189418E+02  0.63878189418E+02  0.00000000000E+00 0.  1.
          2   -1    0    0  503    0 -0.00000000000E+00 -0.00000000000E+00 -0.51176193497E+03  0.51176193497E+03  0.00000000000E+00 0. -1.
         23    2    1    2    0    0 -0.22162107651E+02  0.37538272821E+02 -0.32773386923E+03  0.34288595085E+03  0.90890072663E+02 0.  0.
         23    2    1    2    0    0 -0.39670865050E+01 -0.13112357128E+01 -0.62064918253E+02  0.10925974013E+03  0.89823046152E+02 0.  0.
        -11    1    4    4    0    0  0.43986881007E+01 -0.37154824382E+02 -0.36595663564E+00  0.37416084190E+02  0.00000000000E+00 0.  1.
         11    1    4    4    0    0 -0.83657746057E+01  0.35843588669E+02 -0.61698961618E+02  0.71843655935E+02  0.00000000000E+00 0. -1.
        -13    1    3    3    0    0  0.89035022137E+01  0.57886364449E+02 -0.24955149577E+03  0.25633191877E+03  0.00000000000E+00 0.  1.
         13    1    3    3    0    0 -0.31065609864E+02 -0.20348091628E+02 -0.78182373459E+02  0.86554032077E+02  0.00000000000E+00 0. -1.
         21    1    1    2  503  502 -0.63744815151E+01 -0.25029513723E+02 -0.79094285467E+02  0.83204666728E+02  0.00000000000E+00 0.  1.
          2    1    1    2  501    0  0.32503675671E+02 -0.11197523386E+02  0.21009327395E+02  0.40289766687E+02  0.00000000000E+00 0. -1.
<scales pt_clust_5="13000.00000" pt_clust_6="13000.00000" pt_clust_7="13000.00000" pt_clust_8="13000.00000" pt_clust_9="25.82848" pt_clust_10="34.43080"></scales>
<clustering>
<clus scale="   25.828">  2  9  1 -1</clus>
<clus scale="   34.431">  1 10  2 -1</clus>
<clus scale="   89.823">  5  6 -1 -1</clus>
<clus scale="   90.890">  7  8 -1 -1</clus>
<clus scale="   92.921">  1  5  2 -1</clus>
<clus scale="   34.431">  1  5  2 -1</clus>
</clustering>
</event>
<event>
10    2  0.3984345E-006  0.1411847E+03  0.7546771E-02  0.1212227E+00
         21   -1    0    0  503  502  0.00000000000E+00  0.00000000000E+00  0.19243751777E+03  0.19243751777E+03  0.00000000000E+00 0.  1.
         -2   -1    0    0    0  501 -0.00000000000E+00 -0.00000000000E+00 -0.49695496984E+03  0.49695496984E+03  0.00000000000E+00 0. -1.
         23    2    1    2    0    0 -0.38558970155E+02  0.76926328875E+02 -0.38963963713E+03  0.40955207863E+03  0.92246430996E+02 0.  0.
         23    2    1    2    0    0  0.24814988688E+02 -0.14412115705E+03  0.95053280386E+02  0.19627795855E+03  0.90017883360E+02 0.  0.
        -13    1    3    3    0    0  0.29917386974E+02  0.13557813078E+02 -0.99751431572E+02  0.10502005732E+03  0.00000000000E+00 0.  1.
         13    1    3    3    0    0 -0.68476357129E+02  0.63368515797E+02 -0.28988820556E+03  0.30453202131E+03  0.00000000000E+00 0. -1.
        -13    1    4    4    0    0  0.41322798588E+02 -0.46728957190E+02  0.71194120364E+02  0.94656071636E+02  0.00000000000E+00 0.  1.
         13    1    4    4    0    0 -0.16507809900E+02 -0.97392199864E+02  0.23859160021E+02  0.10162188691E+03  0.00000000000E+00 0. -1.
         21    1    1    2  503  501 -0.37290674601E+01  0.20534000115E+02 -0.23984661504E+02  0.31793318359E+02  0.00000000000E+00 0. -1.
         -2    1    1    2    0  502  0.17473048928E+02  0.46660828064E+02  0.14053566175E+02  0.51769132084E+02  0.00000000000E+00 0. -1.
<scales pt_clust_5="13000.00000" pt_clust_6="13000.00000" pt_clust_7="13000.00000" pt_clust_8="13000.00000" pt_clust_9="20.86986" pt_clust_10="50.54745"></scales>
<clustering>
<clus scale="   20.870">  2  9  1 -1</clus>
<clus scale="   50.547">  1 10  2 -1</clus>
<clus scale="   90.018">  7  8 -1 -1</clus>
<clus scale="   92.246">  5  6 -1 -1</clus>
<clus scale="  139.739">  1  7  2 -1</clus>
<clus scale="   50.547">  1  5  2 -1</clus>
</clustering>
</event>
<event>
10    2  0.3984345E-006  0.3149001E+03  0.7546771E-02  0.1078098E+00
         21   -1    0    0  501  502  0.00000000000E+00  0.00000000000E+00  0.11536529998E+03  0.11536529998E+03  0.00000000000E+00 0.  1.
          2   -1    0    0  503    0 -0.00000000000E+00 -0.00000000000E+00 -0.14525732629E+04  0.14525732629E+04  0.00000000000E+00 0. -1.
         23    2    1    2    0    0 -0.30765810553E+03 -0.61272090745E+02 -0.66193910886E+03  0.73841000237E+03  0.93156689241E+02 0.  0.
         23    2    1    2    0    0  0.27878900989E+03  0.13050330133E+03 -0.39551523024E+03  0.50936579708E+03  0.90921912541E+02 0.  0.
        -11    1    4    4    0    0  0.23325432740E+03  0.80734443814E+02 -0.26310490941E+03  0.36076283764E+03  0.00000000000E+00 0.  1.
         11    1    4    4    0    0  0.45534682491E+02  0.49768857521E+02 -0.13241032084E+03  0.14860295943E+03  0.00000000000E+00 0. -1.
        -13    1    3    3    0    0 -0.25945890789E+03 -0.85634833548E+02 -0.55456469840E+03  0.61821861369E+03  0.00000000000E+00 0. -1.
         13    1    3    3    0    0 -0.48199197638E+02  0.24362742802E+02 -0.10737441046E+03  0.12019138868E+03  0.00000000000E+00 0.  1.
         21    1    1    2  503  502  0.36906988124E+02  0.70239930766E+01 -0.21936868291E+03  0.22256253345E+03  0.00000000000E+00 0.  1.
          2    1    1    2  501    0 -0.80378924864E+01 -0.76255203666E+02 -0.60384940857E+02  0.97600229938E+02  0.00000000000E+00 0. -1.
<scales pt_clust_5="13000.00000" pt_clust_6="13000.00000" pt_clust_7="13000.00000" pt_clust_8="13000.00000" pt_clust_9="37.56943" pt_clust_10="76.01651"></scales>
<clustering>
<clus scale="   37.569">  2  9  1 -1</clus>
<clus scale="   76.017">  1 10  2 -1</clus>
<clus scale="   90.922">  5  6 -1 -1</clus>
<clus scale="   93.157">  7  8 -1 -1</clus>
<clus scale="  314.246">  1  5  2 -1</clus>
<clus scale="   76.017">  1  5  2 -1</clus>
</clustering>
</event>
<event>
10    2  0.3984345E-006  0.9210479E+02  0.7546771E-02  0.1300480E+00
         21   -1    0    0  501  502  0.00000000000E+00  0.00000000000E+00  0.20431638888E+02  0.20431638888E+02  0.00000000000E+00 0.  1.
          2   -1    0    0  503    0 -0.00000000000E+00 -0.00000000000E+00 -0.92425777662E+03  0.92425777662E+03  0.00000000000E+00 0. -1.
         23    2    1    2    0    0  0.14747821646E+01  0.19363402227E+02 -0.47339871144E+03  0.48265499860E+03  0.92045593840E+02 0.  0.
         23    2    1    2    0    0  0.22189460512E+02  0.41008372900E+01 -0.18789053706E+03  0.20855354083E+03  0.87650079592E+02 0.  0.
        -11    1    3    3    0    0  0.35218933400E+02 -0.21354431268E+02 -0.20868795124E+03  0.21271353035E+03  0.00000000000E+00 0.  1.
         11    1    3    3    0    0 -0.33744151235E+02  0.40717833495E+02 -0.26471076021E+03  0.26994146824E+03  0.00000000000E+00 0. -1.
        -13    1    4    4    0    0 -0.33214437488E+02 -0.38011645161E+01 -0.55058681200E+02  0.64413555133E+02  0.00000000000E+00 0. -1.
         13    1    4    4    0    0  0.55403898000E+02  0.79020018060E+01 -0.13283185586E+03  0.14413998570E+03  0.00000000000E+00 0.  1.
         21    1    1    2  503  502  0.13211419791E+02 -0.27130432638E+02 -0.16254261689E+03  0.16532000573E+03  0.00000000000E+00 0.  1.
          2    1    1    2  501    0 -0.36875662467E+02  0.36661931208E+01 -0.79994272334E+02  0.88160870349E+02  0.00000000000E+00 0. -1.
<scales pt_clust_5="13000.00000" pt_clust_6="13000.00000" pt_clust_7="13000.00000" pt_clust_8="13000.00000" pt_clust_9="30.17618" pt_clust_10="35.42100"></scales>
<clustering>
<clus scale="   30.176">  2  9  1 -1</clus>
<clus scale="   35.421">  1 10  2 -1</clus>
<clus scale="   87.650">  7  8 -1 -1</clus>
<clus scale="   87.712">  1  7  2 -1</clus>
<clus scale="   92.046">  5  6 -1 -1</clus>
<clus scale="   35.421">  1  5  2 -1</clus>
</clustering>
</event>
<event>
10    2  0.3984345E-006  0.1553292E+03  0.7546771E-02  0.1215086E+00
         21   -1    0    0  503  502  0.00000000000E+00  0.00000000000E+00  0.59902238186E+02  0.59902238186E+02  0.00000000000E+00 0.  1.
          2   -1    0    0  502    0 -0.00000000000E+00 -0.00000000000E+00 -0.71245985541E+03  0.71245985541E+03  0.00000000000E+00 0. -1.
         23    2    1    2    0    0 -0.37166368460E+02  0.90129633460E+01 -0.19528194923E+03  0.21922893708E+03  0.91998449467E+02 0.  0.
         23    2    1    2    0    0  0.14315163761E+03 -0.74654086052E+01 -0.26486137148E+03  0.31364400257E+03  0.87595037350E+02 0.  0.
        -11    1    4    4    0    0  0.22840146004E+02  0.31467093374E+02 -0.88184989911E+02  0.96376567072E+02  0.00000000000E+00 0.  1.
         11    1    4    4    0    0  0.12031149161E+03 -0.38932501979E+02 -0.17667638157E+03  0.21726743550E+03  0.00000000000E+00 0. -1.
        -11    1    3    3    0    0 -0.43072078919E+01 -0.36315241864E+02 -0.40171313921E+02  0.54323874066E+02  0.00000000000E+00 0. -1.
         11    1    3    3    0    0 -0.32859160568E+02  0.45328205209E+02 -0.15511063531E+03  0.16490506301E+03  0.00000000000E+00 0.  1.
         21    1    1    2  503  501  0.15397878730E+02  0.13240101916E+02 -0.27788469637E+02  0.34417931561E+02  0.00000000000E+00 0.  1.
          2    1    1    2  501    0 -0.12138314788E+03 -0.14787656657E+02 -0.16462582688E+03  0.20507122239E+03  0.00000000000E+00 0. -1.
<scales pt_clust_5="13000.00000" pt_clust_6="13000.00000" pt_clust_7="13000.00000" pt_clust_8="13000.00000" pt_clust_9="20.30751" pt_clust_10="128.27424"></scales>
<clustering>
<clus scale="   20.308">  1  9  2 -1</clus>
<clus scale="   87.595">  5  6 -1 -1</clus>
<clus scale="   91.998">  7  8 -1 -1</clus>
<clus scale="   98.758">  2  7  1 -1</clus>
<clus scale="  128.274">  1 10  2 -1</clus>
<clus scale="   20.308">  1  5  2 -1</clus>
</clustering>
</event>
<event>
10    2  0.3984345E-006  0.1154553E+03  0.7546771E-02  0.1250874E+00
         -3   -1    0    0    0  501 -0.00000000000E+00  0.00000000000E+00  0.13151043802E+03  0.13151043802E+03  0.00000000000E+00 0.  1.
         21   -1    0    0  503  502  0.00000000000E+00 -0.00000000000E+00 -0.41520261125E+03  0.41520261125E+03  0.00000000000E+00 0.  1.
         23    2    1    2    0    0  0.24922089089E+00 -0.74422605950E+02  0.65748099405E+02  0.13465463549E+03  0.90941035270E+02 0.  0.
         23    2    1    2    0    0 -0.36322013332E+02  0.51446029694E+02 -0.15040699962E+03  0.18682593014E+03  0.91190350446E+02 0.  0.
        -13    1    4    4    0    0  0.26607198994E+02  0.10865634475E+02 -0.15808246336E+02  0.32801001555E+02  0.00000000000E+00 0.  1.
         13    1    4    4    0    0 -0.62929212326E+02  0.40580395219E+02 -0.13459875328E+03  0.15402492858E+03  0.00000000000E+00 0. -1.
        -13    1    3    3    0    0 -0.44797760648E+02 -0.38578040075E+02  0.41266553846E+02  0.72097385538E+02  0.00000000000E+00 0. -1.
         13    1    3    3    0    0  0.45046981539E+02 -0.35844565876E+02  0.24481545559E+02  0.62557249952E+02  0.00000000000E+00 0.  1.
         21    1    1    2  503  501  0.18666665626E+02  0.38546166993E+02 -0.24900640652E+02  0.49540824582E+02  0.00000000000E+00 0. -1.
         -3    1    1    2    0  502  0.17406126815E+02 -0.15569590737E+02 -0.17413263237E+03  0.17569165905E+03  0.00000000000E+00 0.  1.
<scales pt_clust_5="13000.00000" pt_clust_6="13000.00000" pt_clust_7="13000.00000" pt_clust_8="13000.00000" pt_clust_9="41.97702" pt_clust_10="23.35349"></scales>
<clustering>
<clus scale="   23.353">  2 10  1 -1</clus>
<clus scale="   41.977">  2  9  1 -1</clus>
<clus scale="   90.941">  7  8 -1 -1</clus>
<clus scale="   91.190">  5  6 -1 -1</clus>
<clus scale="  115.259">  1  7  2 -1</clus>
<clus scale="   23.353">  2  5  1 -1</clus>
</clustering>
</event>
<event>
10    2  0.3984345E-006  0.1288697E+03  0.7546771E-02  0.1229284E+00
         21   -1    0    0  501  502  0.00000000000E+00  0.00000000000E+00  0.76891738962E+02  0.76891738962E+02  0.00000000000E+00 0. -1.
          1   -1    0    0  503    0 -0.00000000000E+00 -0.00000000000E+00 -0.68919673794E+03  0.68919673794E+03  0.00000000000E+00 0. -1.
         23    2    1    2    0    0 -0.26047438003E+02 -0.67158867335E+02 -0.20041303199E+03  0.23198118502E+03  0.91984261272E+02 0.  0.
         23    2    1    2    0    0  0.93452282278E+02  0.68411174188E+02 -0.32772381236E+03  0.35941717791E+03  0.91457054233E+02 0.  0.
        -11    1    4    4    0    0  0.68775452196E+02  0.68028499788E+02 -0.31883220653E+03  0.33318450673E+03  0.00000000000E+00 0. -1.
         11    1    4    4    0    0  0.24676830082E+02  0.38267439948E+00 -0.88916058349E+01  0.26232671174E+02  0.00000000000E+00 0.  1.
        -13    1    3    3    0    0  0.22973235652E+02 -0.61986458131E+02 -0.13237486814E+03  0.14796349639E+03  0.00000000000E+00 0.  1.
         13    1    3    3    0    0 -0.49020673655E+02 -0.51724092043E+01 -0.68038163855E+02  0.84017688633E+02  0.00000000000E+00 0. -1.
         21    1    1    2  503  502 -0.14198771372E+02  0.21511512577E+02 -0.10878791941E+03  0.11179964978E+03  0.00000000000E+00 0.  1.
          1    1    1    2  501    0 -0.53206072903E+02 -0.22763819430E+02  0.24619764785E+02  0.62890464196E+02  0.00000000000E+00 0. -1.
<scales pt_clust_5="13000.00000" pt_clust_6="13000.00000" pt_clust_7="13000.00000" pt_clust_8="13000.00000" pt_clust_9="25.77499" pt_clust_10="58.02908"></scales>
<clustering>
<clus scale="   25.775">  2  9  1 -1</clus>
<clus scale="   58.029">  1 10  2 -1</clus>
<clus scale="   91.457">  5  6 -1 -1</clus>
<clus scale="   91.984">  7  8 -1 -1</clus>
<clus scale="  128.494">  1  5  2 -1</clus>
<clus scale="   58.029">  1  5  2 -1</clus>
</clustering>
</event>
<event>
10    2  0.3984345E-006  0.1091002E+03  0.7546771E-02  0.1262852E+00
          2   -1    0    0  503    0 -0.00000000000E+00  0.00000000000E+00  0.61864985018E+03  0.61864985018E+03  0.00000000000E+00 0. -1.
         21   -1    0    0  501  502  0.00000000000E+00 -0.00000000000E+00 -0.23639768904E+03  0.23639768904E+03  0.00000000000E+00 0. -1.
         23    2    1    2    0    0 -0.97047194701E+01 -0.37572768674E+02  0.23301911534E+03  0.25549932052E+03  0.97345262572E+02 0.  0.
         23    2    1    2    0    0  0.82196592011E+02  0.29553144064E+01  0.31750862963E+03  0.34172132863E+03  0.95899546028E+02 0.  0.
        -11    1    4    4    0    0  0.66835504557E+02 -0.36341584006E+02  0.25649858568E+03  0.26754293086E+03  0.00000000000E+00 0. -1.
         11    1    4    4    0    0  0.15361087453E+02  0.39296898413E+02  0.61010043950E+02  0.74178397768E+02  0.00000000000E+00 0.  1.
        -13    1    3    3    0    0 -0.44231714658E+02 -0.46504261327E+02  0.18405559538E+03  0.19492448049E+03  0.00000000000E+00 0.  1.
         13    1    3    3    0    0  0.34526995188E+02  0.89314926529E+01  0.48963519966E+02  0.60574840034E+02  0.00000000000E+00 0. -1.
         21    1    1    2  503  502 -0.44205731417E+02  0.99649746560E+02 -0.50033179067E+02  0.11994806246E+03  0.00000000000E+00 0. -1.
          2    1    1    2  501    0 -0.28286141124E+02 -0.65032292292E+02 -0.11824240476E+03  0.13787882762E+03  0.00000000000E+00 0. -1.
<scales pt_clust_5="13000.00000" pt_clust_6="13000.00000" pt_clust_7="13000.00000" pt_clust_8="13000.00000" pt_clust_9="82.30137" pt_clust_10="70.91759"></scales>
<clustering>
<clus scale="   70.918">  2 10  1 -1</clus>
<clus scale="   82.301">  2  9  1 -1</clus>
<clus scale="   95.900">  5  6 -1 -1</clus>
<clus scale="   97.345">  7  8 -1 -1</clus>
<clus scale="  107.812">  2  5  1 -1</clus>
<clus scale="   70.918">  2  5  1 -1</clus>
</clustering>
</event>
<event>
10    2  0.3984345E-006  0.1079400E+03  0.7546771E-02  0.1264824E+00
          2   -1    0    0  503    0 -0.00000000000E+00  0.00000000000E+00  0.79989219118E+03  0.79989219118E+03  0.00000000000E+00 0. -1.
         21   -1    0    0  501  502  0.00000000000E+00 -0.00000000000E+00 -0.52521094794E+02  0.52521094794E+02  0.00000000000E+00 0. -1.
         23    2    1    2    0    0  0.11909350873E+02 -0.85607314786E+02  0.32231823596E+03  0.34620317119E+03  0.92179962713E+02 0.  0.
         23    2    1    2    0    0 -0.79413769255E+02  0.18131637363E+02  0.10962960250E+03  0.16423947401E+03  0.91217608274E+02 0.  0.
        -11    1    4    4    0    0 -0.97462089618E+02  0.52327714078E+01  0.10095098435E+03  0.14041845339E+03  0.00000000000E+00 0. -1.
         11    1    4    4    0    0  0.18048320363E+02  0.12898865955E+02  0.86786181493E+01  0.23821020630E+02  0.00000000000E+00 0.  1.
        -13    1    3    3    0    0  0.18804050424E+02 -0.85352596578E+01  0.74296007954E+01  0.21946342241E+02  0.00000000000E+00 0.  1.
         13    1    3    3    0    0 -0.68946995506E+01 -0.77072055128E+02  0.31488863516E+03  0.32425682895E+03  0.00000000000E+00 0. -1.
         21    1    1    2  503  502 -0.93863691336E+00  0.59193900831E+02  0.18788325215E+03  0.19698963266E+03  0.00000000000E+00 0.  1.
          2    1    1    2  501    0  0.68443055295E+02  0.82817765930E+01  0.12754000578E+03  0.14498100812E+03  0.00000000000E+00 0. -1.
<scales pt_clust_5="13000.00000" pt_clust_6="13000.00000" pt_clust_7="13000.00000" pt_clust_8="13000.00000" pt_clust_9="59.20134" pt_clust_10="71.55769"></scales>
<clustering>
<clus scale="   59.201">  1  9  2 -1</clus>
<clus scale="   71.558">  2 10  1 -1</clus>
<clus scale="   91.218">  5  6 -1 -1</clus>
<clus scale="   92.180">  7  8 -1 -1</clus>
<clus scale="  107.119">  2  5  1 -1</clus>
<clus scale="   71.558">  2  5  1 -1</clus>
</clustering>
</event>
<event>
10    2  0.3984345E-006  0.1154769E+03  0.7546771E-02  0.1253658E+00
          1   -1    0    0  503    0 -0.00000000000E+00  0.00000000000E+00  0.45780101980E+03  0.45780101980E+03  0.00000000000E+00 0. -1.
         21   -1    0    0  501  502  0.00000000000E+00 -0.00000000000E+00 -0.20970251710E+03  0.20970251710E+03  0.00000000000E+00 0. -1.
         23    2    1    2    0    0 -0.57650332732E+02  0.97526390481E+01  0.95461401495E+02  0.13957181670E+03  0.83359090737E+02 0.  0.
         23    2    1    2    0    0 -0.10402688017E+02 -0.11937739906E+03  0.50612509298E+02  0.15914402826E+03  0.91684329679E+02 0.  0.
        -11    1    3    3    0    0 -0.23557320276E+02  0.20002298295E+02 -0.64949283776E+01  0.31578843713E+02  0.00000000000E+00 0.  1.
         11    1    3    3    0    0 -0.34093012457E+02 -0.10249659247E+02  0.10195632987E+03  0.10799297298E+03  0.00000000000E+00 0. -1.
        -13    1    4    4    0    0  0.85816310887E+01 -0.67351465758E+02 -0.18699456357E+02  0.70423958991E+02  0.00000000000E+00 0.  1.
         13    1    4    4    0    0 -0.18984319106E+02 -0.52025933301E+02  0.69311965655E+02  0.88720069267E+02  0.00000000000E+00 0. -1.
         21    1    1    2  503  502 -0.18247763264E+02  0.71633095040E+02  0.21165063743E+03  0.22418803156E+03  0.00000000000E+00 0. -1.
          1    1    1    2  501    0  0.86300784014E+02  0.37991664971E+02 -0.10962604552E+03  0.14459966039E+03  0.00000000000E+00 0. -1.
<scales pt_clust_5="13000.00000" pt_clust_6="13000.00000" pt_clust_7="13000.00000" pt_clust_8="13000.00000" pt_clust_9="73.92078" pt_clust_10="95.32790"></scales>
<clustering>
<clus scale="   73.921">  1  9  2 -1</clus>
<clus scale="   83.359">  5  6 -1 -1</clus>
<clus scale="   91.684">  7  8 -1 -1</clus>
<clus scale="   95.328">  2 10  1 -1</clus>
<clus scale="  108.985">  1  5  2 -1</clus>
<clus scale="   95.328">  2  5  1 -1</clus>
</clustering>
</event>
<event>
10    2  0.3984345E-006  0.3480494E+03  0.7546771E-02  0.1063764E+00
          2   -1    0    0  503    0 -0.00000000000E+00  0.00000000000E+00  0.62787341904E+03  0.62787341904E+03  0.00000000000E+00 0. -1.
         21   -1    0    0  501  502  0.00000000000E+00 -0.00000000000E+00 -0.31588970775E+03  0.31588970775E+03  0.00000000000E+00 0.  1.
         23    2    1    2    0    0 -0.16746050827E+03 -0.27301302876E+03  0.16692787388E+03  0.37186634911E+03  0.88546771921E+02 0.  0.
         23    2    1    2    0    0  0.19079013988E+03  0.29855186754E+03 -0.32077434326E+02  0.36345806622E+03  0.74422503446E+02 0.  0.
        -11    1    3    3    0    0 -0.14138838553E+03 -0.14851763389E+03  0.10588897490E+03  0.23078266431E+03  0.00000000000E+00 0.  1.
         11    1    3    3    0    0 -0.26072122739E+02 -0.12449539487E+03  0.61038898982E+02  0.14108368480E+03  0.00000000000E+00 0. -1.
        -11    1    4    4    0    0  0.98679945818E+02  0.21169327107E+03 -0.31195560108E+01  0.23358404130E+03  0.00000000000E+00 0.  1.
         11    1    4    4    0    0  0.92110194058E+02  0.86858596473E+02 -0.28957878315E+02  0.12987402491E+03  0.00000000000E+00 0. -1.
         21    1    1    2  503  502 -0.25504569300E+02 -0.26542754590E+01  0.18294048586E+03  0.18472885427E+03  0.00000000000E+00 0. -1.
          2    1    1    2  501    0  0.21749376969E+01 -0.22884563322E+02 -0.58072141264E+01  0.23709857198E+02  0.00000000000E+00 0. -1.
<scales pt_clust_5="13000.00000" pt_clust_6="13000.00000" pt_clust_7="13000.00000" pt_clust_8="13000.00000" pt_clust_9="25.64301" pt_clust_10="22.98768"></scales>
<clustering>
<clus scale="   22.988">  2 10  1 -1</clus>
<clus scale="   25.643">  1  9  2 -1</clus>
<clus scale="   74.423">  7  8 -1 -1</clus>
<clus scale="   88.547">  5  6 -1 -1</clus>
<clus scale="  344.727">  2  7  1 -1</clus>
<clus scale="   22.988">  2  5  1 -1</clus>
</clustering>
</event>
<event>
10    2  0.5834540E-006  0.2495653E+03  0.7546771E-02  0.1113840E+00
         21   -1    0    0  503  502  0.00000000000E+00  0.00000000000E+00  0.10414828142E+04  0.10414828142E+04  0.00000000000E+00 0.  1.
         -3   -1    0    0    0  501 -0.00000000000E+00 -0.00000000000E+00 -0.20027754168E+03  0.20027754168E+03  0.00000000000E+00 0.  1.
         23    2    1    2    0    0 -0.46291731219E+02 -0.18111528421E+03 -0.38291053895E+02  0.21199960141E+03  0.92368585767E+02 0.  0.
         23    2    1    2    0    0  0.57162097117E+02  0.28650714597E+03  0.83976048378E+03  0.89436997197E+03  0.96675367165E+02 0.  0.
        -11    1    3    3    0    0 -0.48761653326E+02 -0.95230381497E+02 -0.60963133233E+02  0.12313824755E+03  0.00000000000E+00 0. -1.
         11    1    3    3    0    0  0.24699221066E+01 -0.85884902714E+02  0.22672079339E+02  0.88861353866E+02  0.00000000000E+00 0.  1.
        -11    1    4    4    0    0  0.71624445573E+02  0.26937100584E+03  0.81301999743E+03  0.85947211485E+03  0.00000000000E+00 0.  1.
         11    1    4    4    0    0 -0.14462348456E+02  0.17136140133E+02  0.26740486346E+02  0.34897857119E+02  0.00000000000E+00 0. -1.
         21    1    1    2  503  501  0.31350205010E+02 -0.54145356884E+02  0.25002607566E+02  0.67377187618E+02  0.00000000000E+00 0. -1.
         -3    1    1    2    0  502 -0.42220570908E+02 -0.51246504877E+02  0.14733235053E+02  0.68013594854E+02  0.00000000000E+00 0.  1.
<scales pt_clust_5="13000.00000" pt_clust_6="13000.00000" pt_clust_7="13000.00000" pt_clust_8="13000.00000" pt_clust_9="62.56640" pt_clust_10="70.19349"></scales>
<clustering>
<clus scale="   62.566">  2  9  1 -1</clus>
<clus scale="   70.193">  1 10  2 -1</clus>
<clus scale="   92.369">  5  6 -1 -1</clus>
<clus scale="   96.675">  7  8 -1 -1</clus>
<clus scale="  247.929">  2  5  1 -1</clus>
<clus scale="   70.193">  1  5  2 -1</clus>
</clustering>
</event>
<event>
10    2  0.3984345E-006  0.9333712E+02  0.7546771E-02  0.1295803E+00
         21   -1    0    0  501  502  0.00000000000E+00  0.00000000000E+00  0.69670991721E+03  0.69670991721E+03  0.00000000000E+00 0. -1.
          1   -1    0    0  503    0 -0.00000000000E+00 -0.00000000000E+00 -0.41740105075E+02  0.41740105075E+02  0.00000000000E+00 0. -1.
         23    2    1    2    0    0  0.19952743969E+01 -0.83777089013E+01  0.14775410328E+03  0.17313675008E+03  0.89838143698E+02 0.  0.
         23    2    1    2    0    0  0.29682410530E+02  0.12995942436E+02  0.34134767747E+03  0.35483192523E+03  0.91310011687E+02 0.  0.
        -11    1    4    4    0    0  0.56519351570E+02 -0.89988080768E+01  0.15383810548E+03  0.16413889956E+03  0.00000000000E+00 0. -1.
         11    1    4    4    0    0 -0.26836941041E+02  0.21994750513E+02  0.18750957198E+03  0.19069302567E+03  0.00000000000E+00 0.  1.
        -13    1    3    3    0    0  0.90759696841E+01  0.38764873298E+02  0.46456610792E+02  0.61182557267E+02  0.00000000000E+00 0.  1.
         13    1    3    3    0    0 -0.70806952872E+01 -0.47142582199E+02  0.10129749249E+03  0.11195419281E+03  0.00000000000E+00 0. -1.
         21    1    1    2  503  502  0.49580358387E+00 -0.26045869040E+02 -0.11841865290E+02  0.28615780415E+02  0.00000000000E+00 0. -1.
          1    1    1    2  501    0 -0.32173488510E+02  0.21427635505E+02  0.17770989667E+03  0.18186556656E+03  0.00000000000E+00 0. -1.
<scales pt_clust_5="13000.00000" pt_clust_6="13000.00000" pt_clust_7="13000.00000" pt_clust_8="13000.00000" pt_clust_9="26.05059" pt_clust_10="37.27881"></scales>
<clustering>
<clus scale="   26.051">  2  9  1 -1</clus>
<clus scale="   37.279">  1 10  2 -1</clus>
<clus scale="   89.838">  7  8 -1 -1</clus>
<clus scale="   91.310">  5  6 -1 -1</clus>
<clus scale="   91.898">  2  7  1 -1</clus>
<clus scale="   37.279">  1  5  2 -1</clus>
</clustering>
</event>
<event>
10    2  0.3984345E-006  0.3370723E+03  0.7546771E-02  0.1068129E+00
          1   -1    0    0  503    0 -0.00000000000E+00  0.00000000000E+00  0.11867452830E+04  0.11867452830E+04  0.00000000000E+00 0. -1.
         21   -1    0    0  501  502  0.00000000000E+00 -0.00000000000E+00 -0.19074885716E+03  0.19074885716E+03  0.00000000000E+00 0.  1.
         23    2    1    2    0    0  0.79464296096E+02 -0.26821277695E+03  0.40524228401E+03  0.50171899636E+03  0.96166389558E+02 0.  0.
         23    2    1    2    0    0 -0.18309946434E+03  0.36221814461E+03  0.24444264467E+03  0.48396267406E+03  0.98692782054E+02 0.  0.
        -11    1    4    4    0    0 -0.74028348396E+01  0.25710721926E+02 -0.81767369304E+01  0.27976815624E+02  0.00000000000E+00 0. -1.
         11    1    4    4    0    0 -0.17569662950E+03  0.33650742268E+03  0.25261938160E+03  0.45598585844E+03  0.00000000000E+00 0.  1.
        -13    1    3    3    0    0  0.44754181611E+02 -0.20434890157E+03  0.22424192579E+03  0.30666896098E+03  0.00000000000E+00 0. -1.
         13    1    3    3    0    0  0.34710114485E+02 -0.63863875385E+02  0.18100035822E+03  0.19505003538E+03  0.00000000000E+00 0.  1.
         21    1    1    2  503  502 -0.24003402495E+02 -0.33101678898E+02  0.95313409926E+02  0.10371369528E+03  0.00000000000E+00 0.  1.
          1    1    1    2  501    0  0.12763857074E+03 -0.60903688759E+02  0.25099808726E+03  0.28809877447E+03  0.00000000000E+00 0. -1.
<scales pt_clust_5="13000.00000" pt_clust_6="13000.00000" pt_clust_7="13000.00000" pt_clust_8="13000.00000" pt_clust_9="40.88868" pt_clust_10="139.94330"></scales>
<clustering>
<clus scale="   40.889">  1  9  2 -1</clus>
<clus scale="   96.166">  7  8 -1 -1</clus>
<clus scale="   98.693">  5  6 -1 -1</clus>
<clus scale="  139.943">  2 10  1 -1</clus>
<clus scale="  336.341">  1  7  2 -1</clus>
<clus scale="  139.943">  2  5  1 -1</clus>
</clustering>
</event>
<event>
10    2  0.3984345E-006  0.9517139E+02  0.7546771E-02  0.1294285E+00
          2   -1    0    0  503    0 -0.00000000000E+00  0.00000000000E+00  0.72992259499E+03  0.72992259499E+03  0.00000000000E+00 0. -1.
         21   -1    0    0  501  502  0.00000000000E+00 -0.00000000000E+00 -0.19120010200E+03  0.19120010200E+03  0.00000000000E+00 0. -1.
         23    2    1    2    0    0 -0.23781432998E+02  0.44325301388E+02  0.43562160194E+03  0.44648185167E+03  0.83961746589E+02 0.  0.
         23    2    1    2    0    0  0.10386666531E+02  0.66286591368E+01  0.37408741197E+02  0.98528475644E+02  0.90314033413E+02 0.  0.
        -13    1    3    3    0    0 -0.48870233567E+02  0.42185669401E+02  0.37974670851E+03  0.38519539595E+03  0.00000000000E+00 0. -1.
         13    1    3    3    0    0  0.25088800569E+02  0.21396319865E+01  0.55874893429E+02  0.61286455720E+02  0.00000000000E+00 0.  1.
        -13    1    4    4    0    0 -0.39013058702E+02  0.10693374087E+02  0.24558317645E+02  0.47323122934E+02  0.00000000000E+00 0. -1.
         13    1    4    4    0    0  0.49399725233E+02 -0.40647149499E+01  0.12850423552E+02  0.51205352710E+02  0.00000000000E+00 0.  1.
         21    1    1    2  503  502 -0.67262463051E+01 -0.30647523856E+02  0.21845547044E+03  0.22069731686E+03  0.00000000000E+00 0. -1.
          2    1    1    2  501    0  0.20121012773E+02 -0.20306436669E+02 -0.15276332059E+03  0.15541505282E+03  0.00000000000E+00 0. -1.
<scales pt_clust_5="13000.00000" pt_clust_6="13000.00000" pt_clust_7="13000.00000" pt_clust_8="13000.00000" pt_clust_9="31.85401" pt_clust_10="28.58682"></scales>
<clustering>
<clus scale="   28.587">  2 10  1 -1</clus>
<clus scale="   31.854">  1  9  2 -1</clus>
<clus scale="   83.962">  5  6 -1 -1</clus>
<clus scale="   89.166">  1  5  2 -1</clus>
<clus scale="   90.314">  7  8 -1 -1</clus>
<clus scale="   28.587">  2  5  1 -1</clus>
</clustering>
</event>
<event>
10    2  0.3984345E-006  0.1221858E+03  0.7546771E-02  0.1239548E+00
         21   -1    0    0  503  502  0.00000000000E+00  0.00000000000E+00  0.12230302591E+03  0.12230302591E+03  0.00000000000E+00 0.  1.
         -3   -1    0    0    0  501 -0.00000000000E+00 -0.00000000000E+00 -0.48364973645E+03  0.48364973645E+03  0.00000000000E+00 0.  1.
         23    2    1    2    0    0  0.45760256473E+02  0.10972340395E+03 -0.19034793786E+03  0.24225548820E+03  0.91225860726E+02 0.  0.
         23    2    1    2    0    0 -0.37452748982E+02 -0.37848744031E+02 -0.11865086169E+03  0.15888392388E+03  0.91273426899E+02 0.  0.
        -11    1    3    3    0    0  0.70837366945E+02  0.78514628239E+02 -0.16096989282E+03  0.19259747090E+03  0.00000000000E+00 0. -1.
         11    1    3    3    0    0 -0.25077110472E+02  0.31208775711E+02 -0.29378045045E+02  0.49658017295E+02  0.00000000000E+00 0.  1.
        -13    1    4    4    0    0 -0.27526162760E+02  0.54014417920E+01 -0.11019684050E+03  0.11371107626E+03  0.00000000000E+00 0.  1.
         13    1    4    4    0    0 -0.99265862213E+01 -0.43250185823E+02 -0.84540211941E+01  0.45172847620E+02  0.00000000000E+00 0. -1.
         21    1    1    2  503  501 -0.18661983945E+02 -0.35632234255E+02 -0.12044314427E+03  0.12698219074E+03  0.00000000000E+00 0.  1.
         -3    1    1    2    0  502  0.10354476454E+02 -0.36242425664E+02  0.68095233279E+02  0.77831159544E+02  0.00000000000E+00 0.  1.
<scales pt_clust_5="13000.00000" pt_clust_6="13000.00000" pt_clust_7="13000.00000" pt_clust_8="13000.00000" pt_clust_9="42.06786" pt_clust_10="37.69255"></scales>
<clustering>
<clus scale="   37.693">  1 10  2 -1</clus>
<clus scale="   42.068">  2  9  1 -1</clus>
<clus scale="   91.226">  5  6 -1 -1</clus>
<clus scale="   91.273">  7  8 -1 -1</clus>
<clus scale="  122.150">  2  5  1 -1</clus>
<clus scale="   37.693">  1  5  2 -1</clus>
</clustering>
</event>
<event>
10    2  0.3984345E-006  0.2100870E+03  0.7546771E-02  0.1173183E+00
          1   -1    0    0  503    0 -0.00000000000E+00  0.00000000000E+00  0.52803756353E+03  0.52803756353E+03  0.00000000000E+00 0. -1.
         21   -1    0    0  501  502  0.00000000000E+00 -0.00000000000E+00 -0.49808790251E+03  0.49808790251E+03  0.00000000000E+00 0. -1.
         23    2    1    2    0    0  0.42021537365E+02  0.19052421795E+02  0.22396632932E+03  0.24623512455E+03  0.91334634794E+02 0.  0.
         23    2    1    2    0    0 -0.15024029770E+03 -0.39888764026E+02 -0.44438965286E+02  0.18433273375E+03  0.88546454170E+02 0.  0.
        -11    1    3    3    0    0 -0.25039907336E+02  0.80539943724E+01  0.11375476822E+03  0.11675620359E+03  0.00000000000E+00 0.  1.
         11    1    3    3    0    0  0.67061444702E+02  0.10998427422E+02  0.11021156110E+03  0.12947892095E+03  0.00000000000E+00 0. -1.
        -13    1    4    4    0    0 -0.68008989355E+02 -0.54374648440E+02 -0.50425619381E+02  0.10062091292E+03  0.00000000000E+00 0. -1.
         13    1    4    4    0    0 -0.82231308346E+02  0.14485884414E+02  0.59866540957E+01  0.83711820831E+02  0.00000000000E+00 0.  1.
         21    1    1    2  503  502  0.16298875389E+03  0.87058441724E+02  0.17819531689E+03  0.25670620782E+03  0.00000000000E+00 0. -1.
          1    1    1    2  501    0 -0.54769993551E+02 -0.66222099493E+02 -0.32777301990E+03  0.33885139992E+03  0.00000000000E+00 0. -1.
<scales pt_clust_5="13000.00000" pt_clust_6="13000.00000" pt_clust_7="13000.00000" pt_clust_8="13000.00000" pt_clust_9="190.51524" pt_clust_10="85.93671"></scales>
<clustering>
<clus scale="   85.937">  2 10  1 -1</clus>
<clus scale="   88.546">  7  8 -1 -1</clus>
<clus scale="   91.335">  5  6 -1 -1</clus>
<clus scale="  100.115">  1  5  2 -1</clus>
<clus scale="  190.515">  1  9  2 -1</clus>
<clus scale="   85.937">  2  5  1 -1</clus>
</clustering>
</event>
<event>
10    2  0.3984345E-006  0.9343265E+02  0.7546771E-02  0.1295372E+00
         -1   -1    0    0    0  501 -0.00000000000E+00  0.00000000000E+00  0.31637196385E+03  0.31637196385E+03  0.00000000000E+00 0.  1.
         21   -1    0    0  503  502  0.00000000000E+00 -0.00000000000E+00 -0.22065739732E+03  0.22065739732E+03  0.00000000000E+00 0. -1.
         23    2    1    2    0    0 -0.20998126530E+02 -0.11614045155E+02  0.17192392278E+03  0.19641599482E+03  0.91899947956E+02 0.  0.
         23    2    1    2    0    0 -0.24156547213E+02  0.22518381578E+02 -0.44166365563E+02  0.10623606544E+03  0.90800977256E+02 0.  0.
        -13    1    4    4    0    0 -0.44917009408E+02 -0.19578242333E+02 -0.16242137644E+02  0.51620270653E+02  0.00000000000E+00 0.  1.
         13    1    4    4    0    0  0.20760462195E+02  0.42096623911E+02 -0.27924227919E+02  0.54615794786E+02  0.00000000000E+00 0. -1.
        -13    1    3    3    0    0 -0.15582828340E+02 -0.50125590771E+02  0.12430682624E+03  0.13493548992E+03  0.00000000000E+00 0.  1.
         13    1    3    3    0    0 -0.54152981908E+01  0.38511545616E+02  0.47617096537E+02  0.61480504901E+02  0.00000000000E+00 0. -1.
         21    1    1    2  503  501  0.41254735264E+02  0.88384333446E+01  0.95947647952E+02  0.10481422725E+03  0.00000000000E+00 0. -1.
         -1    1    1    2    0  502  0.38999384799E+01 -0.19742769767E+02 -0.12799063864E+03  0.12956307366E+03  0.00000000000E+00 0.  1.
<scales pt_clust_5="13000.00000" pt_clust_6="13000.00000" pt_clust_7="13000.00000" pt_clust_8="13000.00000" pt_clust_9="42.18650" pt_clust_10="20.12428"></scales>
<clustering>
<clus scale="   20.124">  2 10  1 -1</clus>
<clus scale="   42.187">  1  9  2 -1</clus>
<clus scale="   90.801">  5  6 -1 -1</clus>
<clus scale="   91.900">  7  8 -1 -1</clus>
<clus scale="   92.352">  2  5  1 -1</clus>
<clus scale="   20.124">  2  5  1 -1</clus>
</clustering>
</event>
<event>
10    2  0.3984345E-006  0.1053310E+03  0.7546771E-02  0.1271599E+00
         21   -1    0    0  503  502  0.00000000000E+00  0.00000000000E+00  0.94142311430E+02  0.94142311430E+02  0.00000000000E+00 0. -1.
         -4   -1    0    0    0  501 -0.00000000000E+00 -0.00000000000E+00 -0.28422247049E+03  0.28422247049E+03  0.00000000000E+00 0.  1.
         23    2    1    2    0    0 -0.30402501236E+02 -0.32099332286E+02 -0.79749133747E+02  0.12662273450E+03  0.87856208344E+02 0.  0.
         23    2    1    2    0    0  0.47784729716E+02  0.18019342269E+02 -0.36287437910E+02  0.11189395032E+03  0.92711384836E+02 0.  0.
        -11    1    3    3    0    0 -0.23264420458E+02  0.16881438760E+02 -0.70679146127E+02  0.76300445157E+02  0.00000000000E+00 0.  1.
         11    1    3    3    0    0 -0.71380807783E+01 -0.48980771046E+02 -0.90699876206E+01  0.50322289345E+02  0.00000000000E+00 0. -1.
        -13    1    4    4    0    0  0.39820542024E+02 -0.32275310447E+02 -0.36002366465E+01  0.51384170086E+02  0.00000000000E+00 0.  1.
         13    1    4    4    0    0  0.79641876913E+01  0.50294652716E+02 -0.32687201263E+02  0.60509780233E+02  0.00000000000E+00 0. -1.
         21    1    1    2  503  501 -0.44054431574E+02  0.89859213115E+01 -0.95293217673E+02  0.10536762813E+03  0.00000000000E+00 0. -1.
         -4    1    1    2    0  502  0.26672203095E+02  0.50940687055E+01  0.21249630269E+02  0.34480468971E+02  0.00000000000E+00 0.  1.
<scales pt_clust_5="13000.00000" pt_clust_6="13000.00000" pt_clust_7="13000.00000" pt_clust_8="13000.00000" pt_clust_9="43.05982" pt_clust_10="27.15430"></scales>
<clustering>
<clus scale="   27.154">  1 10  2 -1</clus>
<clus scale="   43.060">  2  9  1 -1</clus>
<clus scale="   87.856">  5  6 -1 -1</clus>
<clus scale="   92.711">  7  8 -1 -1</clus>
<clus scale="  101.084">  2  5  1 -1</clus>
<clus scale="   27.154">  1  5  2 -1</clus>
</clustering>
</event>
<event>
10    2  0.3984345E-006  0.1349094E+03  0.7546771E-02  0.1223148E+00
         21   -1    0    0  501  502  0.00000000000E+00  0.00000000000E+00  0.11131508766E+03  0.11131508766E+03  0.00000000000E+00 0.  1.
          1   -1    0    0  503    0 -0.00000000000E+00 -0.00000000000E+00 -0.47168391423E+03  0.47168391423E+03  0.00000000000E+00 0. -1.
         23    2    1    2    0    0 -0.37273486507E+02  0.90235746992E+02 -0.26292240187E+03  0.29567971108E+03  0.93629585661E+02 0.  0.
         23    2    1    2    0    0 -0.48309576596E+02 -0.44543549002E+02 -0.36164257081E+02  0.12808588019E+03  0.10382772398E+03 0.  0.
        -11    1    4    4    0    0 -0.49138442021E+02 -0.16875161610E+02  0.27413179283E+02  0.58743850419E+02  0.00000000000E+00 0.  1.
         11    1    4    4    0    0  0.82886542505E+00 -0.27668387392E+02 -0.63577436364E+02  0.69342029775E+02  0.00000000000E+00 0. -1.
        -13    1    3    3    0    0 -0.13001592161E+02  0.23125805097E+02 -0.36679225387E+01  0.26782418036E+02  0.00000000000E+00 0.  1.
         13    1    3    3    0    0 -0.24271894346E+02  0.67109941896E+02 -0.25925447933E+03  0.26889729305E+03  0.00000000000E+00 0. -1.
         21    1    1    2  503  502  0.88308543979E+01  0.27695204898E+02 -0.42351446782E+02  0.51367824641E+02  0.00000000000E+00 0. -1.
          1    1    1    2  501    0  0.76752208705E+02 -0.73387402888E+02 -0.18930720838E+02  0.10786558596E+03  0.00000000000E+00 0. -1.
<scales pt_clust_5="13000.00000" pt_clust_6="13000.00000" pt_clust_7="13000.00000" pt_clust_8="13000.00000" pt_clust_9="29.06903" pt_clust_10="104.36043"></scales>
<clustering>
<clus scale="   29.069">  2  9  1 -1</clus>
<clus scale="   93.630">  7  8 -1 -1</clus>
<clus scale="  103.828">  5  6 -1 -1</clus>
<clus scale="  104.360">  1 10  2 -1</clus>
<clus scale="  127.228">  2  7  1 -1</clus>
<clus scale="  104.360">  1  5  2 -1</clus>
</clustering>
</event>
<event>
10    2  0.3984345E-006  0.1129351E+03  0.7546771E-02  0.1255971E+00
         21   -1    0    0  501  502  0.00000000000E+00  0.00000000000E+00  0.10828289547E+03  0.10828289547E+03  0.00000000000E+00 0. -1.
          1   -1    0    0  503    0 -0.00000000000E+00 -0.00000000000E+00 -0.58768046636E+03  0.58768046636E+03  0.00000000000E+00 0. -1.
         23    2    1    2    0    0 -0.19728286138E+02  0.11336908642E+03 -0.32335529421E+03  0.35489376716E+03  0.90272834473E+02 0.  0.
         23    2    1    2    0    0  0.30770644854E+02 -0.28931117114E+01 -0.94812795374E+02  0.13587917123E+03  0.92295613810E+02 0.  0.
        -11    1    3    3    0    0  0.31256493570E+02  0.65840710903E+02 -0.12560811622E+03  0.14522178370E+03  0.00000000000E+00 0.  1.
         11    1    3    3    0    0 -0.50984779709E+02  0.47528375520E+02 -0.19774717799E+03  0.20967198346E+03  0.00000000000E+00 0. -1.
        -11    1    4    4    0    0  0.61297426790E+02 -0.11024650735E+02 -0.78861878161E+02  0.10048936900E+03  0.00000000000E+00 0.  1.
         11    1    4    4    0    0 -0.30526781936E+02  0.81315390234E+01 -0.15950917213E+02  0.35389802234E+02  0.00000000000E+00 0. -1.
         21    1    1    2  503  502  0.13975619190E+02 -0.23707165177E+02 -0.10233556390E+03  0.10597129447E+03  0.00000000000E+00 0.  1.
          1    1    1    2  501    0 -0.25017977906E+02 -0.86768809535E+02  0.41106082600E+02  0.99219128969E+02  0.00000000000E+00 0. -1.
<scales pt_clust_5="13000.00000" pt_clust_6="13000.00000" pt_clust_7="13000.00000" pt_clust_8="13000.00000" pt_clust_9="27.51995" pt_clust_10="91.44761"></scales>
<clustering>
<clus scale="   27.520">  2  9  1 -1</clus>
<clus scale="   90.273">  5  6 -1 -1</clus>
<clus scale="   91.448">  1 10  2 -1</clus>
<clus scale="   92.296">  7  8 -1 -1</clus>
<clus scale="  111.288">  2  5  1 -1</clus>
<clus scale="   91.448">  1  5  2 -1</clus>
</clustering>
</event>
<event>
10    2  0.3984345E-006  0.1359969E+03  0.7546771E-02  0.1219763E+00
         21   -1    0    0  503  502  0.00000000000E+00  0.00000000000E+00  0.14711414173E+03  0.14711414173E+03  0.00000000000E+00 0. -1.
         -3   -1    0    0    0  501 -0.00000000000E+00 -0.00000000000E+00 -0.23619433175E+03  0.23619433175E+03  0.00000000000E+00 0.  1.
         23    2    1    2    0    0 -0.84329872992E+02  0.25573187254E+02 -0.10320400482E+03  0.16407682945E+03  0.92220518145E+02 0.  0.
         23    2    1    2    0    0  0.97413230789E+02 -0.26277863820E+02  0.25617622456E+02  0.13646047880E+03  0.88234551253E+02 0.  0.
        -13    1    4    4    0    0  0.75652766481E+02 -0.54496073624E+02  0.11668291284E+01  0.93244434723E+02  0.00000000000E+00 0. -1.
         13    1    4    4    0    0  0.21760464308E+02  0.28218209804E+02  0.24450793328E+02  0.43216044079E+02  0.00000000000E+00 0.  1.
        -13    1    3    3    0    0  0.13706717537E+02  0.19321961156E+02 -0.32180418580E+01  0.23907490081E+02  0.00000000000E+00 0. -1.
         13    1    3    3    0    0 -0.98036590529E+02  0.62512260972E+01 -0.99985962965E+02  0.14016933937E+03  0.00000000000E+00 0.  1.
         21    1    1    2  503  501 -0.14238628453E+02  0.23287693950E+02 -0.38723277443E+02  0.47376655070E+02  0.00000000000E+00 0. -1.
         -3    1    1    2    0  502  0.11552706557E+01 -0.22583017384E+02  0.27229469783E+02  0.35394510155E+02  0.00000000000E+00 0.  1.
<scales pt_clust_5="13000.00000" pt_clust_6="13000.00000" pt_clust_7="13000.00000" pt_clust_8="13000.00000" pt_clust_9="26.55638" pt_clust_10="22.61255"></scales>
<clustering>
<clus scale="   22.613">  1 10  2 -1</clus>
<clus scale="   26.556">  2  9  1 -1</clus>
<clus scale="   88.235">  5  6 -1 -1</clus>
<clus scale="   92.221">  7  8 -1 -1</clus>
<clus scale="  133.326">  1  5  2 -1</clus>
<clus scale="   22.613">  1  5  2 -1</clus>
</clustering>
</event>
<event>
10    2  0.3984345E-006  0.9425088E+02  0.7546771E-02  0.1294473E+00
         21   -1    0    0  503  502  0.00000000000E+00  0.00000000000E+00  0.35934669411E+02  0.35934669411E+02  0.00000000000E+00 0.  1.
         -1   -1    0    0    0  501 -0.00000000000E+00 -0.00000000000E+00 -0.63917678827E+03  0.63917678827E+03  0.00000000000E+00 0.  1.
         23    2    1    2    0    0 -0.28328621013E+02 -0.14054582370E+02 -0.38931300047E+03  0.40039278691E+03  0.88032547503E+02 0.  0.
         23    2    1    2    0    0  0.32931112215E+01  0.14273021971E+02 -0.16221915632E+03  0.18653020538E+03  0.90905990474E+02 0.  0.
        -11    1    4    4    0    0  0.45518828898E+02 -0.15008165974E+01 -0.98053155146E+02  0.10811400219E+03  0.00000000000E+00 0. -1.
         11    1    4    4    0    0 -0.42225717677E+02  0.15773838569E+02 -0.64166001170E+02  0.78416203189E+02  0.00000000000E+00 0.  1.
        -11    1    3    3    0    0 -0.55528611308E+02  0.42299261812E+01 -0.30282623609E+03  0.30790428418E+03  0.00000000000E+00 0.  1.
         11    1    3    3    0    0  0.27199990294E+02 -0.18284508551E+02 -0.86486764374E+02  0.92488502728E+02  0.00000000000E+00 0. -1.
         21    1    1    2  503  501  0.45170262687E+02 -0.11343933827E+02 -0.43600586741E+02  0.63796932764E+02  0.00000000000E+00 0.  1.
         -1    1    1    2    0  502 -0.20134752895E+02  0.11125494225E+02 -0.81093753322E+01  0.24391532633E+02  0.00000000000E+00 0.  1.
<scales pt_clust_5="13000.00000" pt_clust_6="13000.00000" pt_clust_7="13000.00000" pt_clust_8="13000.00000" pt_clust_9="38.55253" pt_clust_10="23.00402"></scales>
<clustering>
<clus scale="   23.004">  1 10  2 -1</clus>
<clus scale="   38.553">  1  9  2 -1</clus>
<clus scale="   88.033">  7  8 -1 -1</clus>
<clus scale="   90.906">  5  6 -1 -1</clus>
<clus scale="   91.483">  2  7  1 -1</clus>
<clus scale="   23.004">  1  5  2 -1</clus>
</clustering>
</event>
<event>
10    2  0.3984345E-006  0.1209188E+03  0.7546771E-02  0.1245130E+00
          2   -1    0    0  503    0 -0.00000000000E+00  0.00000000000E+00  0.30816123043E+03  0.30816123043E+03  0.00000000000E+00 0. -1.
         21   -1    0    0  501  502  0.00000000000E+00 -0.00000000000E+00 -0.13783142568E+03  0.13783142568E+03  0.00000000000E+00 0.  1.
         23    2    1    2    0    0  0.41122439304E+02  0.59809296728E+02  0.10593883621E+03  0.15497883246E+03  0.86759405862E+02 0.  0.
         23    2    1    2    0    0 -0.22391302314E+02 -0.37947362838E+02 -0.74767113015E+02  0.13041276650E+03  0.97344726169E+02 0.  0.
        -11    1    4    4    0    0 -0.46622930819E+02  0.31434100983E+01 -0.65715179658E+01  0.47188595588E+02  0.00000000000E+00 0. -1.
         11    1    4    4    0    0  0.24231628505E+02 -0.41090772936E+02 -0.68195595049E+02  0.83224170915E+02  0.00000000000E+00 0.  1.
        -11    1    3    3    0    0  0.61400783031E+02  0.66874975774E+02  0.77664189361E+02  0.11947403421E+03  0.00000000000E+00 0. -1.
         11    1    3    3    0    0 -0.20278343727E+02 -0.70656790459E+01  0.28274646844E+02  0.35504798251E+02  0.00000000000E+00 0.  1.
         21    1    1    2  503  502 -0.12526082427E+02  0.20248454745E+02  0.99892988268E+02  0.10269134221E+03  0.00000000000E+00 0. -1.
          2    1    1    2  501    0 -0.62050545627E+01 -0.42110388636E+02  0.39265093291E+02  0.57909714939E+02  0.00000000000E+00 0. -1.
<scales pt_clust_5="13000.00000" pt_clust_6="13000.00000" pt_clust_7="13000.00000" pt_clust_8="13000.00000" pt_clust_9="23.80972" pt_clust_10="38.45827"></scales>
<clustering>
<clus scale="   23.810">  1  9  2 -1</clus>
<clus scale="   38.458">  2 10  1 -1</clus>
<clus scale="   86.759">  7  8 -1 -1</clus>
<clus scale="   97.345">  5  6 -1 -1</clus>
<clus scale="  112.572">  1  7  2 -1</clus>
<clus scale="   38.458">  2  5  1 -1</clus>
</clustering>
</event>
<event>
10    2  0.3984345E-006  0.2240137E+03  0.7546771E-02  0.1131454E+00
         21   -1    0    0  501  502  0.00000000000E+00  0.00000000000E+00  0.17997208101E+03  0.17997208101E+03  0.00000000000E+00 0.  1.
          2   -1    0    0  503    0 -0.00000000000E+00 -0.00000000000E+00 -0.58932122489E+03  0.58932122489E+03  0.00000000000E+00 0. -1.
         23    2    1    2    0    0  0.22487350501E+03  0.18972256990E+02 -0.22197204284E+03  0.32876562267E+03  0.88809949078E+02 0.  0.
         23    2    1    2    0    0 -0.18128974837E+03 -0.21120127610E+02 -0.11213255639E+03  0.23463835331E+03  0.95757057117E+02 0.  0.
        -11    1    4    4    0    0 -0.12894683384E+03 -0.37049786193E+02 -0.11920378197E+03  0.17947009291E+03  0.00000000000E+00 0. -1.
         11    1    4    4    0    0 -0.52342914532E+02  0.15929658582E+02  0.70712255802E+01  0.55168260400E+02  0.00000000000E+00 0.  1.
        -13    1    3    3    0    0  0.11674493806E+03  0.45593094419E+02 -0.15299248712E+03  0.19777464938E+03  0.00000000000E+00 0.  1.
         13    1    3    3    0    0  0.10812856695E+03 -0.26620837429E+02 -0.68979555719E+02  0.13099097329E+03  0.00000000000E+00 0. -1.
         21    1    1    2  503  502 -0.24817782811E+02 -0.18000914350E+02 -0.13587960112E+03  0.13929544595E+03  0.00000000000E+00 0. -1.
          2    1    1    2  501    0 -0.18765973829E+02  0.20148784971E+02  0.60635056466E+02  0.66593883970E+02  0.00000000000E+00 0. -1.
<scales pt_clust_5="13000.00000" pt_clust_6="13000.00000" pt_clust_7="13000.00000" pt_clust_8="13000.00000" pt_clust_9="30.71064" pt_clust_10="27.53426"></scales>
<clustering>
<clus scale="   27.534">  1 10  2 -1</clus>
<clus scale="   30.711">  2  9  1 -1</clus>
<clus scale="   88.810">  7  8 -1 -1</clus>
<clus scale="   95.757">  5  6 -1 -1</clus>
<clus scale="  221.133">  2  7  1 -1</clus>
<clus scale="   27.534">  1  5  2 -1</clus>
</clustering>
</event>
<event>
10    2  0.3984345E-006  0.1228362E+03  0.7546771E-02  0.1248318E+00
         -1   -1    0    0    0  501 -0.00000000000E+00  0.00000000000E+00  0.81902503865E+03  0.81902503865E+03  0.00000000000E+00 0.  1.
         21   -1    0    0  503  502  0.00000000000E+00 -0.00000000000E+00 -0.91621772635E+02  0.91621772635E+02  0.00000000000E+00 0.  1.
         23    2    1    2    0    0  0.25583976601E+02 -0.37143547468E+02  0.14342298616E+03  0.17662838136E+03  0.92699779749E+02 0.  0.
         23    2    1    2    0    0 -0.21275456335E+02  0.12938054497E+03  0.45889318245E+03  0.48057592597E+03  0.56376389221E+02 0.  0.
        -11    1    4    4    0    0 -0.36729117538E+02  0.10822706193E+03  0.40219221093E+03  0.41811565331E+03  0.00000000000E+00 0.  1.
         11    1    4    4    0    0  0.15453661202E+02  0.21153483039E+02  0.56700971514E+02  0.62460272653E+02  0.00000000000E+00 0. -1.
        -11    1    3    3    0    0  0.37549793104E+02 -0.87596904854E+00  0.11488634410E+02  0.39277767306E+02  0.00000000000E+00 0.  1.
         11    1    3    3    0    0 -0.11965816503E+02 -0.36267578420E+02  0.13193435175E+03  0.13735061406E+03  0.00000000000E+00 0. -1.
         21    1    1    2  503  501 -0.24848695789E+02  0.12780658974E+02  0.14233671837E+03  0.14505359121E+03  0.00000000000E+00 0. -1.
         -1    1    1    2    0  502  0.20540175523E+02 -0.10501765648E+03 -0.17249620971E+02  0.10838891274E+03  0.00000000000E+00 0.  1.
<scales pt_clust_5="13000.00000" pt_clust_6="13000.00000" pt_clust_7="13000.00000" pt_clust_8="13000.00000" pt_clust_9="27.94285" pt_clust_10="109.13496"></scales>
<clustering>
<clus scale="   27.943">  1  9  2 -1</clus>
<clus scale="   56.376">  5  6 -1 -1</clus>
<clus scale="   92.700">  7  8 -1 -1</clus>
<clus scale="  100.722">  1  7  2 -1</clus>
<clus scale="  109.135">  2 10  1 -1</clus>
<clus scale="  109.135">  2  5  1 -1</clus>
</clustering>
</event>
<event>
10    2  0.3984345E-006  0.1687161E+03  0.7546771E-02  0.1179392E+00
         21   -1    0    0  501  502  0.00000000000E+00  0.00000000000E+00  0.16764438319E+03  0.16764438319E+03  0.00000000000E+00 0. -1.
          2   -1    0    0  503    0 -0.00000000000E+00 -0.00000000000E+00 -0.57933169514E+03  0.57933169514E+03  0.00000000000E+00 0. -1.
         23    2    1    2    0    0 -0.30391211606E+02 -0.11178987159E+03 -0.12832976256E+03  0.19577813142E+03  0.91869187705E+02 0.  0.
         23    2    1    2    0    0  0.19145773303E+03  0.10597629316E+03 -0.64764744139E+02  0.24652560007E+03  0.93238195804E+02 0.  0.
        -11    1    3    3    0    0 -0.16147454704E+02 -0.90193591248E+02 -0.33623672022E+02  0.97602128644E+02  0.00000000000E+00 0.  1.
         11    1    3    3    0    0 -0.14243756902E+02 -0.21596280342E+02 -0.94706090542E+02  0.98176002776E+02  0.00000000000E+00 0. -1.
        -11    1    4    4    0    0  0.12267949946E+03  0.62073673190E+02  0.72706588351E+01  0.13768174524E+03  0.00000000000E+00 0. -1.
         11    1    4    4    0    0  0.68778233566E+02  0.43902619970E+02 -0.72035402974E+02  0.10884385483E+03  0.00000000000E+00 0.  1.
         21    1    1    2  503  502 -0.15853855602E+02 -0.25973300127E+02 -0.12581912641E+03  0.12944655124E+03  0.00000000000E+00 0.  1.
          2    1    1    2  501    0 -0.14521266582E+03  0.31786878557E+02 -0.92773678840E+02  0.17522579561E+03  0.00000000000E+00 0. -1.
<scales pt_clust_5="13000.00000" pt_clust_6="13000.00000" pt_clust_7="13000.00000" pt_clust_8="13000.00000" pt_clust_9="30.42954" pt_clust_10="151.83777"></scales>
<clustering>
<clus scale="   30.430">  2  9  1 -1</clus>
<clus scale="   91.869">  5  6 -1 -1</clus>
<clus scale="   93.238">  7  8 -1 -1</clus>
<clus scale="  151.838">  1 10  2 -1</clus>
<clus scale="  167.963">  2  5  1 -1</clus>
<clus scale="  151.838">  1  5  2 -1</clus>
</clustering>
</event>
<event>
10    2  0.3984345E-006  0.2166037E+03  0.7546771E-02  0.1136876E+00
         21   -1    0    0  501  502  0.00000000000E+00  0.00000000000E+00  0.14663495946E+04  0.14663495946E+04  0.00000000000E+00 0. -1.
          1   -1    0    0  503    0 -0.00000000000E+00 -0.00000000000E+00 -0.35066166603E+03  0.35066166603E+03  0.00000000000E+00 0. -1.
         23    2    1    2    0    0 -0.17953801676E+03 -0.13175810114E+03 -0.27091934229E+03  0.36221215957E+03  0.90588420001E+02 0.  0.
         23    2    1    2    0    0  0.21984868531E+03  0.98052757625E+02  0.91050891952E+03  0.94665745151E+03  0.95843884812E+02 0.  0.
        -11    1    3    3    0    0 -0.29910224827E+02  0.11994367237E+02 -0.46439247333E+02  0.56525127930E+02  0.00000000000E+00 0.  1.
         11    1    3    3    0    0 -0.14962779193E+03 -0.14375246838E+03 -0.22448009495E+03  0.30568703164E+03  0.00000000000E+00 0. -1.
        -13    1    4    4    0    0  0.81527811570E+02  0.63887586484E+02  0.53696828155E+03  0.54686684225E+03  0.00000000000E+00 0.  1.
         13    1    4    4    0    0  0.13832087374E+03  0.34165171141E+02  0.37354063797E+03  0.39979060926E+03  0.00000000000E+00 0. -1.
         21    1    1    2  503  502  0.21400074609E+02  0.27238167442E+02  0.74856749071E+01  0.35438909234E+02  0.00000000000E+00 0.  1.
          1    1    1    2  501    0 -0.61710743159E+02  0.64671760764E+01  0.46861267639E+03  0.47270274027E+03  0.00000000000E+00 0. -1.
<scales pt_clust_5="13000.00000" pt_clust_6="13000.00000" pt_clust_7="13000.00000" pt_clust_8="13000.00000" pt_clust_9="34.63930" pt_clust_10="61.93692"></scales>
<clustering>
<clus scale="   34.639">  2  9  1 -1</clus>
<clus scale="   61.937">  1 10  2 -1</clus>
<clus scale="   90.588">  5  6 -1 -1</clus>
<clus scale="   95.844">  7  8 -1 -1</clus>
<clus scale="  214.330">  2  5  1 -1</clus>
<clus scale="   61.937">  1  5  2 -1</clus>
</clustering>
</event>
<event>
10    2  0.3984345E-006  0.1040802E+03  0.7546771E-02  0.1272859E+00
         21   -1    0    0  503  502  0.00000000000E+00  0.00000000000E+00  0.21081655730E+03  0.21081655730E+03  0.00000000000E+00 0. -1.
         -3   -1    0    0    0  501 -0.00000000000E+00 -0.00000000000E+00 -0.11503263149E+03  0.11503263149E+03  0.00000000000E+00 0.  1.
         23    2    1    2    0    0 -0.13233922702E+02  0.19599623379E+02  0.14321226762E+02  0.97276681087E+02  0.93265069563E+02 0.  0.
         23    2    1    2    0    0  0.45622089125E+01 -0.73347671677E+02  0.22696856613E+02  0.11932448468E+03  0.91227685784E+02 0.  0.
        -11    1    3    3    0    0  0.21637962602E+02  0.34960485232E+02 -0.20245311468E+02  0.45829134725E+02  0.00000000000E+00 0. -1.
         11    1    3    3    0    0 -0.34871885303E+02 -0.15360861853E+02  0.34566538230E+02  0.51447546362E+02  0.00000000000E+00 0.  1.
        -13    1    4    4    0    0 -0.14505070749E+02 -0.46591470181E+02 -0.29958469114E+02  0.57259689509E+02  0.00000000000E+00 0.  1.
         13    1    4    4    0    0  0.19067279662E+02 -0.26756201497E+02  0.52655325727E+02  0.62064795171E+02  0.00000000000E+00 0. -1.
         21    1    1    2  503  501 -0.29899914100E+00  0.27752130289E+02 -0.14269264460E+02  0.31207083239E+02  0.00000000000E+00 0. -1.
         -3    1    1    2    0  502  0.89707129300E+01  0.25995918010E+02  0.73035106890E+02  0.78040939782E+02  0.00000000000E+00 0.  1.
<scales pt_clust_5="13000.00000" pt_clust_6="13000.00000" pt_clust_7="13000.00000" pt_clust_8="13000.00000" pt_clust_9="29.38074" pt_clust_10="27.50021"></scales>
<clustering>
<clus scale="   27.500">  1 10  2 -1</clus>
<clus scale="   29.381">  2  9  1 -1</clus>
<clus scale="   91.228">  7  8 -1 -1</clus>
<clus scale="   93.265">  5  6 -1 -1</clus>
<clus scale="  102.258">  1  7  2 -1</clus>
<clus scale="   27.500">  1  5  2 -1</clus>
</clustering>
</event>
<event>
10    2  0.3984345E-006  0.1300285E+03  0.7546771E-02  0.1249392E+00
         21   -1    0    0  501  502  0.00000000000E+00  0.00000000000E+00  0.41824169570E+03  0.41824169570E+03  0.00000000000E+00 0. -1.
          2   -1    0    0  503    0 -0.00000000000E+00 -0.00000000000E+00 -0.12917248718E+03  0.12917248718E+03  0.00000000000E+00 0. -1.
         23    2    1    2    0    0  0.16423491790E+02  0.16992356603E+02 -0.39357997913E+02  0.91390975559E+02  0.79023965659E+02 0.  0.
         23    2    1    2    0    0 -0.79406473272E+01  0.66919313562E+02  0.15776556307E+03  0.19663137244E+03  0.96086811435E+02 0.  0.
        -11    1    4    4    0    0  0.21450685418E+02  0.80076422017E+02  0.12962205810E+03  0.15386436629E+03  0.00000000000E+00 0.  1.
         11    1    4    4    0    0 -0.29391332745E+02 -0.13157108455E+02  0.28143504964E+02  0.42767006151E+02  0.00000000000E+00 0. -1.
        -13    1    3    3    0    0  0.47391069305E+02  0.12446765560E+02 -0.13587108316E+02  0.50847270675E+02  0.00000000000E+00 0.  1.
         13    1    3    3    0    0 -0.30967577515E+02  0.45455910430E+01 -0.25770889597E+02  0.40543704884E+02  0.00000000000E+00 0. -1.
         21    1    1    2  503  502 -0.18426967443E+02 -0.10436841185E+03  0.21039691401E+02  0.10805085439E+03  0.00000000000E+00 0. -1.
          2    1    1    2  501    0  0.99441229806E+01  0.20456741682E+02  0.14962195197E+03  0.15134098048E+03  0.00000000000E+00 0. -1.
<scales pt_clust_5="13000.00000" pt_clust_6="13000.00000" pt_clust_7="13000.00000" pt_clust_8="13000.00000" pt_clust_9="87.60557" pt_clust_10="22.74563"></scales>
<clustering>
<clus scale="   22.746">  1 10  2 -1</clus>
<clus scale="   79.024">  7  8 -1 -1</clus>
<clus scale="   83.111">  2  7  1 -1</clus>
<clus scale="   87.606">  2  9  1 -1</clus>
<clus scale="   96.087">  5  6 -1 -1</clus>
<clus scale="   22.746">  1  5  2 -1</clus>
</clustering>
</event>
<event>
10    2  0.3984345E-006  0.1330000E+03  0.7546771E-02  0.1223261E+00
         -1   -1    0    0    0  501 -0.00000000000E+00  0.00000000000E+00  0.47383430486E+03  0.47383430486E+03  0.00000000000E+00 0.  1.
         21   -1    0    0  503  502  0.00000000000E+00 -0.00000000000E+00 -0.96112656658E+02  0.96112656658E+02  0.00000000000E+00 0. -1.
         23    2    1    2    0    0 -0.10962835353E+03  0.10258430510E+02  0.19447492129E+03  0.24161885800E+03  0.91845338683E+02 0.  0.
         23    2    1    2    0    0  0.87600074640E+02  0.55857434839E+01  0.11149365280E+03  0.16861603347E+03  0.91079956751E+02 0.  0.
        -13    1    4    4    0    0  0.29639110166E+02 -0.38630422345E+02  0.68302728816E+02  0.83881160851E+02  0.00000000000E+00 0.  1.
         13    1    4    4    0    0  0.57960964474E+02  0.44216165829E+02  0.43190923980E+02  0.84734872618E+02  0.00000000000E+00 0. -1.
        -13    1    3    3    0    0  0.15615051775E+01 -0.20529492846E+02  0.65072742026E+02  0.68252180402E+02  0.00000000000E+00 0.  1.
         13    1    3    3    0    0 -0.11118985871E+03  0.30787923356E+02  0.12940217926E+03  0.17336667760E+03  0.00000000000E+00 0. -1.
         21    1    1    2  503  501  0.23265187040E+02  0.99092275528E+01  0.11039718053E+03  0.11325634281E+03  0.00000000000E+00 0.  1.
         -1    1    1    2    0  502 -0.12369081490E+01 -0.25753401546E+02 -0.38644106408E+02  0.46455727237E+02  0.00000000000E+00 0.  1.
<scales pt_clust_5="13000.00000" pt_clust_6="13000.00000" pt_clust_7="13000.00000" pt_clust_8="13000.00000" pt_clust_9="25.28758" pt_clust_10="25.66543"></scales>
<clustering>
<clus scale="   25.288">  1  9  2 -1</clus>
<clus scale="   25.665">  2 10  1 -1</clus>
<clus scale="   91.080">  5  6 -1 -1</clus>
<clus scale="   91.845">  7  8 -1 -1</clus>
<clus scale="  132.473">  2  5  1 -1</clus>
<clus scale="   25.665">  2  5  1 -1</clus>
</clustering>
</event>
<event>
10    2  0.3984345E-006  0.1330998E+03  0.7546771E-02  0.1241203E+00
         21   -1    0    0  501  502  0.00000000000E+00  0.00000000000E+00  0.13196265529E+03  0.13196265529E+03  0.00000000000E+00 0. -1.
          3   -1    0    0  503    0 -0.00000000000E+00 -0.00000000000E+00 -0.60317998056E+03  0.60317998056E+03  0.00000000000E+00 0. -1.
         23    2    1    2    0    0 -0.26564761478E+02 -0.18151198641E+01 -0.21553736202E+03  0.23531930737E+03  0.90608171730E+02 0.  0.
         23    2    1    2    0    0 -0.70361605848E+02  0.74662021228E+02 -0.20591202549E+03  0.24686582473E+03  0.89542169878E+02 0.  0.
        -13    1    3    3    0    0  0.28576988755E+02 -0.47585630078E+01 -0.29857949927E+02  0.41602708831E+02  0.00000000000E+00 0.  1.
         13    1    3    3    0    0 -0.55141750233E+02  0.29434431437E+01 -0.18567941209E+03  0.19371659854E+03  0.00000000000E+00 0. -1.
        -13    1    4    4    0    0 -0.60344886458E+02  0.92791373252E+02 -0.19291293187E+03  0.22241210299E+03  0.00000000000E+00 0. -1.
         13    1    4    4    0    0 -0.10016719390E+02 -0.18129352024E+02 -0.12999093616E+02  0.24453721741E+02  0.00000000000E+00 0.  1.
         21    1    1    2  503  502  0.31384776621E+02  0.67204029516E-01 -0.12531504448E+03  0.12918540588E+03  0.00000000000E+00 0.  1.
          3    1    1    2  501    0  0.65541590705E+02 -0.72914105394E+02  0.75547106719E+02  0.12377209787E+03  0.00000000000E+00 0. -1.
<scales pt_clust_5="13000.00000" pt_clust_6="13000.00000" pt_clust_7="13000.00000" pt_clust_8="13000.00000" pt_clust_9="31.38485" pt_clust_10="98.47722"></scales>
<clustering>
<clus scale="   31.385">  2  9  1 -1</clus>
<clus scale="   89.542">  7  8 -1 -1</clus>
<clus scale="   90.608">  5  6 -1 -1</clus>
<clus scale="   91.378">  2  5  1 -1</clus>
<clus scale="   98.477">  1 10  2 -1</clus>
<clus scale="   98.477">  1  5  2 -1</clus>
</clustering>
</event>
<event>
10    2  0.3984345E-006  0.1916280E+03  0.7546771E-02  0.1167176E+00
          2   -1    0    0  503    0 -0.00000000000E+00  0.00000000000E+00  0.47123719516E+03  0.47123719516E+03  0.00000000000E+00 0. -1.
         21   -1    0    0  501  502  0.00000000000E+00 -0.00000000000E+00 -0.21633884992E+03  0.21633884992E+03  0.00000000000E+00 0. -1.
         23    2    1    2    0    0  0.13675861107E+01 -0.14155258262E+03  0.14097199740E+03  0.21885640808E+03  0.89364530819E+02 0.  0.
         23    2    1    2    0    0 -0.15747122840E+03  0.19150078309E+02  0.10840289260E+03  0.21222213562E+03  0.90128433082E+02 0.  0.
        -11    1    3    3    0    0  0.42313109956E+02 -0.92980456227E+02  0.10182106625E+03  0.14423347062E+03  0.00000000000E+00 0.  1.
         11    1    3    3    0    0 -0.40945523845E+02 -0.48572126397E+02  0.39150931143E+02  0.74622937459E+02  0.00000000000E+00 0. -1.
        -13    1    4    4    0    0 -0.66180809018E+02  0.38481196527E+02  0.88117738367E+02  0.11672805054E+03  0.00000000000E+00 0.  1.
         13    1    4    4    0    0 -0.91290419381E+02 -0.19331118218E+02  0.20285154231E+02  0.95494085076E+02  0.00000000000E+00 0. -1.
         21    1    1    2  503  502 -0.79478994550E+01  0.44344835176E+02  0.52169380051E+02  0.68929512747E+02  0.00000000000E+00 0. -1.
          2    1    1    2  501    0  0.16405154174E+03  0.78057669140E+02 -0.46645924800E+02  0.18756798863E+03  0.00000000000E+00 0. -1.
<scales pt_clust_5="13000.00000" pt_clust_6="13000.00000" pt_clust_7="13000.00000" pt_clust_8="13000.00000" pt_clust_9="45.05145" pt_clust_10="169.10985"></scales>
<clustering>
<clus scale="   45.051">  1  9  2 -1</clus>
<clus scale="   89.365">  5  6 -1 -1</clus>
<clus scale="   90.128">  7  8 -1 -1</clus>
<clus scale="  151.345">  1  5  2 -1</clus>
<clus scale="  169.110">  2 10  1 -1</clus>
<clus scale="  169.110">  2  5  1 -1</clus>
</clustering>
</event>
<event>
10    2  0.3984345E-006  0.1446994E+03  0.7546771E-02  0.1207156E+00
          3   -1    0    0  503    0 -0.00000000000E+00  0.00000000000E+00  0.12178518498E+03  0.12178518498E+03  0.00000000000E+00 0. -1.
         21   -1    0    0  501  502  0.00000000000E+00 -0.00000000000E+00 -0.46939428516E+03  0.46939428516E+03  0.00000000000E+00 0. -1.
         23    2    1    2    0    0  0.13713758126E+03  0.37681546465E+02 -0.36713693833E+02  0.17301142873E+03  0.91424526363E+02 0.  0.
         23    2    1    2    0    0 -0.89667216117E+02  0.35251662583E+02 -0.72175141251E+02  0.15120613175E+03  0.91494010204E+02 0.  0.
        -13    1    4    4    0    0 -0.63401068802E+02 -0.18576765554E+02 -0.13644154271E+02  0.67460764074E+02  0.00000000000E+00 0.  1.
         13    1    4    4    0    0 -0.26266147315E+02  0.53828428136E+02 -0.58530986980E+02  0.83745367676E+02  0.00000000000E+00 0. -1.
        -13    1    3    3    0    0  0.43676115060E+01 -0.22273494523E+02 -0.10432570919E+02  0.24980454850E+02  0.00000000000E+00 0.  1.
         13    1    3    3    0    0  0.13276996975E+03  0.59955040988E+02 -0.26281122914E+02  0.14803097388E+03  0.00000000000E+00 0. -1.
         21    1    1    2  503  502 -0.23362667608E+02 -0.21188422138E+01 -0.85948862268E+01  0.24983510549E+02  0.00000000000E+00 0. -1.
          3    1    1    2  501    0 -0.24107697532E+02 -0.70814366834E+02 -0.23012537887E+03  0.24197839910E+03  0.00000000000E+00 0. -1.
<scales pt_clust_5="13000.00000" pt_clust_6="13000.00000" pt_clust_7="13000.00000" pt_clust_8="13000.00000" pt_clust_9="23.45855" pt_clust_10="75.31123"></scales>
<clustering>
<clus scale="   23.459">  1  9  2 -1</clus>
<clus scale="   75.311">  2 10  1 -1</clus>
<clus scale="   91.425">  7  8 -1 -1</clus>
<clus scale="   91.494">  5  6 -1 -1</clus>
<clus scale="  144.656">  1  7  2 -1</clus>
<clus scale="   75.311">  2  5  1 -1</clus>
</clustering>
</event>
<event>
10    2  0.3984345E-006  0.3276675E+03  0.7546771E-02  0.1072374E+00
          1   -1    0    0  503    0 -0.00000000000E+00  0.00000000000E+00  0.13324459701E+04  0.13324459701E+04  0.00000000000E+00 0. -1.
         21   -1    0    0  501  502  0.00000000000E+00 -0.00000000000E+00 -0.15522660697E+03  0.15522660697E+03  0.00000000000E+00 0.  1.
         23    2    1    2    0    0  0.19480670731E+03 -0.24833240149E+03  0.63725437320E+03  0.71652909591E+03  0.87762032163E+02 0.  0.
         23    2    1    2    0    0 -0.24194366417E+03  0.23474829227E+03  0.40584543426E+03  0.53593218767E+03  0.94176939420E+02 0.  0.
        -11    1    3    3    0    0  0.35652432781E+02 -0.14442751786E+02  0.13169411505E+03  0.13719704436E+03  0.00000000000E+00 0.  1.
         11    1    3    3    0    0  0.15915427453E+03 -0.23388964970E+03  0.50556025815E+03  0.57933205155E+03  0.00000000000E+00 0. -1.
        -11    1    4    4    0    0 -0.20696188390E+03  0.20906415518E+03  0.29374698702E+03  0.41572627383E+03  0.00000000000E+00 0.  1.
         11    1    4    4    0    0 -0.34981780268E+02  0.25684137089E+02  0.11209844725E+03  0.12020591385E+03  0.00000000000E+00 0. -1.
         21    1    1    2  503  502  0.21827807769E+01  0.49176771835E+02  0.16352417582E+03  0.17077258415E+03  0.00000000000E+00 0. -1.
          1    1    1    2  501    0  0.44954176076E+02 -0.35592662618E+02 -0.29404620123E+02  0.64438709356E+02  0.00000000000E+00 0. -1.
<scales pt_clust_5="13000.00000" pt_clust_6="13000.00000" pt_clust_7="13000.00000" pt_clust_8="13000.00000" pt_clust_9="49.22519" pt_clust_10="56.90861"></scales>
<clustering>
<clus scale="   49.225">  1  9  2 -1</clus>
<clus scale="   56.909">  2 10  1 -1</clus>
<clus scale="   87.762">  5  6 -1 -1</clus>
<clus scale="   94.177">  7  8 -1 -1</clus>
<clus scale="  325.882">  1  5  2 -1</clus>
<clus scale="   56.909">  2  5  1 -1</clus>
</clustering>
</event>
<event>
10    2  0.3984345E-006  0.1017805E+03  0.7546771E-02  0.1277864E+00
          2   -1    0    0  503    0 -0.00000000000E+00  0.00000000000E+00  0.14686820545E+03  0.14686820545E+03  0.00000000000E+00 0. -1.
         21   -1    0    0  501  502  0.00000000000E+00 -0.00000000000E+00 -0.19840273133E+03  0.19840273133E+03  0.00000000000E+00 0.  1.
         23    2    1    2    0    0  0.50218360625E+02  0.10917727457E+02  0.85429968796E+02  0.13235330260E+03  0.87051919132E+02 0.  0.
         23    2    1    2    0    0 -0.35341628183E+02 -0.11484117297E+01 -0.59429123862E+02  0.11336037903E+03  0.89824302050E+02 0.  0.
        -11    1    4    4    0    0 -0.46360807544E+02  0.35356937577E+02 -0.33435764005E+02  0.67211515573E+02  0.00000000000E+00 0.  1.
         11    1    4    4    0    0  0.11019179361E+02 -0.36505349307E+02 -0.25993359857E+02  0.46148863458E+02  0.00000000000E+00 0. -1.
        -11    1    3    3    0    0 -0.19709158211E+02  0.46475152115E+01 -0.18569276881E+01  0.20334662413E+02  0.00000000000E+00 0.  1.
         11    1    3    3    0    0  0.69927518835E+02  0.62702122453E+01  0.87286896485E+02  0.11201864019E+03  0.00000000000E+00 0. -1.
         21    1    1    2  503  502 -0.35620635761E+02  0.24113156820E-01 -0.29217719024E+02  0.46070656370E+02  0.00000000000E+00 0.  1.
          2    1    1    2  501    0  0.20743903318E+02 -0.97934288839E+01 -0.48317651787E+02  0.53486598773E+02  0.00000000000E+00 0. -1.
<scales pt_clust_5="13000.00000" pt_clust_6="13000.00000" pt_clust_7="13000.00000" pt_clust_8="13000.00000" pt_clust_9="30.42736" pt_clust_10="22.93950"></scales>
<clustering>
<clus scale="   22.940">  2 10  1 -1</clus>
<clus scale="   30.427">  2  9  1 -1</clus>
<clus scale="   87.052">  7  8 -1 -1</clus>
<clus scale="   89.824">  5  6 -1 -1</clus>
<clus scale="   99.342">  1  7  2 -1</clus>
<clus scale="   22.940">  2  5  1 -1</clus>
</clustering>
</event>
<event>
10    2  0.3984345E-006  0.9916845E+02  0.7546771E-02  0.1285082E+00
          1   -1    0    0  503    0 -0.00000000000E+00  0.00000000000E+00  0.51970720286E+03  0.51970720286E+03  0.00000000000E+00 0. -1.
         21   -1    0    0  501  502  0.00000000000E+00 -0.00000000000E+00 -0.62243951300E+02  0.62243951300E+02  0.00000000000E+00 0. -1.
         23    2    1    2    0    0 -0.11445616498E+02  0.14793067636E+02  0.21476792327E+03  0.23706626940E+03  0.98617028094E+02 0.  0.
         23    2    1    2    0    0 -0.26400436830E+02 -0.21221309076E+02  0.78104470847E+02  0.12612857314E+03  0.93063320224E+02 0.  0.
        -11    1    4    4    0    0 -0.50295309764E+02  0.11984392535E+02  0.20824046563E+02  0.55739436344E+02  0.00000000000E+00 0. -1.
         11    1    4    4    0    0  0.23894872934E+02 -0.33205701611E+02  0.57280424284E+02  0.70389136791E+02  0.00000000000E+00 0.  1.
        -13    1    3    3    0    0 -0.49144412092E+02  0.14834623231E+02  0.17454950780E+03  0.18194166636E+03  0.00000000000E+00 0.  1.
         13    1    3    3    0    0  0.37698795594E+02 -0.41555594865E-01  0.40218415477E+02  0.55124603033E+02  0.00000000000E+00 0. -1.
         21    1    1    2  503  502  0.23658885866E+02 -0.38110271038E+02  0.16603785399E+03  0.17199042007E+03  0.00000000000E+00 0.  1.
          1    1    1    2  501    0  0.14187167462E+02  0.44538512478E+02 -0.14469965479E+01  0.46765891560E+02  0.00000000000E+00 0. -1.
<scales pt_clust_5="13000.00000" pt_clust_6="13000.00000" pt_clust_7="13000.00000" pt_clust_8="13000.00000" pt_clust_9="44.85683" pt_clust_10="44.91530"></scales>
<clustering>
<clus scale="   44.857">  1  9  2 -1</clus>
<clus scale="   44.915">  2 10  1 -1</clus>
<clus scale="   93.063">  5  6 -1 -1</clus>
<clus scale="   93.647">  2  5  1 -1</clus>
<clus scale="   98.617">  7  8 -1 -1</clus>
<clus scale="   44.915">  2  5  1 -1</clus>
</clustering>
</event>
<event>
10    2  0.3984345E-006  0.1781871E+03  0.7546771E-02  0.1169924E+00
          1   -1    0    0  503    0 -0.00000000000E+00  0.00000000000E+00  0.23638703964E+04  0.23638703964E+04  0.00000000000E+00 0. -1.
         21   -1    0    0  501  502  0.00000000000E+00 -0.00000000000E+00 -0.28036558582E+02  0.28036558582E+02  0.00000000000E+00 0. -1.
         23    2    1    2    0    0 -0.11728570042E+03 -0.66613795160E+02  0.88781792957E+03  0.90286323520E+03  0.93530808727E+02 0.  0.
         23    2    1    2    0    0  0.14461972751E+03  0.11575749854E+03  0.72214730052E+03  0.75103111051E+03  0.90754290493E+02 0.  0.
        -11    1    4    4    0    0  0.11802618274E+03  0.12503540660E+03  0.67058574807E+03  0.69227832425E+03  0.00000000000E+00 0. -1.
         11    1    4    4    0    0  0.26593544766E+02 -0.92779080594E+01  0.51561552455E+02  0.58752786255E+02  0.00000000000E+00 0.  1.
        -13    1    3    3    0    0  0.44301415969E+01 -0.38965500481E+02  0.19877184227E+03  0.20260350851E+03  0.00000000000E+00 0.  1.
         13    1    3    3    0    0 -0.12171584201E+03 -0.27648294679E+02  0.68904608730E+03  0.70025972669E+03  0.00000000000E+00 0. -1.
         21    1    1    2  503  502 -0.72226425893E+02 -0.16428873691E+02  0.32631995645E+03  0.33462109686E+03  0.00000000000E+00 0.  1.
          1    1    1    2  501    0  0.44892398802E+02 -0.32714829687E+02  0.39954865129E+03  0.40339151243E+03  0.00000000000E+00 0. -1.
<scales pt_clust_5="13000.00000" pt_clust_6="13000.00000" pt_clust_7="13000.00000" pt_clust_8="13000.00000" pt_clust_9="68.59075" pt_clust_10="55.54809"></scales>
<clustering>
<clus scale="   55.548">  2 10  1 -1</clus>
<clus scale="   68.591">  2  9  1 -1</clus>
<clus scale="   90.754">  5  6 -1 -1</clus>
<clus scale="   93.531">  7  8 -1 -1</clus>
<clus scale="  176.745">  2  5  1 -1</clus>
<clus scale="   55.548">  2  5  1 -1</clus>
</clustering>
</event>
<event>
10    2  0.3984345E-006  0.1029869E+03  0.7546771E-02  0.1274152E+00
         -1   -1    0    0    0  501 -0.00000000000E+00  0.00000000000E+00  0.32228286556E+03  0.32228286556E+03  0.00000000000E+00 0.  1.
         21   -1    0    0  503  502  0.00000000000E+00 -0.00000000000E+00 -0.14564956232E+03  0.14564956232E+03  0.00000000000E+00 0.  1.
         23    2    1    2    0    0  0.13188026918E+02  0.17845980370E+02  0.18773851962E+03  0.20979764367E+03  0.90977450329E+02 0.  0.
         23    2    1    2    0    0 -0.34833706080E+02 -0.61490535728E+02  0.48372387497E+02  0.12492110498E+03  0.90944606947E+02 0.  0.
        -11    1    3    3    0    0 -0.92553130548E+01 -0.23195538547E+02  0.14267806704E+03  0.14484724589E+03  0.00000000000E+00 0.  1.
         11    1    3    3    0    0  0.22443339973E+02  0.41041518916E+02  0.45060452584E+02  0.64950397775E+02  0.00000000000E+00 0. -1.
        -11    1    4    4    0    0 -0.52632516297E+02 -0.39125142918E+01  0.34578256999E+02  0.63096318410E+02  0.00000000000E+00 0. -1.
         11    1    4    4    0    0  0.17798810217E+02 -0.57578021436E+02  0.13794130498E+02  0.61824786565E+02  0.00000000000E+00 0.  1.
         21    1    1    2  503  501  0.59812043356E+01  0.29047250719E+02  0.29420008333E+02  0.41773849116E+02  0.00000000000E+00 0. -1.
         -1    1    1    2    0  502  0.15664474826E+02  0.14597304640E+02 -0.88897612217E+02  0.91439830119E+02  0.00000000000E+00 0.  1.
<scales pt_clust_5="13000.00000" pt_clust_6="13000.00000" pt_clust_7="13000.00000" pt_clust_8="13000.00000" pt_clust_9="31.63031" pt_clust_10="21.41161"></scales>
<clustering>
<clus scale="   21.412">  2 10  1 -1</clus>
<clus scale="   31.630">  1  9  2 -1</clus>
<clus scale="   90.945">  7  8 -1 -1</clus>
<clus scale="   90.977">  5  6 -1 -1</clus>
<clus scale="  102.958">  2  7  1 -1</clus>
<clus scale="   21.412">  2  5  1 -1</clus>
</clustering>
</event>
<event>
10    2  0.3984345E-006  0.1186049E+03  0.7546771E-02  0.1246159E+00
         -1   -1    0    0    0  501 -0.00000000000E+00  0.00000000000E+00  0.12181440447E+03  0.12181440447E+03  0.00000000000E+00 0.  1.
         21   -1    0    0  503  502  0.00000000000E+00 -0.00000000000E+00 -0.50993287494E+03  0.50993287494E+03  0.00000000000E+00 0. -1.
         23    2    1    2    0    0  0.44135668795E+02  0.19130797302E+02 -0.36914382126E+02  0.10716037689E+03  0.88355702152E+02 0.  0.
         23    2    1    2    0    0 -0.93228528309E+02 -0.69313276848E+02 -0.10016707621E+03  0.17818516405E+03  0.90667638623E+02 0.  0.
        -11    1    3    3    0    0  0.47101823694E+02 -0.25550801458E+02 -0.31227373929E+02  0.62020755662E+02  0.00000000000E+00 0.  1.
         11    1    3    3    0    0 -0.29661548982E+01  0.44681598760E+02 -0.56870081974E+01  0.45139621231E+02  0.00000000000E+00 0. -1.
        -13    1    4    4    0    0 -0.41223192195E+02 -0.10978483194E+02  0.93215058999E+01  0.43666567763E+02  0.00000000000E+00 0.  1.
         13    1    4    4    0    0 -0.52005336114E+02 -0.58334793654E+02 -0.10948858211E+03  0.13451859629E+03  0.00000000000E+00 0. -1.
         21    1    1    2  503  501  0.21373603999E+02  0.90267957624E+01  0.42650012695E+02  0.48552420872E+02  0.00000000000E+00 0. -1.
         -1    1    1    2    0  502  0.27719255514E+02  0.41155683783E+02 -0.29368702483E+03  0.29784931759E+03  0.00000000000E+00 0.  1.
<scales pt_clust_5="13000.00000" pt_clust_6="13000.00000" pt_clust_7="13000.00000" pt_clust_8="13000.00000" pt_clust_9="23.20159" pt_clust_10="50.15172"></scales>
<clustering>
<clus scale="   23.202">  1  9  2 -1</clus>
<clus scale="   50.152">  2 10  1 -1</clus>
<clus scale="   88.356">  5  6 -1 -1</clus>
<clus scale="   90.668">  7  8 -1 -1</clus>
<clus scale="  116.847">  1  5  2 -1</clus>
<clus scale="   50.152">  2  5  1 -1</clus>
</clustering>
</event>
<event>
10    2  0.3984345E-006  0.1032349E+03  0.7546771E-02  0.1274670E+00
         21   -1    0    0  503  502  0.00000000000E+00  0.00000000000E+00  0.41809217598E+02  0.41809217598E+02  0.00000000000E+00 0.  1.
         -1   -1    0    0    0  501 -0.00000000000E+00 -0.00000000000E+00 -0.66464574382E+03  0.66464574382E+03  0.00000000000E+00 0.  1.
         23    2    1    2    0    0 -0.27758326718E+02  0.55787609065E+02 -0.36263590759E+03  0.37849697243E+03  0.88726403275E+02 0.  0.
         23    2    1    2    0    0 -0.31961579689E+01 -0.49702602080E+02 -0.12073406118E+03  0.15919981429E+03  0.91034626717E+02 0.  0.
        -11    1    3    3    0    0 -0.41173862601E+02  0.74479080372E+02 -0.29661039625E+03  0.30857761996E+03  0.00000000000E+00 0. -1.
         11    1    3    3    0    0  0.13415535883E+02 -0.18691471307E+02 -0.66025511338E+02  0.69919352472E+02  0.00000000000E+00 0.  1.
        -11    1    4    4    0    0  0.32413808935E+02 -0.16043840266E+02 -0.99366253960E+02  0.10574361563E+03  0.00000000000E+00 0.  1.
         11    1    4    4    0    0 -0.35609966904E+02 -0.33658761814E+02 -0.21367807217E+02  0.53456198658E+02  0.00000000000E+00 0. -1.
         21    1    1    2  503  501  0.12937220750E+02 -0.16484107484E+02 -0.14557619417E+03  0.14707659838E+03  0.00000000000E+00 0.  1.
         -1    1    1    2    0  502  0.18017263937E+02  0.10399100499E+02  0.61096367194E+01  0.21681576322E+02  0.00000000000E+00 0.  1.
<scales pt_clust_5="13000.00000" pt_clust_6="13000.00000" pt_clust_7="13000.00000" pt_clust_8="13000.00000" pt_clust_9="21.04103" pt_clust_10="20.80296"></scales>
<clustering>
<clus scale="   20.803">  1 10  2 -1</clus>
<clus scale="   21.041">  2  9  1 -1</clus>
<clus scale="   88.726">  5  6 -1 -1</clus>
<clus scale="   91.035">  7  8 -1 -1</clus>
<clus scale="  101.205">  2  5  1 -1</clus>
<clus scale="   20.803">  1  5  2 -1</clus>
</clustering>
</event>
<event>
10    2  0.3984345E-006  0.1343613E+03  0.7546771E-02  0.1240120E+00
         21   -1    0    0  501  502  0.00000000000E+00  0.00000000000E+00  0.48818510833E+02  0.48818510833E+02  0.00000000000E+00 0. -1.
          2   -1    0    0  503    0 -0.00000000000E+00 -0.00000000000E+00 -0.76304665103E+03  0.76304665103E+03  0.00000000000E+00 0. -1.
         23    2    1    2    0    0  0.72370863143E+01 -0.21593851673E+02 -0.20364728921E+03  0.22368309611E+03  0.89684108043E+02 0.  0.
         23    2    1    2    0    0 -0.17509934121E+02  0.96125502893E+02 -0.22246169959E+03  0.25963959433E+03  0.91524865801E+02 0.  0.
        -11    1    3    3    0    0 -0.33766652084E+02  0.17589449625E+01 -0.14243866121E+03  0.14639690190E+03  0.00000000000E+00 0.  1.
         11    1    3    3    0    0  0.41003738398E+02 -0.23352796636E+02 -0.61208627998E+02  0.77286194205E+02  0.00000000000E+00 0. -1.
        -11    1    4    4    0    0  0.30687683873E+02  0.72359479955E+02 -0.11234030548E+03  0.13710569834E+03  0.00000000000E+00 0. -1.
         11    1    4    4    0    0 -0.48197617995E+02  0.23766022937E+02 -0.11012139411E+03  0.12253389599E+03  0.00000000000E+00 0.  1.
         21    1    1    2  503  502 -0.49148339955E+01  0.23014675922E+02 -0.18234046510E+03  0.18385286539E+03  0.00000000000E+00 0. -1.
          2    1    1    2  501    0  0.15187681802E+02 -0.97546327142E+02 -0.10577868630E+03  0.14468960603E+03  0.00000000000E+00 0. -1.
<scales pt_clust_5="13000.00000" pt_clust_6="13000.00000" pt_clust_7="13000.00000" pt_clust_8="13000.00000" pt_clust_9="23.53361" pt_clust_10="98.36749"></scales>
<clustering>
<clus scale="   23.534">  2  9  1 -1</clus>
<clus scale="   89.684">  5  6 -1 -1</clus>
<clus scale="   90.800">  2  5  1 -1</clus>
<clus scale="   91.525">  7  8 -1 -1</clus>
<clus scale="   98.367">  1 10  2 -1</clus>
<clus scale="   98.367">  1  5  2 -1</clus>
</clustering>
</event>
<event>
10    2  0.3984345E-006  0.1824924E+03  0.7546771E-02  0.1166408E+00
         21   -1    0    0  501  502  0.00000000000E+00  0.00000000000E+00  0.34203136961E+03  0.34203136961E+03  0.00000000000E+00 0. -1.
          2   -1    0    0  503    0 -0.00000000000E+00 -0.00000000000E+00 -0.37250498215E+03  0.37250498215E+03  0.00000000000E+00 0. -1.
         23    2    1    2    0    0  0.42710652129E+02  0.14368873715E+03 -0.20340787450E+03  0.27076046910E+03  0.97292421225E+02 0.  0.
         23    2    1    2    0    0 -0.77748883284E+01 -0.16836658420E+03 -0.31820178107E+02  0.19337379610E+03  0.89292472918E+02 0.  0.
        -11    1    4    4    0    0  0.26973819690E+01 -0.64821591962E+02 -0.56930115141E+02  0.86314266862E+02  0.00000000000E+00 0. -1.
         11    1    4    4    0    0 -0.10472270297E+02 -0.10354499224E+03  0.25109937034E+02  0.10705952924E+03  0.00000000000E+00 0.  1.
        -11    1    3    3    0    0  0.37914431413E+02  0.31788968145E+01 -0.40295059157E+02  0.55419322323E+02  0.00000000000E+00 0. -1.
         11    1    3    3    0    0  0.47962207158E+01  0.14050984034E+03 -0.16311281535E+03  0.21534114678E+03  0.00000000000E+00 0.  1.
         21    1    1    2  503  502 -0.73141148892E+02  0.57265727748E+02  0.14676651300E+03  0.17369340970E+03  0.00000000000E+00 0. -1.
          2    1    1    2  501    0  0.38205385091E+02 -0.32587880700E+02  0.57987927070E+02  0.76708676851E+02  0.00000000000E+00 0. -1.
<scales pt_clust_5="13000.00000" pt_clust_6="13000.00000" pt_clust_7="13000.00000" pt_clust_8="13000.00000" pt_clust_9="63.63782" pt_clust_10="50.21575"></scales>
<clustering>
<clus scale="   50.216">  1 10  2 -1</clus>
<clus scale="   63.638">  1  9  2 -1</clus>
<clus scale="   89.292">  5  6 -1 -1</clus>
<clus scale="   97.292">  7  8 -1 -1</clus>
<clus scale="  178.356">  1  5  2 -1</clus>
<clus scale="   50.216">  1  5  2 -1</clus>
</clustering>
</event>
<event>
10    2  0.3984345E-006  0.1084956E+03  0.7546771E-02  0.1265208E+00
          1   -1    0    0  503    0 -0.00000000000E+00  0.00000000000E+00  0.82609079685E+03  0.82609079685E+03  0.00000000000E+00 0. -1.
         21   -1    0    0  501  502  0.00000000000E+00 -0.00000000000E+00 -0.29974561674E+02  0.29974561674E+02  0.00000000000E+00 0. -1.
         23    2    1    2    0    0 -0.64110227249E+02  0.29682897357E+02  0.37128560081E+03  0.38897865519E+03  0.91979351973E+02 0.  0.
         23    2    1    2    0    0  0.32064949826E+02 -0.12351270090E+02  0.13941260291E+03  0.16812694029E+03  0.87464731875E+02 0.  0.
        -11    1    3    3    0    0  0.21943594068E+02 -0.55604901957E+01  0.85407496927E+02  0.88356555519E+02  0.00000000000E+00 0.  1.
         11    1    3    3    0    0 -0.86053821317E+02  0.35243387553E+02  0.28587810388E+03  0.30062209967E+03  0.00000000000E+00 0. -1.
        -13    1    4    4    0    0  0.39333358799E+02 -0.39550946553E+02  0.12414267054E+03  0.13609846853E+03  0.00000000000E+00 0. -1.
         13    1    4    4    0    0 -0.72684089729E+01  0.27199676463E+02  0.15269932365E+02  0.32028471758E+02  0.00000000000E+00 0.  1.
         21    1    1    2  503  502 -0.14105166284E+02 -0.21947968133E+02  0.20059426659E+03  0.20228378287E+03  0.00000000000E+00 0. -1.
          1    1    1    2  501    0  0.46150443707E+02  0.46163408652E+01  0.84823764870E+02  0.96675980181E+02  0.00000000000E+00 0. -1.
<scales pt_clust_5="13000.00000" pt_clust_6="13000.00000" pt_clust_7="13000.00000" pt_clust_8="13000.00000" pt_clust_9="26.08963" pt_clust_10="44.12434"></scales>
<clustering>
<clus scale="   26.090">  1  9  2 -1</clus>
<clus scale="   44.124">  2 10  1 -1</clus>
<clus scale="   87.465">  7  8 -1 -1</clus>
<clus scale="   91.979">  5  6 -1 -1</clus>
<clus scale="  104.696">  2  7  1 -1</clus>
<clus scale="   44.124">  2  5  1 -1</clus>
</clustering>
</event>
<event>
10    2  0.3984345E-006  0.1121991E+03  0.7546771E-02  0.1258197E+00
         21   -1    0    0  501  502  0.00000000000E+00  0.00000000000E+00  0.45797320694E+02  0.45797320694E+02  0.00000000000E+00 0.  1.
          2   -1    0    0  503    0 -0.00000000000E+00 -0.00000000000E+00 -0.84159071231E+03  0.84159071231E+03  0.00000000000E+00 0. -1.
         23    2    1    2    0    0  0.19609083478E+01 -0.27500663933E+02 -0.27395127919E+03  0.28954478194E+03  0.89592107347E+02 0.  0.
         23    2    1    2    0    0 -0.20935536064E+02  0.13018755260E+03 -0.24840970087E+03  0.29650162836E+03  0.93908149866E+02 0.  0.
        -11    1    3    3    0    0  0.31827820140E+02  0.18843794045E+02 -0.84657638331E+02  0.92385141861E+02  0.00000000000E+00 0. -1.
         11    1    3    3    0    0 -0.29866911792E+02 -0.46344457978E+02 -0.18929364086E+03  0.19715964008E+03  0.00000000000E+00 0.  1.
        -13    1    4    4    0    0 -0.25279599385E+02  0.10037330410E+03 -0.96102095444E+02  0.14124259651E+03  0.00000000000E+00 0.  1.
         13    1    4    4    0    0  0.43440633203E+01  0.29814248505E+02 -0.15230760543E+03  0.15525903185E+03  0.00000000000E+00 0. -1.
         21    1    1    2  503  502  0.13446181792E+02 -0.20553915459E+02 -0.15605184941E+03  0.15797291841E+03  0.00000000000E+00 0. -1.
          2    1    1    2  501    0  0.55284459245E+01 -0.82132973211E+02 -0.11738056214E+03  0.14336870429E+03  0.00000000000E+00 0. -1.
<scales pt_clust_5="13000.00000" pt_clust_6="13000.00000" pt_clust_7="13000.00000" pt_clust_8="13000.00000" pt_clust_9="24.56142" pt_clust_10="86.42676"></scales>
<clustering>
<clus scale="   24.561">  2  9  1 -1</clus>
<clus scale="   86.427">  1 10  2 -1</clus>
<clus scale="   89.592">  5  6 -1 -1</clus>
<clus scale="   93.908">  7  8 -1 -1</clus>
<clus scale="  108.612">  2  5  1 -1</clus>
<clus scale="   86.427">  1  5  2 -1</clus>
</clustering>
</event>
<event>
10    2  0.3984345E-006  0.1044015E+03  0.7546771E-02  0.1277154E+00
          1   -1    0    0  503    0 -0.00000000000E+00  0.00000000000E+00  0.41424715492E+03  0.41424715492E+03  0.00000000000E+00 0. -1.
         21   -1    0    0  501  502  0.00000000000E+00 -0.00000000000E+00 -0.13321045092E+03  0.13321045092E+03  0.00000000000E+00 0.  1.
         23    2    1    2    0    0  0.18566182572E+02 -0.24057587848E+02  0.20684764069E+03  0.22851468579E+03  0.92247192338E+02 0.  0.
         23    2    1    2    0    0  0.56419309501E+02  0.45409775181E+02  0.90102059453E+01  0.12660947561E+03  0.10345815259E+03 0.  0.
        -11    1    3    3    0    0 -0.28397819896E+02  0.16489651835E+02  0.49772593325E+02  0.59629320294E+02  0.00000000000E+00 0.  1.
         11    1    3    3    0    0  0.46964002469E+02 -0.40547239683E+02  0.15707504737E+03  0.16888536550E+03  0.00000000000E+00 0. -1.
        -13    1    4    4    0    0 -0.28060549678E+02 -0.38790109521E+01 -0.57990309543E+00  0.28333327757E+02  0.00000000000E+00 0. -1.
         13    1    4    4    0    0  0.84479859179E+02  0.49288786133E+02  0.95901090407E+01  0.98276147853E+02  0.00000000000E+00 0.  1.
         21    1    1    2  503  502 -0.10085028588E+02  0.24518028170E+02  0.10153446095E+03  0.10493849755E+03  0.00000000000E+00 0.  1.
          1    1    1    2  501    0 -0.64900463485E+02 -0.45870215503E+02 -0.36355603589E+02  0.87394946897E+02  0.00000000000E+00 0. -1.
<scales pt_clust_5="13000.00000" pt_clust_6="13000.00000" pt_clust_7="13000.00000" pt_clust_8="13000.00000" pt_clust_9="26.51116" pt_clust_10="79.01726"></scales>
<clustering>
<clus scale="   26.511">  1  9  2 -1</clus>
<clus scale="   79.017">  2 10  1 -1</clus>
<clus scale="   92.247">  5  6 -1 -1</clus>
<clus scale="   93.304">  1  5  2 -1</clus>
<clus scale="  103.458">  7  8 -1 -1</clus>
<clus scale="   79.017">  2  5  1 -1</clus>
</clustering>
</event>
<event>
10    2  0.3984345E-006  0.1562008E+03  0.7546771E-02  0.1193708E+00
          1   -1    0    0  503    0 -0.00000000000E+00  0.00000000000E+00  0.35144949297E+03  0.35144949297E+03  0.00000000000E+00 0. -1.
         21   -1    0    0  501  502  0.00000000000E+00 -0.00000000000E+00 -0.16987504162E+03  0.16987504162E+03  0.00000000000E+00 0.  1.
         23    2    1    2    0    0  0.30020064097E+02  0.14373445249E+03  0.14567129229E+03  0.22506007466E+03  0.88719303009E+02 0.  0.
         23    2    1    2    0    0 -0.27840272424E+02 -0.10062218928E+03  0.74663843099E+02  0.15822860473E+03  0.92529433941E+02 0.  0.
        -11    1    4    4    0    0 -0.62885403774E+01 -0.39663230176E+02 -0.18991295385E+02  0.44422819232E+02  0.00000000000E+00 0.  1.
         11    1    4    4    0    0 -0.21551732047E+02 -0.60958959102E+02  0.93655138484E+02  0.11380578550E+03  0.00000000000E+00 0. -1.
        -11    1    3    3    0    0  0.61004838851E+02  0.10417834200E+03  0.94192659685E+02  0.15312404920E+03  0.00000000000E+00 0.  1.
         11    1    3    3    0    0 -0.30984774754E+02  0.39556110494E+02  0.51478632609E+02  0.71936025462E+02  0.00000000000E+00 0. -1.
         21    1    1    2  503  502 -0.26900821880E+02  0.65875677626E+00  0.37828509837E+02  0.46422885895E+02  0.00000000000E+00 0.  1.
          1    1    1    2  501    0  0.24721030208E+02 -0.43771019991E+02 -0.76589193876E+02  0.91612969301E+02  0.00000000000E+00 0. -1.
<scales pt_clust_5="13000.00000" pt_clust_6="13000.00000" pt_clust_7="13000.00000" pt_clust_8="13000.00000" pt_clust_9="26.90889" pt_clust_10="49.93755"></scales>
<clustering>
<clus scale="   26.909">  1  9  2 -1</clus>
<clus scale="   49.938">  2 10  1 -1</clus>
<clus scale="   88.719">  7  8 -1 -1</clus>
<clus scale="   92.529">  5  6 -1 -1</clus>
<clus scale="  153.974">  1  7  2 -1</clus>
<clus scale="   49.938">  2  5  1 -1</clus>
</clustering>
</event>
<event>
10    2  0.3984345E-006  0.1113673E+03  0.7546771E-02  0.1259199E+00
         21   -1    0    0  501  502  0.00000000000E+00  0.00000000000E+00  0.31531118575E+03  0.31531118575E+03  0.00000000000E+00 0. -1.
          2   -1    0    0  503    0 -0.00000000000E+00 -0.00000000000E+00 -0.22148073578E+03  0.22148073578E+03  0.00000000000E+00 0. -1.
         23    2    1    2    0    0 -0.32021505871E+02  0.60167391045E+02  0.11843931421E+02  0.11620904949E+03  0.93374368476E+02 0.  0.
         23    2    1    2    0    0 -0.32097534075E+02 -0.60185508251E+02  0.34347374776E+02  0.11834711640E+03  0.90408797739E+02 0.  0.
        -13    1    4    4    0    0  0.38241663087E+01  0.22004492169E+02  0.10049739470E+00  0.22334547753E+02  0.00000000000E+00 0.  1.
         13    1    4    4    0    0 -0.35921700384E+02 -0.82190000420E+02  0.34246877382E+02  0.96012568646E+02  0.00000000000E+00 0. -1.
        -13    1    3    3    0    0 -0.29751396687E+01 -0.23497217278E+02 -0.88082602161E+01  0.25269668060E+02  0.00000000000E+00 0. -1.
         13    1    3    3    0    0 -0.29046366203E+02  0.83664608322E+02  0.20652191637E+02  0.90939381429E+02  0.00000000000E+00 0.  1.
         21    1    1    2  503  502 -0.45495763061E+02  0.48974782108E+01 -0.10483475057E+03  0.11438607729E+03  0.00000000000E+00 0. -1.
          2    1    1    2  501    0  0.10961480301E+03 -0.48793610051E+01  0.15247389434E+03  0.18784967836E+03  0.00000000000E+00 0. -1.
<scales pt_clust_5="13000.00000" pt_clust_6="13000.00000" pt_clust_7="13000.00000" pt_clust_8="13000.00000" pt_clust_9="45.75860" pt_clust_10="102.50367"></scales>
<clustering>
<clus scale="   45.759">  2  9  1 -1</clus>
<clus scale="   90.409">  5  6 -1 -1</clus>
<clus scale="   93.374">  7  8 -1 -1</clus>
<clus scale="  102.504">  1 10  2 -1</clus>
<clus scale="  108.893">  1  5  2 -1</clus>
<clus scale="  102.504">  1  5  2 -1</clus>
</clustering>
</event>
<event>
10    2  0.3984345E-006  0.1433457E+03  0.7546771E-02  0.1210543E+00
          1   -1    0    0  503    0 -0.00000000000E+00  0.00000000000E+00  0.14653867066E+03  0.14653867066E+03  0.00000000000E+00 0. -1.
         21   -1    0    0  501  502  0.00000000000E+00 -0.00000000000E+00 -0.30888474462E+03  0.30888474462E+03  0.00000000000E+00 0. -1.
         23    2    1    2    0    0  0.11116143631E+03 -0.68267397717E+02 -0.52960747979E+01  0.15914416858E+03  0.91002832213E+02 0.  0.
         23    2    1    2    0    0 -0.66149902967E+02  0.68819451897E+02 -0.13838065045E+02  0.12723710361E+03  0.82981093445E+02 0.  0.
        -11    1    3    3    0    0  0.28082471182E+02  0.17232146694E+02  0.18192544550E+02  0.37636959821E+02  0.00000000000E+00 0.  1.
         11    1    3    3    0    0  0.83078965126E+02 -0.85499544410E+02 -0.23488619348E+02  0.12150720876E+03  0.00000000000E+00 0. -1.
        -13    1    4    4    0    0 -0.39517337305E+02  0.49469552941E+02 -0.48257473688E+02  0.79609298343E+02  0.00000000000E+00 0.  1.
         13    1    4    4    0    0 -0.26632565661E+02  0.19349898956E+02  0.34419408643E+02  0.47627805268E+02  0.00000000000E+00 0. -1.
         21    1    1    2  503  502 -0.92246334912E+01  0.20948125702E+02 -0.34127460740E+01  0.23142270183E+02  0.00000000000E+00 0. -1.
          1    1    1    2  501    0 -0.35786899850E+02 -0.21500179882E+02 -0.13979918804E+03  0.14589987290E+03  0.00000000000E+00 0. -1.
<scales pt_clust_5="13000.00000" pt_clust_6="13000.00000" pt_clust_7="13000.00000" pt_clust_8="13000.00000" pt_clust_9="22.88925" pt_clust_10="41.68756"></scales>
<clustering>
<clus scale="   22.889">  1  9  2 -1</clus>
<clus scale="   41.688">  2 10  1 -1</clus>
<clus scale="   82.981">  7  8 -1 -1</clus>
<clus scale="   91.003">  5  6 -1 -1</clus>
<clus scale="  138.392">  2  7  1 -1</clus>
<clus scale="   41.688">  2  5  1 -1</clus>
</clustering>
</event>
<event>
10    2  0.3984345E-006  0.9569734E+02  0.7546771E-02  0.1291209E+00
          1   -1    0    0  503    0 -0.00000000000E+00  0.00000000000E+00  0.78106112004E+03  0.78106112004E+03  0.00000000000E+00 0. -1.
         21   -1    0    0  501  502  0.00000000000E+00 -0.00000000000E+00 -0.28613999558E+02  0.28613999558E+02  0.00000000000E+00 0.  1.
         23    2    1    2    0    0 -0.21478935550E+02  0.29192391029E+02  0.37674496489E+03  0.38790210271E+03  0.84957238363E+02 0.  0.
         23    2    1    2    0    0  0.42452839567E+02 -0.17718653577E+02  0.13429651010E+03  0.16703449107E+03  0.88027122589E+02 0.  0.
        -13    1    4    4    0    0  0.58408717380E+02 -0.37311743249E+02  0.11836205893E+03  0.13716166172E+03  0.00000000000E+00 0.  1.
         13    1    4    4    0    0 -0.15955877814E+02  0.19593089672E+02  0.15934451165E+02  0.29872829354E+02  0.00000000000E+00 0. -1.
        -13    1    3    3    0    0 -0.49569465408E+02  0.14148134959E+02  0.30600220307E+03  0.31031379264E+03  0.00000000000E+00 0.  1.
         13    1    3    3    0    0  0.28090529858E+02  0.15044256070E+02  0.70742761822E+02  0.77588310064E+02  0.00000000000E+00 0. -1.
         21    1    1    2  503  502  0.26857047734E+02  0.88058374094E+01  0.65909637953E+02  0.71714183817E+02  0.00000000000E+00 0. -1.
          1    1    1    2  501    0 -0.47830951750E+02 -0.20279574862E+02  0.17549600755E+03  0.18302434200E+03  0.00000000000E+00 0. -1.
<scales pt_clust_5="13000.00000" pt_clust_6="13000.00000" pt_clust_7="13000.00000" pt_clust_8="13000.00000" pt_clust_9="28.26382" pt_clust_10="47.83064"></scales>
<clustering>
<clus scale="   28.264">  2  9  1 -1</clus>
<clus scale="   47.831">  2 10  1 -1</clus>
<clus scale="   84.957">  7  8 -1 -1</clus>
<clus scale="   88.027">  5  6 -1 -1</clus>
<clus scale="   92.881">  1  7  2 -1</clus>
<clus scale="   28.264">  2  5  1 -1</clus>
</clustering>
</event>
<event>
10    2  0.3984345E-006  0.9450606E+02  0.7546771E-02  0.1293995E+00
         21   -1    0    0  503  502  0.00000000000E+00  0.00000000000E+00  0.12639021656E+03  0.12639021656E+03  0.00000000000E+00 0.  1.
         -1   -1    0    0    0  501 -0.00000000000E+00 -0.00000000000E+00 -0.20202128705E+03  0.20202128705E+03  0.00000000000E+00 0.  1.
         23    2    1    2    0    0 -0.72300334383E+01 -0.12572587706E+02 -0.71326165660E+02  0.11501087063E+03  0.89049060137E+02 0.  0.
         23    2    1    2    0    0 -0.27728200089E+02  0.57619629980E+02 -0.17739506239E+02  0.10855484512E+03  0.85910357218E+02 0.  0.
        -13    1    4    4    0    0 -0.50247270467E+02  0.21746225553E+02 -0.32536077418E+02  0.63688953901E+02  0.00000000000E+00 0.  1.
         13    1    4    4    0    0  0.22519070378E+02  0.35873404427E+02  0.14796571179E+02  0.44865891215E+02  0.00000000000E+00 0. -1.
        -13    1    3    3    0    0 -0.39637481976E+02  0.17571043881E+02 -0.49036620122E+02  0.65455799388E+02  0.00000000000E+00 0. -1.
         13    1    3    3    0    0  0.32407448538E+02 -0.30143631587E+02 -0.22289545538E+02  0.49555071247E+02  0.00000000000E+00 0.  1.
         21    1    1    2  503  501  0.18849475963E+02 -0.71124035125E+01 -0.35530520194E+02  0.40844912695E+02  0.00000000000E+00 0.  1.
         -1    1    1    2    0  502  0.16108757565E+02 -0.37934638761E+02  0.48965121604E+02  0.64000875165E+02  0.00000000000E+00 0.  1.
<scales pt_clust_5="13000.00000" pt_clust_6="13000.00000" pt_clust_7="13000.00000" pt_clust_8="13000.00000" pt_clust_9="20.14669" pt_clust_10="41.85704"></scales>
<clustering>
<clus scale="   20.147">  2  9  1 -1</clus>
<clus scale="   41.857">  1 10  2 -1</clus>
<clus scale="   85.910">  5  6 -1 -1</clus>
<clus scale="   89.049">  7  8 -1 -1</clus>
<clus scale="   91.555">  1  5  2 -1</clus>
<clus scale="   41.857">  1  5  2 -1</clus>
</clustering>
</event>
<event>
10    2  0.3984345E-006  0.1967323E+03  0.7546771E-02  0.1152595E+00
         -1   -1    0    0    0  501 -0.00000000000E+00  0.00000000000E+00  0.22878231865E+03  0.22878231865E+03  0.00000000000E+00 0.  1.
         21   -1    0    0  503  502  0.00000000000E+00 -0.00000000000E+00 -0.28433243403E+03  0.28433243403E+03  0.00000000000E+00 0. -1.
         23    2    1    2    0    0  0.54227919125E+02  0.16892794958E+03  0.44564475188E+02  0.20466904570E+03  0.91793825806E+02 0.  0.
         23    2    1    2    0    0 -0.72396221135E+02 -0.16349680332E+03 -0.35887709792E+02  0.20386321983E+03  0.91103606722E+02 0.  0.
        -13    1    4    4    0    0 -0.20445126149E+02 -0.77196096278E+02  0.27949639715E+02  0.84607463170E+02  0.00000000000E+00 0.  1.
         13    1    4    4    0    0 -0.51951094986E+02 -0.86300707037E+02 -0.63837349507E+02  0.11925575666E+03  0.00000000000E+00 0. -1.
        -13    1    3    3    0    0  0.68508125380E+02  0.14459375338E+03  0.61895029088E+02  0.17155672935E+03  0.00000000000E+00 0.  1.
         13    1    3    3    0    0 -0.14280206255E+02  0.24334196202E+02 -0.17330553900E+02  0.33112316348E+02  0.00000000000E+00 0. -1.
         21    1    1    2  503  501 -0.19611623147E+02 -0.11195169042E+02  0.70919273304E+01  0.23669453005E+02  0.00000000000E+00 0. -1.
         -1    1    1    2    0  502  0.37779925157E+02  0.57640227774E+01 -0.71318808110E+02  0.80913034140E+02  0.00000000000E+00 0.  1.
<scales pt_clust_5="13000.00000" pt_clust_6="13000.00000" pt_clust_7="13000.00000" pt_clust_8="13000.00000" pt_clust_9="22.58202" pt_clust_10="37.74377"></scales>
<clustering>
<clus scale="   22.582">  1  9  2 -1</clus>
<clus scale="   37.744">  2 10  1 -1</clus>
<clus scale="   91.104">  5  6 -1 -1</clus>
<clus scale="   91.794">  7  8 -1 -1</clus>
<clus scale="  196.411">  2  5  1 -1</clus>
<clus scale="   37.744">  2  5  1 -1</clus>
</clustering>
</event>
<event>
10    2  0.3984345E-006  0.1279652E+03  0.7546771E-02  0.1230937E+00
         21   -1    0    0  501  502  0.00000000000E+00  0.00000000000E+00  0.24419770967E+03  0.24419770967E+03  0.00000000000E+00 0. -1.
          1   -1    0    0  503    0 -0.00000000000E+00 -0.00000000000E+00 -0.22947647970E+03  0.22947647970E+03  0.00000000000E+00 0. -1.
         23    2    1    2    0    0  0.23745948786E+01  0.86057762798E+02 -0.43055408515E+02  0.13270766402E+03  0.91356327913E+02 0.  0.
         23    2    1    2    0    0 -0.52138252407E+02 -0.79189808686E+02 -0.76494474668E+02  0.15321479732E+03  0.92919030870E+02 0.  0.
        -13    1    4    4    0    0 -0.19761422958E+02 -0.81046126913E+02 -0.16529820210E+02  0.85042480450E+02  0.00000000000E+00 0.  1.
         13    1    4    4    0    0 -0.32376829449E+02  0.18563182270E+01 -0.59964654458E+02  0.68172316866E+02  0.00000000000E+00 0. -1.
        -13    1    3    3    0    0 -0.15118286137E+02  0.59826220032E+02 -0.68497503972E+02  0.92193531386E+02  0.00000000000E+00 0. -1.
         13    1    3    3    0    0  0.17492881016E+02  0.26231542766E+02  0.25442095457E+02  0.40514132638E+02  0.00000000000E+00 0.  1.
         21    1    1    2  503  502  0.55654918916E+01 -0.24118521123E+02 -0.16462810258E+02  0.29727123688E+02  0.00000000000E+00 0. -1.
          1    1    1    2  501    0  0.44198165637E+02  0.17250567010E+02  0.15073392342E+03  0.15802460434E+03  0.00000000000E+00 0. -1.
<scales pt_clust_5="13000.00000" pt_clust_6="13000.00000" pt_clust_7="13000.00000" pt_clust_8="13000.00000" pt_clust_9="24.75233" pt_clust_10="47.38400"></scales>
<clustering>
<clus scale="   24.752">  2  9  1 -1</clus>
<clus scale="   47.384">  1 10  2 -1</clus>
<clus scale="   91.356">  7  8 -1 -1</clus>
<clus scale="   92.919">  5  6 -1 -1</clus>
<clus scale="  126.835">  2  7  1 -1</clus>
<clus scale="   47.384">  1  5  2 -1</clus>
</clustering>
</event>
<event>
10    2  0.3984345E-006  0.1890863E+03  0.7546771E-02  0.1159465E+00
         21   -1    0    0  501  502  0.00000000000E+00  0.00000000000E+00  0.19268122145E+03  0.19268122145E+03  0.00000000000E+00 0.  1.
          3   -1    0    0  503    0 -0.00000000000E+00 -0.00000000000E+00 -0.43093764851E+03  0.43093764851E+03  0.00000000000E+00 0. -1.
         23    2    1    2    0    0  0.64131242301E+02  0.15279321284E+03 -0.19455048804E+03  0.27137113056E+03  0.91289736415E+02 0.  0.
         23    2    1    2    0    0 -0.88351114397E+02 -0.17184072723E+03  0.52339660932E+02  0.22068558899E+03  0.92884520412E+02 0.  0.
        -11    1    4    4    0    0  0.14221856309E+01 -0.63301839781E+02 -0.14222982553E+02  0.64895598960E+02  0.00000000000E+00 0. -1.
         11    1    4    4    0    0 -0.89773300028E+02 -0.10853888745E+03  0.66562643485E+02  0.15578999003E+03  0.00000000000E+00 0.  1.
        -11    1    3    3    0    0 -0.18423638645E+02  0.68239673221E+02 -0.65101522197E+02  0.96095221809E+02  0.00000000000E+00 0.  1.
         11    1    3    3    0    0  0.82554880946E+02  0.84553539624E+02 -0.12944896584E+03  0.17527590875E+03  0.00000000000E+00 0. -1.
         21    1    1    2  503  502 -0.29919275801E+02 -0.55353656224E+01 -0.33965868533E+02  0.45601354829E+02  0.00000000000E+00 0.  1.
          3    1    1    2  501    0  0.54139147897E+02  0.24582880007E+02 -0.62079731419E+02  0.85960795584E+02  0.00000000000E+00 0. -1.
<scales pt_clust_5="13000.00000" pt_clust_6="13000.00000" pt_clust_7="13000.00000" pt_clust_8="13000.00000" pt_clust_9="30.42702" pt_clust_10="53.88851"></scales>
<clustering>
<clus scale="   30.427">  2  9  1 -1</clus>
<clus scale="   53.889">  1 10  2 -1</clus>
<clus scale="   91.290">  7  8 -1 -1</clus>
<clus scale="   92.885">  5  6 -1 -1</clus>
<clus scale="  188.308">  2  7  1 -1</clus>
<clus scale="   53.889">  1  5  2 -1</clus>
</clustering>
</event>
<event>
10    2  0.3984345E-006  0.2550691E+03  0.7546771E-02  0.1158335E+00
         21   -1    0    0  501  502  0.00000000000E+00  0.00000000000E+00  0.59720341263E+02  0.59720341263E+02  0.00000000000E+00 0.  1.
          1   -1    0    0  503    0 -0.00000000000E+00 -0.00000000000E+00 -0.19956946946E+04  0.19956946946E+04  0.00000000000E+00 0. -1.
         23    2    1    2    0    0  0.24730464425E+03  0.62470992891E+02 -0.77945443407E+03  0.82475321969E+03  0.87214944694E+02 0.  0.
         23    2    1    2    0    0 -0.33810922170E+01  0.26008226198E+01 -0.10652474092E+03  0.13222149577E+03  0.78210021433E+02 0.  0.
        -11    1    4    4    0    0  0.15704272107E+01 -0.25597628068E+02 -0.42254960281E+01  0.25991529793E+02  0.00000000000E+00 0. -1.
         11    1    4    4    0    0 -0.49515194277E+01  0.28198450688E+02 -0.10229924489E+03  0.10622996598E+03  0.00000000000E+00 0.  1.
        -11    1    3    3    0    0  0.15273943817E+03  0.23252371090E+02 -0.33882772888E+03  0.37238990131E+03  0.00000000000E+00 0.  1.
         11    1    3    3    0    0  0.94565206081E+02  0.39218621801E+02 -0.44062670518E+03  0.45236331838E+03  0.00000000000E+00 0. -1.
         21    1    1    2  503  502 -0.22250909247E+03 -0.62807411524E+02 -0.10517239496E+04  0.10768371898E+04  0.00000000000E+00 0. -1.
          1    1    1    2  501    0 -0.21414459568E+02 -0.22644039868E+01  0.17287712053E+01  0.21603130650E+02  0.00000000000E+00 0. -1.
<scales pt_clust_5="13000.00000" pt_clust_6="13000.00000" pt_clust_7="13000.00000" pt_clust_8="13000.00000" pt_clust_9="239.69520" pt_clust_10="21.53385"></scales>
<clustering>
<clus scale="   21.534">  1 10  2 -1</clus>
<clus scale="   78.210">  5  6 -1 -1</clus>
<clus scale="   78.764">  1  5  2 -1</clus>
<clus scale="   87.215">  7  8 -1 -1</clus>
<clus scale="  239.695">  2  9  1 -1</clus>
<clus scale="   21.534">  1  5  2 -1</clus>
</clustering>
</event>
<event>
10    2  0.3984345E-006  0.1547876E+03  0.7546771E-02  0.1197680E+00
         21   -1    0    0  503  502  0.00000000000E+00  0.00000000000E+00  0.25335604359E+03  0.25335604359E+03  0.00000000000E+00 0. -1.
         -2   -1    0    0    0  501 -0.00000000000E+00 -0.00000000000E+00 -0.31106618455E+03  0.31106618455E+03  0.00000000000E+00 0.  1.
         23    2    1    2    0    0  0.80417721051E+02 -0.11801181122E+03 -0.92021574599E+02  0.19222209199E+03  0.89930890184E+02 0.  0.
         23    2    1    2    0    0 -0.92188605664E+02  0.90788939820E+02  0.71564193017E+02  0.16441633039E+03  0.71902193073E+02 0.  0.
        -11    1    4    4    0    0 -0.37663813476E+02  0.84379096432E+02  0.52642940174E+02  0.10634695064E+03  0.00000000000E+00 0.  1.
         11    1    4    4    0    0 -0.54524792188E+02  0.64098433885E+01  0.18921252843E+02  0.58069379750E+02  0.00000000000E+00 0. -1.
        -13    1    3    3    0    0 -0.72891286062E+01 -0.46388622994E+02 -0.56668178325E+02  0.73595639638E+02  0.00000000000E+00 0.  1.
         13    1    3    3    0    0  0.87706849657E+02 -0.71623188230E+02 -0.35353396274E+02  0.11862645235E+03  0.00000000000E+00 0. -1.
         21    1    1    2  503  501 -0.12729871444E+02  0.23091370176E+02 -0.11923674723E+03  0.12211741437E+03  0.00000000000E+00 0. -1.
         -2    1    1    2    0  502  0.24500756057E+02  0.41315012273E+01  0.81983987855E+02  0.85666391394E+02  0.00000000000E+00 0.  1.
<scales pt_clust_5="13000.00000" pt_clust_6="13000.00000" pt_clust_7="13000.00000" pt_clust_8="13000.00000" pt_clust_9="26.29880" pt_clust_10="24.84666"></scales>
<clustering>
<clus scale="   24.847">  1 10  2 -1</clus>
<clus scale="   26.299">  2  9  1 -1</clus>
<clus scale="   71.902">  5  6 -1 -1</clus>
<clus scale="   89.931">  7  8 -1 -1</clus>
<clus scale="  145.057">  1  5  2 -1</clus>
<clus scale="   24.847">  1  5  2 -1</clus>
</clustering>
</event>
<event>
10    2  0.3984345E-006  0.9887987E+02  0.7546771E-02  0.1284968E+00
          4   -1    0    0  503    0 -0.00000000000E+00  0.00000000000E+00  0.93909268597E+02  0.93909268597E+02  0.00000000000E+00 0. -1.
         21   -1    0    0  501  502  0.00000000000E+00 -0.00000000000E+00 -0.18069044221E+03  0.18069044221E+03  0.00000000000E+00 0.  1.
         23    2    1    2    0    0  0.14298418609E+02  0.16765054430E+02 -0.21803735886E+02  0.95069705208E+02  0.89873990259E+02 0.  0.
         23    2    1    2    0    0 -0.39056120851E+02 -0.32391979288E+00 -0.83538987388E+02  0.13189306777E+03  0.94294927811E+02 0.  0.
        -13    1    4    4    0    0 -0.58133669647E+02  0.14109888895E+02 -0.89112703568E+02  0.10732980224E+03  0.00000000000E+00 0.  1.
         13    1    4    4    0    0  0.19077548797E+02 -0.14433808688E+02  0.55737161800E+01  0.24563265528E+02  0.00000000000E+00 0. -1.
        -13    1    3    3    0    0 -0.32597167992E+02  0.19333118005E+02 -0.28780527301E+02  0.47588481428E+02  0.00000000000E+00 0.  1.
         13    1    3    3    0    0  0.46895586601E+02 -0.25680635755E+01  0.69767914143E+01  0.47481223780E+02  0.00000000000E+00 0. -1.
         21    1    1    2  503  502  0.20565330977E+02  0.41983155789E+01  0.16058257949E+02  0.26427757004E+02  0.00000000000E+00 0. -1.
          4    1    1    2  501    0  0.41923712647E+01 -0.20639450216E+02  0.25032917125E+01  0.21209180829E+02  0.00000000000E+00 0. -1.
<scales pt_clust_5="13000.00000" pt_clust_6="13000.00000" pt_clust_7="13000.00000" pt_clust_8="13000.00000" pt_clust_9="20.98949" pt_clust_10="21.33425"></scales>
<clustering>
<clus scale="   20.989">  1  9  2 -1</clus>
<clus scale="   21.334">  2 10  1 -1</clus>
<clus scale="   89.874">  7  8 -1 -1</clus>
<clus scale="   94.295">  5  6 -1 -1</clus>
<clus scale="   94.673">  1  7  2 -1</clus>
<clus scale="   21.334">  2  5  1 -1</clus>
</clustering>
</event>
<event>
10    2  0.3984345E-006  0.1425131E+03  0.7546771E-02  0.1210413E+00
         21   -1    0    0  501  502  0.00000000000E+00  0.00000000000E+00  0.12249027180E+03  0.12249027180E+03  0.00000000000E+00 0. -1.
          2   -1    0    0  503    0 -0.00000000000E+00 -0.00000000000E+00 -0.40597074694E+03  0.40597074694E+03  0.00000000000E+00 0. -1.
         23    2    1    2    0    0 -0.49957236934E+02 -0.76699974866E+02 -0.16264050164E+03  0.20711176170E+03  0.89803882943E+02 0.  0.
         23    2    1    2    0    0  0.13233270423E+03  0.41851690038E+02 -0.11717215115E+03  0.20352858701E+03  0.91820826383E+02 0.  0.
        -11    1    4    4    0    0  0.12279686466E+03  0.62953277063E+02 -0.11611788532E+03  0.18034840824E+03  0.00000000000E+00 0.  1.
         11    1    4    4    0    0  0.95358395620E+01 -0.21101587025E+02 -0.10542658275E+01  0.23180178765E+02  0.00000000000E+00 0. -1.
        -13    1    3    3    0    0 -0.22875618745E+02  0.18031176374E+02 -0.45765911939E+02  0.54248833629E+02  0.00000000000E+00 0.  1.
         13    1    3    3    0    0 -0.27081618189E+02 -0.94731151240E+02 -0.11687458970E+03  0.15286292807E+03  0.00000000000E+00 0. -1.
         21    1    1    2  503  502 -0.32886567743E+02 -0.15890382120E+02 -0.24458289593E+02  0.43957235031E+02  0.00000000000E+00 0. -1.
          2    1    1    2  501    0 -0.49488899549E+02  0.50738666948E+02  0.20790467238E+02  0.73863435002E+02  0.00000000000E+00 0. -1.
<scales pt_clust_5="13000.00000" pt_clust_6="13000.00000" pt_clust_7="13000.00000" pt_clust_8="13000.00000" pt_clust_9="36.52438" pt_clust_10="71.74681"></scales>
<clustering>
<clus scale="   36.524">  2  9  1 -1</clus>
<clus scale="   71.747">  1 10  2 -1</clus>
<clus scale="   89.804">  7  8 -1 -1</clus>
<clus scale="   91.821">  5  6 -1 -1</clus>
<clus scale="  141.222">  2  7  1 -1</clus>
<clus scale="   71.747">  1  5  2 -1</clus>
</clustering>
</event>
<event>
10    2  0.3984345E-006  0.1059473E+03  0.7546771E-02  0.1268655E+00
          1   -1    0    0  503    0 -0.00000000000E+00  0.00000000000E+00  0.41575855438E+03  0.41575855438E+03  0.00000000000E+00 0. -1.
         21   -1    0    0  501  502  0.00000000000E+00 -0.00000000000E+00 -0.21621689511E+03  0.21621689511E+03  0.00000000000E+00 0.  1.
         23    2    1    2    0    0 -0.19251451804E+01  0.12333645972E+02  0.17888299637E+03  0.20166057246E+03  0.92260690912E+02 0.  0.
         23    2    1    2    0    0  0.21770935453E+02 -0.39804024367E+02 -0.58492938956E+01  0.10379507040E+03  0.93171178027E+02 0.  0.
        -11    1    3    3    0    0  0.18224879753E+02 -0.30921470520E+02  0.12323151456E+03  0.12835220980E+03  0.00000000000E+00 0.  1.
         11    1    3    3    0    0 -0.20150024933E+02  0.43255116492E+02  0.55651481812E+02  0.73308362657E+02  0.00000000000E+00 0. -1.
        -11    1    4    4    0    0  0.50302340701E+02  0.49515226616E+01 -0.21963247303E+01  0.50593150712E+02  0.00000000000E+00 0.  1.
         11    1    4    4    0    0 -0.28531405247E+02 -0.44755547029E+02 -0.36529691654E+01  0.53201919693E+02  0.00000000000E+00 0. -1.
         21    1    1    2  503  502 -0.72410662807E+02  0.15417498690E+02  0.16339922848E+03  0.17938871542E+03  0.00000000000E+00 0. -1.
          1    1    1    2  501    0  0.52564872535E+02  0.12052879705E+02 -0.13689127169E+03  0.14713109120E+03  0.00000000000E+00 0. -1.
<scales pt_clust_5="13000.00000" pt_clust_6="13000.00000" pt_clust_7="13000.00000" pt_clust_8="13000.00000" pt_clust_9="68.80878" pt_clust_10="53.92901"></scales>
<clustering>
<clus scale="   53.929">  2 10  1 -1</clus>
<clus scale="   68.809">  1  9  2 -1</clus>
<clus scale="   92.261">  5  6 -1 -1</clus>
<clus scale="   93.171">  7  8 -1 -1</clus>
<clus scale="  105.148">  1  5  2 -1</clus>
<clus scale="   53.929">  2  5  1 -1</clus>
</clustering>
</event>
<event>
10    2  0.3984345E-006  0.1166667E+03  0.7546771E-02  0.1249181E+00
         21   -1    0    0  501  502  0.00000000000E+00  0.00000000000E+00  0.25893875162E+03  0.25893875162E+03  0.00000000000E+00 0.  1.
          2   -1    0    0  503    0 -0.00000000000E+00 -0.00000000000E+00 -0.21296101436E+03  0.21296101436E+03  0.00000000000E+00 0. -1.
         23    2    1    2    0    0 -0.23282120347E+01  0.43100671454E+02 -0.13930787358E+02  0.10146308920E+03  0.90761242733E+02 0.  0.
         23    2    1    2    0    0  0.44707473385E+02 -0.91577721307E+02  0.32100945887E+02  0.14111373934E+03  0.92181231759E+02 0.  0.
        -11    1    3    3    0    0 -0.33801740045E+02  0.49250320747E+02 -0.28565574687E+02  0.66212867186E+02  0.00000000000E+00 0. -1.
         11    1    3    3    0    0  0.31473528010E+02 -0.61496492934E+01  0.14634787330E+02  0.35250222014E+02  0.00000000000E+00 0.  1.
        -13    1    4    4    0    0  0.10362148585E+02 -0.20704770836E+02 -0.32048917984E+02  0.39537258410E+02  0.00000000000E+00 0. -1.
         13    1    4    4    0    0  0.34345324800E+02 -0.70872950471E+02  0.64149863871E+02  0.10157648093E+03  0.00000000000E+00 0.  1.
         21    1    1    2  503  502  0.12610870460E+02  0.56840322214E+02 -0.85301450020E+02  0.10327726593E+03  0.00000000000E+00 0. -1.
          2    1    1    2  501    0 -0.54990131811E+02 -0.83632723606E+01  0.11310902874E+03  0.12604567150E+03  0.00000000000E+00 0. -1.
<scales pt_clust_5="13000.00000" pt_clust_6="13000.00000" pt_clust_7="13000.00000" pt_clust_8="13000.00000" pt_clust_9="57.02595" pt_clust_10="55.62247"></scales>
<clustering>
<clus scale="   55.622">  1 10  2 -1</clus>
<clus scale="   57.026">  2  9  1 -1</clus>
<clus scale="   90.761">  5  6 -1 -1</clus>
<clus scale="   92.181">  7  8 -1 -1</clus>
<clus scale="  115.548">  2  5  1 -1</clus>
<clus scale="   55.622">  1  5  2 -1</clus>
</clustering>
</event>
<event>
10    2  0.3984345E-006  0.3991906E+03  0.7546771E-02  0.1044135E+00
         -2   -1    0    0    0  501 -0.00000000000E+00  0.00000000000E+00  0.76524915764E+03  0.76524915764E+03  0.00000000000E+00 0.  1.
         21   -1    0    0  503  502  0.00000000000E+00 -0.00000000000E+00 -0.68039073518E+03  0.68039073518E+03  0.00000000000E+00 0. -1.
         23    2    1    2    0    0  0.10837457164E+02  0.34139790920E+03  0.45101031332E+03  0.57317504911E+03  0.91920353149E+02 0.  0.
         23    2    1    2    0    0  0.10788481549E+02 -0.38922990465E+03 -0.29761193604E+03  0.49794800144E+03  0.88108102082E+02 0.  0.
        -11    1    3    3    0    0 -0.73838105214E+01  0.19002077573E+03  0.31957071563E+03  0.37187075463E+03  0.00000000000E+00 0.  1.
         11    1    3    3    0    0  0.18221267686E+02  0.15137713347E+03  0.13143959769E+03  0.20130429448E+03  0.00000000000E+00 0. -1.
        -13    1    4    4    0    0  0.36469484111E+02 -0.29158183705E+03 -0.25218791131E+03  0.38723214430E+03  0.00000000000E+00 0. -1.
         13    1    4    4    0    0 -0.25681002563E+02 -0.97648067604E+02 -0.45424024735E+02  0.11071585714E+03  0.00000000000E+00 0.  1.
         21    1    1    2  503  501  0.25591886164E+01  0.58542945808E+02  0.14653712193E+03  0.15781937161E+03  0.00000000000E+00 0. -1.
         -2    1    1    2    0  502 -0.24185127330E+02 -0.10710950353E+02 -0.21507707676E+03  0.21669747066E+03  0.00000000000E+00 0.  1.
<scales pt_clust_5="13000.00000" pt_clust_6="13000.00000" pt_clust_7="13000.00000" pt_clust_8="13000.00000" pt_clust_9="58.45678" pt_clust_10="26.45080"></scales>
<clustering>
<clus scale="   26.451">  2 10  1 -1</clus>
<clus scale="   58.457">  1  9  2 -1</clus>
<clus scale="   88.108">  7  8 -1 -1</clus>
<clus scale="   91.920">  5  6 -1 -1</clus>
<clus scale="  398.330">  2  7  1 -1</clus>
<clus scale="   26.451">  2  5  1 -1</clus>
</clustering>
</event>
<event>
10    2  0.3984345E-006  0.3164525E+03  0.7546771E-02  0.1077375E+00
         -4   -1    0    0    0  501 -0.00000000000E+00  0.00000000000E+00  0.18942771874E+03  0.18942771874E+03  0.00000000000E+00 0.  1.
         21   -1    0    0  503  502  0.00000000000E+00 -0.00000000000E+00 -0.73330724037E+03  0.73330724037E+03  0.00000000000E+00 0.  1.
         23    2    1    2    0    0  0.10489885867E+03  0.30247230039E+03 -0.14597814862E+03  0.36309442605E+03  0.89636372653E+02 0.  0.
         23    2    1    2    0    0 -0.10529170241E+03 -0.26798552401E+03 -0.30313034276E+03  0.42809425946E+03  0.92054910827E+02 0.  0.
        -11    1    4    4    0    0 -0.60790014509E+02 -0.23712593168E+03 -0.27071087133E+03  0.36497740915E+03  0.00000000000E+00 0.  1.
         11    1    4    4    0    0 -0.44501687897E+02 -0.30859592332E+02 -0.32419471428E+02  0.63116850304E+02  0.00000000000E+00 0. -1.
        -13    1    3    3    0    0  0.43014616488E+02  0.34738213041E+02 -0.88761660248E+01  0.55998098184E+02  0.00000000000E+00 0. -1.
         13    1    3    3    0    0  0.61884242180E+02  0.26773408735E+03 -0.13710198259E+03  0.30709632786E+03  0.00000000000E+00 0.  1.
         21    1    1    2  503  501 -0.10775714339E+02 -0.17189082383E+02  0.11485619958E+02  0.23313087280E+02  0.00000000000E+00 0. -1.
         -4    1    1    2    0  502  0.11168558077E+02 -0.17297693996E+02 -0.10625665022E+03  0.10823318633E+03  0.00000000000E+00 0.  1.
<scales pt_clust_5="13000.00000" pt_clust_6="13000.00000" pt_clust_7="13000.00000" pt_clust_8="13000.00000" pt_clust_9="20.28745" pt_clust_10="20.63962"></scales>
<clustering>
<clus scale="   20.287">  1  9  2 -1</clus>
<clus scale="   20.640">  2 10  1 -1</clus>
<clus scale="   89.636">  7  8 -1 -1</clus>
<clus scale="   92.055">  5  6 -1 -1</clus>
<clus scale="  315.757">  1  7  2 -1</clus>
<clus scale="   20.640">  2  5  1 -1</clus>
</clustering>
</event>
<event>
10    2  0.3984345E-006  0.1985907E+03  0.7546771E-02  0.1167529E+00
         -4   -1    0    0    0  501 -0.00000000000E+00  0.00000000000E+00  0.16050283117E+03  0.16050283117E+03  0.00000000000E+00 0.  1.
         21   -1    0    0  503  502  0.00000000000E+00 -0.00000000000E+00 -0.16445285419E+04  0.16445285419E+04  0.00000000000E+00 0.  1.
         23    2    1    2    0    0 -0.72022157621E+01 -0.90180139735E+02 -0.22159700564E+03  0.25753947132E+03  0.95063225614E+02 0.  0.
         23    2    1    2    0    0  0.17399979004E+03  0.88771142860E+02 -0.14715443121E+03  0.26040414771E+03  0.89440766906E+02 0.  0.
        -11    1    4    4    0    0  0.11040383194E+03  0.96963753130E+02 -0.79006644303E+02  0.16683232712E+03  0.00000000000E+00 0.  1.
         11    1    4    4    0    0  0.63595958094E+02 -0.81926102706E+01 -0.68147786902E+02  0.93571820591E+02  0.00000000000E+00 0. -1.
        -13    1    3    3    0    0 -0.35254189896E+02 -0.56570044421E+00 -0.41690756765E+02  0.54601255681E+02  0.00000000000E+00 0. -1.
         13    1    3    3    0    0  0.28051974134E+02 -0.89614439291E+02 -0.17990624888E+03  0.20293821564E+03  0.00000000000E+00 0.  1.
         21    1    1    2  503  501  0.10313671367E+02 -0.24323629065E+02  0.77025483571E+02  0.81430558559E+02  0.00000000000E+00 0.  1.
         -4    1    1    2    0  502 -0.17711124564E+03  0.25732625941E+02 -0.11922997574E+04  0.12056571955E+04  0.00000000000E+00 0.  1.
<scales pt_clust_5="13000.00000" pt_clust_6="13000.00000" pt_clust_7="13000.00000" pt_clust_8="13000.00000" pt_clust_9="26.41989" pt_clust_10="177.30934"></scales>
<clustering>
<clus scale="   26.420">  1  9  2 -1</clus>
<clus scale="   89.441">  5  6 -1 -1</clus>
<clus scale="   95.063">  7  8 -1 -1</clus>
<clus scale="  134.880">  1  7  2 -1</clus>
<clus scale="  177.309">  2 10  1 -1</clus>
<clus scale="  177.309">  2  5  1 -1</clus>
</clustering>
</event>
<event>
10    2  0.3984345E-006  0.1496593E+03  0.7546771E-02  0.1203946E+00
          1   -1    0    0  503    0 -0.00000000000E+00  0.00000000000E+00  0.77339406708E+03  0.77339406708E+03  0.00000000000E+00 0. -1.
         21   -1    0    0  501  502  0.00000000000E+00 -0.00000000000E+00 -0.89810997681E+02  0.89810997681E+02  0.00000000000E+00 0.  1.
         23    2    1    2    0    0 -0.93930533461E+02 -0.64765298276E+02  0.21055517973E+03  0.26196061134E+03  0.10617150846E+03 0.  0.
         23    2    1    2    0    0  0.15695492339E+02  0.90332057931E+02  0.45152531285E+02  0.13764262895E+03  0.92198226947E+02 0.  0.
        -13    1    3    3    0    0 -0.62576844789E+02 -0.61847797206E+02  0.56141651609E+02  0.10436904028E+03  0.00000000000E+00 0.  1.
         13    1    3    3    0    0 -0.31353688672E+02 -0.29175010705E+01  0.15441352812E+03  0.15759157107E+03  0.00000000000E+00 0. -1.
        -13    1    4    4    0    0 -0.32168920979E+02  0.21390913902E+02  0.36708719398E+02  0.53291094513E+02  0.00000000000E+00 0. -1.
         13    1    4    4    0    0  0.47864413317E+02  0.68941144029E+02  0.84438118868E+01  0.84351534434E+02  0.00000000000E+00 0.  1.
         21    1    1    2  503  502  0.49994879063E+02 -0.90829714998E+02  0.29817759603E+03  0.31568877686E+03  0.00000000000E+00 0.  1.
          1    1    1    2  501    0  0.28240162059E+02  0.65262955343E+02  0.12969776236E+03  0.14791304761E+03  0.00000000000E+00 0. -1.
<scales pt_clust_5="13000.00000" pt_clust_6="13000.00000" pt_clust_7="13000.00000" pt_clust_8="13000.00000" pt_clust_9="99.14214" pt_clust_10="71.11094"></scales>
<clustering>
<clus scale="   71.111">  2 10  1 -1</clus>
<clus scale="   92.198">  7  8 -1 -1</clus>
<clus scale="   99.142">  1  9  2 -1</clus>
<clus scale="  106.172">  5  6 -1 -1</clus>
<clus scale="  140.093">  2  7  1 -1</clus>
<clus scale="   71.111">  2  5  1 -1</clus>
</clustering>
</event>
<event>
10    2  0.3984345E-006  0.1212788E+03  0.7546771E-02  0.1241306E+00
         -3   -1    0    0    0  501 -0.00000000000E+00  0.00000000000E+00  0.92789463446E+03  0.92789463446E+03  0.00000000000E+00 0.  1.
         21   -1    0    0  503  502  0.00000000000E+00 -0.00000000000E+00 -0.71353685533E+02  0.71353685533E+02  0.00000000000E+00 0. -1.
         23    2    1    2    0    0  0.74943113759E+02 -0.63655408072E+02  0.65018054304E+03  0.66396563589E+03  0.91908355488E+02 0.  0.
         23    2    1    2    0    0 -0.22044534609E+02  0.63279644901E+02  0.30983055069E+02  0.11712200283E+03  0.90924907922E+02 0.  0.
        -11    1    3    3    0    0 -0.14149035386E+02 -0.29947025780E+02  0.93476718517E+02  0.99171147317E+02  0.00000000000E+00 0. -1.
         11    1    3    3    0    0  0.89092149145E+02 -0.33708382292E+02  0.55670382453E+03  0.56479448857E+03  0.00000000000E+00 0.  1.
        -13    1    4    4    0    0  0.32282876835E+02  0.44317113361E+02  0.21042508940E+02  0.58727998909E+02  0.00000000000E+00 0.  1.
         13    1    4    4    0    0 -0.54327411444E+02  0.18962531540E+02  0.99405461286E+01  0.58394003921E+02  0.00000000000E+00 0. -1.
         21    1    1    2  503  501 -0.75325337843E+02 -0.22757979007E+02  0.16739387151E+03  0.18496632220E+03  0.00000000000E+00 0. -1.
         -3    1    1    2    0  502  0.22426758692E+02  0.23133742178E+02  0.79834793042E+01  0.33194359075E+02  0.00000000000E+00 0.  1.
<scales pt_clust_5="13000.00000" pt_clust_6="13000.00000" pt_clust_7="13000.00000" pt_clust_8="13000.00000" pt_clust_9="74.51363" pt_clust_10="32.22002"></scales>
<clustering>
<clus scale="   32.220">  2 10  1 -1</clus>
<clus scale="   74.514">  1  9  2 -1</clus>
<clus scale="   90.925">  7  8 -1 -1</clus>
<clus scale="   91.908">  5  6 -1 -1</clus>
<clus scale="  120.535">  2  7  1 -1</clus>
<clus scale="   32.220">  2  5  1 -1</clus>
</clustering>
</event>
<event>
10    2  0.3984345E-006  0.1056386E+03  0.7546771E-02  0.1269283E+00
         -2   -1    0    0    0  501 -0.00000000000E+00  0.00000000000E+00  0.17294502432E+03  0.17294502432E+03  0.00000000000E+00 0.  1.
         21   -1    0    0  503  502  0.00000000000E+00 -0.00000000000E+00 -0.15914615875E+03  0.15914615875E+03  0.00000000000E+00 0.  1.
         23    2    1    2    0    0  0.20529396087E+02  0.23903298791E+02  0.40953940463E+02  0.10048725327E+03  0.86183751561E+02 0.  0.
         23    2    1    2    0    0 -0.52508057692E+02 -0.85782249763E+02  0.16788589324E+02  0.13417833250E+03  0.87213976425E+02 0.  0.
        -13    1    4    4    0    0 -0.42380455236E+02  0.38836073724E+01  0.98847499017E+00  0.42569501701E+02  0.00000000000E+00 0. -1.
         13    1    4    4    0    0 -0.10127602456E+02 -0.89665857135E+02  0.15800114334E+02  0.91608830798E+02  0.00000000000E+00 0.  1.
        -13    1    3    3    0    0  0.21931267385E+02 -0.19965546169E+02 -0.11749645475E+02  0.31900747511E+02  0.00000000000E+00 0. -1.
         13    1    3    3    0    0 -0.14018712979E+01  0.43868844960E+02  0.52703585938E+02  0.68586505757E+02  0.00000000000E+00 0.  1.
         21    1    1    2  503  501 -0.47695612342E+00  0.20310643800E+02  0.94246255329E+01  0.22395832317E+02  0.00000000000E+00 0. -1.
         -2    1    1    2    0  502  0.32455617728E+02  0.41568307171E+02 -0.53368289749E+02  0.75029764986E+02  0.00000000000E+00 0.  1.
<scales pt_clust_5="13000.00000" pt_clust_6="13000.00000" pt_clust_7="13000.00000" pt_clust_8="13000.00000" pt_clust_9="20.31624" pt_clust_10="53.82917"></scales>
<clustering>
<clus scale="   20.316">  1  9  2 -1</clus>
<clus scale="   53.829">  2 10  1 -1</clus>
<clus scale="   86.184">  7  8 -1 -1</clus>
<clus scale="   87.214">  5  6 -1 -1</clus>
<clus scale="  104.790">  1  7  2 -1</clus>
<clus scale="   53.829">  2  5  1 -1</clus>
</clustering>
</event>
<event>
10    2  0.3984345E-006  0.9657376E+02  0.7546771E-02  0.1287933E+00
          1   -1    0    0  503    0 -0.00000000000E+00  0.00000000000E+00  0.10462659525E+03  0.10462659525E+03  0.00000000000E+00 0. -1.
         21   -1    0    0  501  502  0.00000000000E+00 -0.00000000000E+00 -0.32745952106E+03  0.32745952106E+03  0.00000000000E+00 0. -1.
         23    2    1    2    0    0 -0.21964019750E+02 -0.77420219793E+01  0.26503048878E+02  0.98953515668E+02  0.92450146540E+02 0.  0.
         23    2    1    2    0    0  0.55280621195E+02  0.17266103865E+02 -0.12301789231E+03  0.16414341136E+03  0.91954294310E+02 0.  0.
        -13    1    4    4    0    0  0.16127832756E+02 -0.25291414476E+02 -0.95503562032E+02  0.10010341151E+03  0.00000000000E+00 0.  1.
         13    1    4    4    0    0  0.39152788439E+02  0.42557518341E+02 -0.27514330279E+02  0.64039999849E+02  0.00000000000E+00 0. -1.
        -13    1    3    3    0    0 -0.71631700242E+01 -0.41725478890E+02  0.41204883862E+02  0.59077652691E+02  0.00000000000E+00 0.  1.
         13    1    3    3    0    0 -0.14800849726E+02  0.33983456911E+02 -0.14701834984E+02  0.39875862976E+02  0.00000000000E+00 0. -1.
         21    1    1    2  503  502  0.14469482114E+02 -0.14793996154E+02  0.11044479414E+02  0.23456529163E+02  0.00000000000E+00 0.  1.
          1    1    1    2  501    0 -0.47786083559E+02  0.52699142681E+01 -0.13736256179E+03  0.14553266012E+03  0.00000000000E+00 0. -1.
<scales pt_clust_5="13000.00000" pt_clust_6="13000.00000" pt_clust_7="13000.00000" pt_clust_8="13000.00000" pt_clust_9="20.69368" pt_clust_10="47.33154"></scales>
<clustering>
<clus scale="   20.694">  1  9  2 -1</clus>
<clus scale="   47.332">  2 10  1 -1</clus>
<clus scale="   91.954">  5  6 -1 -1</clus>
<clus scale="   92.450">  7  8 -1 -1</clus>
<clus scale="   96.099">  2  5  1 -1</clus>
<clus scale="   47.332">  2  5  1 -1</clus>
</clustering>
</event>
<event>
10    2  0.3984345E-006  0.1191732E+03  0.7546771E-02  0.1247043E+00
         21   -1    0    0  501  502  0.00000000000E+00  0.00000000000E+00  0.20128408832E+03  0.20128408832E+03  0.00000000000E+00 0. -1.
          1   -1    0    0  503    0 -0.00000000000E+00 -0.00000000000E+00 -0.28900850397E+03  0.28900850397E+03  0.00000000000E+00 0. -1.
         23    2    1    2    0    0  0.65516615814E+02  0.29530443970E+02 -0.67003380129E+02  0.13315775944E+03  0.89872475661E+02 0.  0.
         23    2    1    2    0    0 -0.13040340382E+02 -0.10270325784E+03  0.62092682863E+02  0.14578242341E+03  0.81725173972E+02 0.  0.
        -11    1    4    4    0    0  0.22698384668E+02 -0.11974827998E+02 -0.66053509079E+01  0.26499883636E+02  0.00000000000E+00 0.  1.
         11    1    4    4    0    0 -0.35738725050E+02 -0.90728429846E+02  0.68698033771E+02  0.11928253977E+03  0.00000000000E+00 0. -1.
        -13    1    3    3    0    0  0.39587724892E+02 -0.13988559488E+02  0.79091094289E+01  0.42724954893E+02  0.00000000000E+00 0.  1.
         13    1    3    3    0    0  0.25928890923E+02  0.43519003458E+02 -0.74912489558E+02  0.90432804547E+02  0.00000000000E+00 0. -1.
         21    1    1    2  503  502 -0.32604239293E+02  0.44431195471E+02 -0.13655146466E+03  0.14725308164E+03  0.00000000000E+00 0. -1.
          1    1    1    2  501    0 -0.19872036140E+02  0.28741618403E+02  0.53737746282E+02  0.64099327799E+02  0.00000000000E+00 0. -1.
<scales pt_clust_5="13000.00000" pt_clust_6="13000.00000" pt_clust_7="13000.00000" pt_clust_8="13000.00000" pt_clust_9="56.42331" pt_clust_10="34.94250"></scales>
<clustering>
<clus scale="   34.943">  1 10  2 -1</clus>
<clus scale="   56.423">  2  9  1 -1</clus>
<clus scale="   81.725">  5  6 -1 -1</clus>
<clus scale="   89.872">  7  8 -1 -1</clus>
<clus scale="  113.156">  1  5  2 -1</clus>
<clus scale="   34.943">  1  5  2 -1</clus>
</clustering>
</event>
<event>
10    2  0.3984345E-006  0.9832967E+02  0.7546771E-02  0.1284739E+00
         21   -1    0    0  503  502  0.00000000000E+00  0.00000000000E+00  0.53253789682E+02  0.53253789682E+02  0.00000000000E+00 0.  1.
         -3   -1    0    0    0  501 -0.00000000000E+00 -0.00000000000E+00 -0.52554905436E+03  0.52554905436E+03  0.00000000000E+00 0.  1.
         23    2    1    2    0    0  0.49691610606E+02  0.21260966118E+02 -0.35668517271E+03  0.37187216731E+03  0.90240298874E+02 0.  0.
         23    2    1    2    0    0 -0.23454433122E+02  0.16437306566E+01 -0.83869303863E+02  0.12668972205E+03  0.91996811140E+02 0.  0.
        -13    1    3    3    0    0  0.75712842673E+02  0.10203696929E+02 -0.24314576588E+03  0.25486548107E+03  0.00000000000E+00 0. -1.
         13    1    3    3    0    0 -0.26021232067E+02  0.11057269189E+02 -0.11353940684E+03  0.11700668624E+03  0.00000000000E+00 0.  1.
        -13    1    4    4    0    0 -0.54793887841E+02  0.19591704449E+02 -0.58801537617E+02  0.82727418998E+02  0.00000000000E+00 0.  1.
         13    1    4    4    0    0  0.31339454719E+02 -0.17947973793E+02 -0.25067766246E+02  0.43962303055E+02  0.00000000000E+00 0. -1.
         21    1    1    2  503  501 -0.21392220999E+02 -0.25343532492E+01 -0.48728602013E+02  0.53277825780E+02  0.00000000000E+00 0. -1.
         -3    1    1    2    0  502 -0.48449564844E+01 -0.20370343525E+02  0.16987813911E+02  0.26963128901E+02  0.00000000000E+00 0.  1.
<scales pt_clust_5="13000.00000" pt_clust_6="13000.00000" pt_clust_7="13000.00000" pt_clust_8="13000.00000" pt_clust_9="22.11225" pt_clust_10="20.93859"></scales>
<clustering>
<clus scale="   20.939">  1 10  2 -1</clus>
<clus scale="   22.112">  2  9  1 -1</clus>
<clus scale="   90.240">  5  6 -1 -1</clus>
<clus scale="   91.997">  7  8 -1 -1</clus>
<clus scale="   96.688">  2  5  1 -1</clus>
<clus scale="   20.939">  1  5  2 -1</clus>
</clustering>
</event>
<event>
10    2  0.3984345E-006  0.1018040E+03  0.7546771E-02  0.1280475E+00
         21   -1    0    0  501  502  0.00000000000E+00  0.00000000000E+00  0.50149788836E+02  0.50149788836E+02  0.00000000000E+00 0.  1.
          1   -1    0    0  503    0 -0.00000000000E+00 -0.00000000000E+00 -0.66720213624E+03  0.66720213624E+03  0.00000000000E+00 0. -1.
         23    2    1    2    0    0  0.36755273643E+02 -0.65930340770E+01 -0.20222983203E+03  0.22943297946E+03  0.10172594979E+03 0.  0.
         23    2    1    2    0    0  0.25243427574E+02 -0.13075079881E+02 -0.93746437656E+02  0.13602364009E+03  0.94370799199E+02 0.  0.
        -11    1    3    3    0    0 -0.11327735714E+02  0.35532333182E+02 -0.11760676889E+03  0.12337834651E+03  0.00000000000E+00 0. -1.
         11    1    3    3    0    0  0.48083009357E+02 -0.42125367259E+02 -0.84623063139E+02  0.10605463295E+03  0.00000000000E+00 0.  1.
        -13    1    4    4    0    0  0.23729342658E+02  0.38490097701E+02 -0.56650061117E+02  0.72483092846E+02  0.00000000000E+00 0. -1.
         13    1    4    4    0    0  0.15140849165E+01 -0.51565177582E+02 -0.37096376539E+02  0.63540547248E+02  0.00000000000E+00 0.  1.
         21    1    1    2  503  502 -0.66985830533E+02 -0.11448193538E+02 -0.31169220993E+03  0.31901441403E+03  0.00000000000E+00 0. -1.
          1    1    1    2  501    0  0.49871293154E+01  0.31116307496E+02 -0.93838677920E+01  0.32880891498E+02  0.00000000000E+00 0. -1.
<scales pt_clust_5="13000.00000" pt_clust_6="13000.00000" pt_clust_7="13000.00000" pt_clust_8="13000.00000" pt_clust_9="67.04899" pt_clust_10="31.51343"></scales>
<clustering>
<clus scale="   31.513">  1 10  2 -1</clus>
<clus scale="   67.049">  2  9  1 -1</clus>
<clus scale="   94.371">  7  8 -1 -1</clus>
<clus scale="   94.455">  1  7  2 -1</clus>
<clus scale="  101.726">  5  6 -1 -1</clus>
<clus scale="   31.513">  1  5  2 -1</clus>
</clustering>
</event>
<event>
10    2  0.3984345E-006  0.1634022E+03  0.7546771E-02  0.1186581E+00
         21   -1    0    0  503  502  0.00000000000E+00  0.00000000000E+00  0.12831235890E+03  0.12831235890E+03  0.00000000000E+00 0.  1.
         -1   -1    0    0    0  501 -0.00000000000E+00 -0.00000000000E+00 -0.62522642978E+03  0.62522642978E+03  0.00000000000E+00 0.  1.
         23    2    1    2    0    0 -0.84159752864E+02  0.68133923869E+02 -0.18204434864E+03  0.23470932062E+03  0.10110996355E+03 0.  0.
         23    2    1    2    0    0  0.12931768722E+03 -0.86480760772E+02 -0.21876868862E+03  0.28349485843E+03  0.91146088371E+02 0.  0.
        -11    1    4    4    0    0  0.50204992791E+02 -0.19862332984E+02 -0.16732335115E+02  0.56524548747E+02  0.00000000000E+00 0. -1.
         11    1    4    4    0    0  0.79112694432E+02 -0.66618427788E+02 -0.20203635351E+03  0.22697030969E+03  0.00000000000E+00 0.  1.
        -13    1    3    3    0    0  0.14110834936E+02  0.16705257421E+02 -0.39027334370E+00  0.21870839064E+02  0.00000000000E+00 0. -1.
         13    1    3    3    0    0 -0.98270587799E+02  0.51428666448E+02 -0.18165407530E+03  0.21283848155E+03  0.00000000000E+00 0.  1.
         21    1    1    2  503  501  0.18295573929E+02  0.10450724041E+02 -0.15014254834E+03  0.15161375426E+03  0.00000000000E+00 0.  1.
         -1    1    1    2    0  502 -0.63453508288E+02  0.78961128616E+01  0.54041514714E+02  0.83720855376E+02  0.00000000000E+00 0.  1.
<scales pt_clust_5="13000.00000" pt_clust_6="13000.00000" pt_clust_7="13000.00000" pt_clust_8="13000.00000" pt_clust_9="21.07002" pt_clust_10="63.41653"></scales>
<clustering>
<clus scale="   21.070">  2  9  1 -1</clus>
<clus scale="   63.417">  1 10  2 -1</clus>
<clus scale="   91.146">  5  6 -1 -1</clus>
<clus scale="  101.110">  7  8 -1 -1</clus>
<clus scale="  157.431">  1  5  2 -1</clus>
<clus scale="   63.417">  1  5  2 -1</clus>
</clustering>
</event>
<event>
10    2  0.3984345E-006  0.9508365E+02  0.7546771E-02  0.1291353E+00
         21   -1    0    0  501  502  0.00000000000E+00  0.00000000000E+00  0.20875028799E+03  0.20875028799E+03  0.00000000000E+00 0. -1.
          1   -1    0    0  503    0 -0.00000000000E+00 -0.00000000000E+00 -0.39541306275E+03  0.39541306275E+03  0.00000000000E+00 0. -1.
         23    2    1    2    0    0 -0.78435931350E+00  0.19009006297E+02 -0.20986990879E+03  0.22975143324E+03  0.91533518009E+02 0.  0.
         23    2    1    2    0    0  0.49550143315E+02 -0.12466712776E+02  0.10738858933E+03  0.14966214458E+03  0.90861503237E+02 0.  0.
        -11    1    3    3    0    0  0.25437664213E+02  0.29738199111E+02 -0.19267654557E+03  0.19661049428E+03  0.00000000000E+00 0. -1.
         11    1    3    3    0    0 -0.26222023527E+02 -0.10729192814E+02 -0.17193363218E+02  0.33140938958E+02  0.00000000000E+00 0.  1.
        -13    1    4    4    0    0  0.53790390479E+02 -0.42707565982E+02  0.93752763267E+02  0.11621928807E+03  0.00000000000E+00 0.  1.
         13    1    4    4    0    0 -0.42402471643E+01  0.30240853205E+02  0.13635826064E+02  0.33442856502E+02  0.00000000000E+00 0. -1.
         21    1    1    2  503  502 -0.24609311079E+02 -0.15948034490E+02 -0.15061206347E+03  0.15344038470E+03  0.00000000000E+00 0.  1.
          1    1    1    2  501    0 -0.24156472922E+02  0.94057409690E+01  0.66430608164E+02  0.71309388220E+02  0.00000000000E+00 0. -1.
<scales pt_clust_5="13000.00000" pt_clust_6="13000.00000" pt_clust_7="13000.00000" pt_clust_8="13000.00000" pt_clust_9="29.47904" pt_clust_10="25.92302"></scales>
<clustering>
<clus scale="   25.923">  1 10  2 -1</clus>
<clus scale="   29.479">  2  9  1 -1</clus>
<clus scale="   90.862">  7  8 -1 -1</clus>
<clus scale="   91.534">  5  6 -1 -1</clus>
<clus scale="   94.437">  1  7  2 -1</clus>
<clus scale="   25.923">  1  5  2 -1</clus>
</clustering>
</event>
<event>
10    2  0.3984345E-006  0.1608518E+03  0.7546771E-02  0.1211371E+00
          2   -1    0    0  503    0 -0.00000000000E+00  0.00000000000E+00  0.44935611029E+03  0.44935611029E+03  0.00000000000E+00 0. -1.
         21   -1    0    0  501  502  0.00000000000E+00 -0.00000000000E+00 -0.32320007190E+03  0.32320007190E+03  0.00000000000E+00 0.  1.
         23    2    1    2    0    0 -0.21213556628E+02  0.79018952954E+01  0.16810946911E+03  0.19372696944E+03  0.93578256817E+02 0.  0.
         23    2    1    2    0    0  0.10586626267E+03 -0.52349508700E+02 -0.13577409884E+03  0.20174437817E+03  0.91203352874E+02 0.  0.
        -11    1    3    3    0    0 -0.44237297113E+02 -0.25472357381E+02  0.63106143679E+02  0.81167510843E+02  0.00000000000E+00 0.  1.
         11    1    3    3    0    0  0.23023740485E+02  0.33374252676E+02  0.10500332543E+03  0.11255945859E+03  0.00000000000E+00 0. -1.
        -13    1    4    4    0    0  0.10071338482E+03 -0.47304902978E+01 -0.99578668863E+02  0.14170912007E+03  0.00000000000E+00 0.  1.
         13    1    4    4    0    0  0.51528778536E+01 -0.47619018402E+02 -0.36195429981E+02  0.60035258101E+02  0.00000000000E+00 0. -1.
         21    1    1    2  503  502  0.60101323019E+02 -0.10603061615E+01  0.18875505760E+03  0.19809534333E+03  0.00000000000E+00 0.  1.
          2    1    1    2  501    0 -0.14475402906E+03  0.45507919566E+02 -0.94934389479E+02  0.17898949125E+03  0.00000000000E+00 0. -1.
<scales pt_clust_5="13000.00000" pt_clust_6="13000.00000" pt_clust_7="13000.00000" pt_clust_8="13000.00000" pt_clust_9="60.11068" pt_clust_10="132.49628"></scales>
<clustering>
<clus scale="   60.111">  1  9  2 -1</clus>
<clus scale="   91.203">  7  8 -1 -1</clus>
<clus scale="   93.578">  5  6 -1 -1</clus>
<clus scale="   96.232">  1  5  2 -1</clus>
<clus scale="  132.496">  2 10  1 -1</clus>
<clus scale="  132.496">  2  5  1 -1</clus>
</clustering>
</event>
<event>
10    2  0.3984345E-006  0.1203874E+03  0.7546771E-02  0.1242624E+00
          1   -1    0    0  503    0 -0.00000000000E+00  0.00000000000E+00  0.54895358340E+03  0.54895358340E+03  0.00000000000E+00 0.  1.
         21   -1    0    0  501  502  0.00000000000E+00 -0.00000000000E+00 -0.11763683497E+03  0.11763683497E+03  0.00000000000E+00 0.  1.
         23    2    1    2    0    0  0.72696504671E+02 -0.51755767808E+02  0.44400826211E+03  0.46226811129E+03  0.92655429450E+02 0.  0.
         23    2    1    2    0    0 -0.45638724305E+02  0.43243294306E+02 -0.66348304468E+02  0.12978384834E+03  0.92135086284E+02 0.  0.
        -11    1    4    4    0    0 -0.29117595936E+02 -0.12166657752E+02  0.10816640817E+02  0.33359581420E+02  0.00000000000E+00 0. -1.
         11    1    4    4    0    0 -0.16521128369E+02  0.55409952058E+02 -0.77164945285E+02  0.96424266917E+02  0.00000000000E+00 0.  1.
        -11    1    3    3    0    0  0.83763803987E+02 -0.68642865339E+02  0.36565202096E+03  0.38135235446E+03  0.00000000000E+00 0.  1.
         11    1    3    3    0    0 -0.11067299316E+02  0.16887097531E+02  0.78356241146E+02  0.80915756832E+02  0.00000000000E+00 0. -1.
         21    1    1    2  503  502 -0.91253724368E+00  0.22176569120E+02  0.21536202522E+02  0.30926379698E+02  0.00000000000E+00 0.  1.
          1    1    1    2  501    0 -0.26145243123E+02 -0.13664095618E+02  0.32120588273E+02  0.43612079038E+02  0.00000000000E+00 0.  1.
<scales pt_clust_5="13000.00000" pt_clust_6="13000.00000" pt_clust_7="13000.00000" pt_clust_8="13000.00000" pt_clust_9="22.19534" pt_clust_10="28.85172"></scales>
<clustering>
<clus scale="   22.195">  1  9  2 -1</clus>
<clus scale="   28.852">  2 10  1 -1</clus>
<clus scale="   92.135">  5  6 -1 -1</clus>
<clus scale="   92.655">  7  8 -1 -1</clus>
<clus scale="  119.987">  2  5  1 -1</clus>
<clus scale="   28.852">  2  5  1 -1</clus>
</clustering>
</event>
<event>
10    2  0.3984345E-006  0.1331645E+03  0.7546771E-02  0.1222938E+00
         21   -1    0    0  501  502  0.00000000000E+00  0.00000000000E+00  0.42767608527E+03  0.42767608527E+03  0.00000000000E+00 0. -1.
          2   -1    0    0  503    0 -0.00000000000E+00 -0.00000000000E+00 -0.31433195450E+03  0.31433195450E+03  0.00000000000E+00 0. -1.
         23    2    1    2    0    0  0.34660758534E+02 -0.11219914814E+03 -0.21614657352E+03  0.26293668134E+03  0.92878092829E+02 0.  0.
         23    2    1    2    0    0  0.12672922371E+02  0.12179746469E+03  0.13308658083E+03  0.20311879619E+03  0.92466112726E+02 0.  0.
        -13    1    3    3    0    0  0.28722146710E+02 -0.97576087870E+01 -0.11469474424E+03  0.11863834539E+03  0.00000000000E+00 0.  1.
         13    1    3    3    0    0  0.59386118240E+01 -0.10244153935E+03 -0.10145182928E+03  0.14429833595E+03  0.00000000000E+00 0. -1.
        -13    1    4    4    0    0  0.25389959345E+02  0.11761523612E+02 -0.24356403461E+01  0.28087645275E+02  0.00000000000E+00 0. -1.
         13    1    4    4    0    0 -0.12717036974E+02  0.11003594108E+03  0.13552222118E+03  0.17503115092E+03  0.00000000000E+00 0.  1.
         21    1    1    2  503  502  0.42745391476E+01  0.31954187535E+02 -0.27547488273E+02  0.42405257882E+02  0.00000000000E+00 0. -1.
          2    1    1    2  501    0 -0.51608220053E+02 -0.41552504087E+02  0.22395161173E+03  0.23354730435E+03  0.00000000000E+00 0. -1.
<scales pt_clust_5="13000.00000" pt_clust_6="13000.00000" pt_clust_7="13000.00000" pt_clust_8="13000.00000" pt_clust_9="32.23882" pt_clust_10="65.85696"></scales>
<clustering>
<clus scale="   32.239">  2  9  1 -1</clus>
<clus scale="   65.857">  1 10  2 -1</clus>
<clus scale="   92.466">  7  8 -1 -1</clus>
<clus scale="   92.878">  5  6 -1 -1</clus>
<clus scale="  132.878">  1  7  2 -1</clus>
<clus scale="   65.857">  1  5  2 -1</clus>
</clustering>
</event>
<event>
10    2  0.3984345E-006  0.1035926E+03  0.7546771E-02  0.1273170E+00
         21   -1    0    0  501  502  0.00000000000E+00  0.00000000000E+00  0.77850188286E+02  0.77850188286E+02  0.00000000000E+00 0.  1.
          2   -1    0    0  503    0 -0.00000000000E+00 -0.00000000000E+00 -0.31593047336E+03  0.31593047336E+03  0.00000000000E+00 0. -1.
         23    2    1    2    0    0  0.25024735049E+02 -0.10964508949E+02 -0.12149609881E+03  0.15528442050E+03  0.92765787895E+02 0.  0.
         23    2    1    2    0    0 -0.50044926577E+02 -0.18579028325E+02 -0.22504122479E+02  0.10889300175E+03  0.92203987620E+02 0.  0.
        -11    1    3    3    0    0  0.42950696623E+02 -0.27830174678E+02 -0.27459548167E+02  0.58080183785E+02  0.00000000000E+00 0.  1.
         11    1    3    3    0    0 -0.17925961574E+02  0.16865665729E+02 -0.94036550643E+02  0.97204236717E+02  0.00000000000E+00 0. -1.
        -13    1    4    4    0    0 -0.75956696689E+02 -0.10408407408E+02 -0.27144637263E+02  0.81330105427E+02  0.00000000000E+00 0.  1.
         13    1    4    4    0    0  0.25911770112E+02 -0.81706209169E+01  0.46405147841E+01  0.27562896327E+02  0.00000000000E+00 0. -1.
         21    1    1    2  503  502  0.34916841106E+02  0.49919127743E+02 -0.86335113387E+02  0.10566388650E+03  0.00000000000E+00 0. -1.
          2    1    1    2  501    0 -0.98966495780E+01 -0.20375590470E+02 -0.77449503955E+01  0.23939352884E+02  0.00000000000E+00 0. -1.
<scales pt_clust_5="13000.00000" pt_clust_6="13000.00000" pt_clust_7="13000.00000" pt_clust_8="13000.00000" pt_clust_9="57.82170" pt_clust_10="22.65190"></scales>
<clustering>
<clus scale="   22.652">  1 10  2 -1</clus>
<clus scale="   57.822">  2  9  1 -1</clus>
<clus scale="   92.204">  7  8 -1 -1</clus>
<clus scale="   92.766">  5  6 -1 -1</clus>
<clus scale="  103.090">  1  7  2 -1</clus>
<clus scale="   22.652">  1  5  2 -1</clus>
</clustering>
</event>
<event>
10    2  0.3984345E-006  0.9897326E+02  0.7546771E-02  0.1285218E+00
         21   -1    0    0  501  502  0.00000000000E+00  0.00000000000E+00  0.71413457554E+02  0.71413457554E+02  0.00000000000E+00 0.  1.
          1   -1    0    0  503    0 -0.00000000000E+00 -0.00000000000E+00 -0.24752567933E+03  0.24752567933E+03  0.00000000000E+00 0. -1.
         23    2    1    2    0    0 -0.80107757758E+01  0.56661090271E+02 -0.88731854102E+02  0.14015556640E+03  0.92171520453E+02 0.  0.
         23    2    1    2    0    0  0.11058813133E+02 -0.12362746537E+02 -0.36683792802E+02  0.95652340795E+02  0.86767129694E+02 0.  0.
        -11    1    3    3    0    0 -0.38428172054E+02  0.35628446157E+02 -0.88875389940E+02  0.10317434526E+03  0.00000000000E+00 0. -1.
         11    1    3    3    0    0  0.30417396278E+02  0.21032644114E+02  0.14353583855E+00  0.36981221144E+02  0.00000000000E+00 0.  1.
        -11    1    4    4    0    0 -0.60309277164E+01 -0.42045478008E+02 -0.43424559378E+02  0.60744437336E+02  0.00000000000E+00 0. -1.
         11    1    4    4    0    0  0.17089740849E+02  0.29682731471E+02  0.67407665760E+01  0.34907903459E+02  0.00000000000E+00 0.  1.
         21    1    1    2  503  502 -0.13936839354E+02 -0.14914160109E+02 -0.47416071061E+02  0.51623167840E+02  0.00000000000E+00 0. -1.
          1    1    1    2  501    0  0.10888801997E+02 -0.29384183625E+02 -0.32805038160E+01  0.31508061850E+02  0.00000000000E+00 0. -1.
<scales pt_clust_5="13000.00000" pt_clust_6="13000.00000" pt_clust_7="13000.00000" pt_clust_8="13000.00000" pt_clust_9="20.41244" pt_clust_10="32.17989"></scales>
<clustering>
<clus scale="   20.412">  2  9  1 -1</clus>
<clus scale="   32.180">  1 10  2 -1</clus>
<clus scale="   86.767">  7  8 -1 -1</clus>
<clus scale="   92.172">  5  6 -1 -1</clus>
<clus scale="   93.961">  1  7  2 -1</clus>
<clus scale="   32.180">  1  5  2 -1</clus>
</clustering>
</event>
<event>
10    2  0.3984345E-006  0.1785936E+03  0.7546771E-02  0.1169269E+00
         21   -1    0    0  501  502  0.00000000000E+00  0.00000000000E+00  0.27778427235E+03  0.27778427235E+03  0.00000000000E+00 0. -1.
          2   -1    0    0  503    0 -0.00000000000E+00 -0.00000000000E+00 -0.41233132896E+03  0.41233132896E+03  0.00000000000E+00 0. -1.
         23    2    1    2    0    0  0.28003422782E+02  0.13287411777E+03 -0.85658065486E+02  0.18407887397E+03  0.90044460124E+02 0.  0.
         23    2    1    2    0    0  0.28101479036E+02 -0.16547881065E+03 -0.10151474422E+01  0.19085147508E+03  0.90831300313E+02 0.  0.
        -11    1    4    4    0    0  0.29279247359E+02 -0.97547935223E+01  0.14977676184E+02  0.34303951761E+02  0.00000000000E+00 0. -1.
         11    1    4    4    0    0 -0.11777683229E+01 -0.15572401713E+03 -0.15992823626E+02  0.15654752332E+03  0.00000000000E+00 0.  1.
        -13    1    3    3    0    0 -0.19687936403E+02  0.10654882250E+03 -0.60137974712E+02  0.12392272761E+03  0.00000000000E+00 0. -1.
         13    1    3    3    0    0  0.47691359186E+02  0.26325295274E+02 -0.25520090774E+02  0.60156146364E+02  0.00000000000E+00 0.  1.
         21    1    1    2  503  502 -0.13777943460E+03  0.49092675768E+02 -0.13182539805E+03  0.19690403496E+03  0.00000000000E+00 0. -1.
          2    1    1    2  501    0  0.81674532778E+02 -0.16487982885E+02  0.83951554365E+02  0.11828121729E+03  0.00000000000E+00 0. -1.
<scales pt_clust_5="13000.00000" pt_clust_6="13000.00000" pt_clust_7="13000.00000" pt_clust_8="13000.00000" pt_clust_9="131.09290" pt_clust_10="83.32216"></scales>
<clustering>
<clus scale="   83.322">  1 10  2 -1</clus>
<clus scale="   90.044">  7  8 -1 -1</clus>
<clus scale="   90.831">  5  6 -1 -1</clus>
<clus scale="  131.093">  2  9  1 -1</clus>
<clus scale="  178.195">  2  7  1 -1</clus>
<clus scale="   83.322">  1  5  2 -1</clus>
</clustering>
</event>
<event>
10    2  0.3984345E-006  0.1139036E+03  0.7546771E-02  0.1257282E+00
         21   -1    0    0  501  502  0.00000000000E+00  0.00000000000E+00  0.44252469612E+02  0.44252469612E+02  0.00000000000E+00 0.  1.
          3   -1    0    0  503    0 -0.00000000000E+00 -0.00000000000E+00 -0.78750839934E+03  0.78750839934E+03  0.00000000000E+00 0. -1.
         23    2    1    2    0    0 -0.53923007859E+02  0.25586942242E+02 -0.34942516840E+03  0.36832200683E+03  0.10000385002E+03 0.  0.
         23    2    1    2    0    0  0.24884344078E+02 -0.63602923174E+02 -0.17515239971E+03  0.20866736752E+03  0.90549128799E+02 0.  0.
        -11    1    3    3    0    0 -0.73135468582E+02 -0.33746315404E+00 -0.30354311541E+03  0.31222961672E+03  0.00000000000E+00 0. -1.
         11    1    3    3    0    0  0.19212460723E+02  0.25924405396E+02 -0.45882052987E+02  0.56092390112E+02  0.00000000000E+00 0.  1.
        -13    1    4    4    0    0  0.58439500954E+02 -0.38483860190E+02 -0.12549682855E+03  0.14368589612E+03  0.00000000000E+00 0.  1.
         13    1    4    4    0    0 -0.33555156876E+02 -0.25119062984E+02 -0.49655571161E+02  0.64981471401E+02  0.00000000000E+00 0. -1.
         21    1    1    2  503  502  0.46040795350E+02  0.19428414512E+02 -0.22359011436E+03  0.22910643239E+03  0.00000000000E+00 0. -1.
          3    1    1    2  501    0 -0.17002131569E+02  0.18587566420E+02  0.49117527312E+01  0.25665062209E+02  0.00000000000E+00 0. -1.
<scales pt_clust_5="13000.00000" pt_clust_6="13000.00000" pt_clust_7="13000.00000" pt_clust_8="13000.00000" pt_clust_9="49.22057" pt_clust_10="25.19067"></scales>
<clustering>
<clus scale="   25.191">  1 10  2 -1</clus>
<clus scale="   49.221">  2  9  1 -1</clus>
<clus scale="   90.549">  7  8 -1 -1</clus>
<clus scale="  100.004">  5  6 -1 -1</clus>
<clus scale="  105.700">  1  7  2 -1</clus>
<clus scale="   25.191">  1  5  2 -1</clus>
</clustering>
</event>
<event>
10    2  0.3984345E-006  0.9761348E+02  0.7546771E-02  0.1285420E+00
          2   -1    0    0  503    0 -0.00000000000E+00  0.00000000000E+00  0.46909334817E+03  0.46909334817E+03  0.00000000000E+00 0. -1.
         21   -1    0    0  501  502  0.00000000000E+00 -0.00000000000E+00 -0.79835746364E+02  0.79835746364E+02  0.00000000000E+00 0.  1.
         23    2    1    2    0    0  0.17163015575E+02 -0.43797488842E+00  0.99711976673E+02  0.13597357780E+03  0.90838178330E+02 0.  0.
         23    2    1    2    0    0  0.44414507642E+02  0.64622841733E+02  0.78677186964E+02  0.14346405249E+03  0.90791378702E+02 0.  0.
        -11    1    3    3    0    0 -0.19315973815E+02  0.35943739820E+02  0.40632256828E+02  0.57585063789E+02  0.00000000000E+00 0. -1.
         11    1    3    3    0    0  0.36478989390E+02 -0.36381714709E+02  0.59079719846E+02  0.78388514013E+02  0.00000000000E+00 0.  1.
        -13    1    4    4    0    0  0.17360001260E+02  0.59477509715E+02  0.20002158666E+01  0.61991488684E+02  0.00000000000E+00 0.  1.
         13    1    4    4    0    0  0.27054506381E+02  0.51453320175E+01  0.76676971097E+02  0.81472563810E+02  0.00000000000E+00 0. -1.
         21    1    1    2  503  502 -0.43091381462E+02 -0.54780717037E+02  0.23057666816E+03  0.24088045586E+03  0.00000000000E+00 0. -1.
          2    1    1    2  501    0 -0.18486141754E+02 -0.94041498078E+01 -0.19708229997E+02  0.28611008374E+02  0.00000000000E+00 0. -1.
<scales pt_clust_5="13000.00000" pt_clust_6="13000.00000" pt_clust_7="13000.00000" pt_clust_8="13000.00000" pt_clust_9="71.44397" pt_clust_10="20.74067"></scales>
<clustering>
<clus scale="   20.741">  2 10  1 -1</clus>
<clus scale="   71.444">  1  9  2 -1</clus>
<clus scale="   90.791">  7  8 -1 -1</clus>
<clus scale="   90.838">  5  6 -1 -1</clus>
<clus scale="   97.570">  2  7  1 -1</clus>
<clus scale="   20.741">  2  5  1 -1</clus>
</clustering>
</event>
<event>
10    2  0.3984345E-006  0.1461729E+03  0.7546771E-02  0.1206762E+00
          1   -1    0    0  502    0 -0.00000000000E+00  0.00000000000E+00  0.67815278375E+03  0.67815278375E+03  0.00000000000E+00 0. -1.
         21   -1    0    0  503  502  0.00000000000E+00 -0.00000000000E+00 -0.69014641640E+02  0.69014641640E+02  0.00000000000E+00 0.  1.
         23    2    1    2    0    0 -0.82809650307E+02  0.55390654861E+02  0.36493864930E+03  0.38792519538E+03  0.85907954377E+02 0.  0.
         23    2    1    2    0    0  0.14936990878E+03 -0.65570874708E+02  0.15778771337E+03  0.24541354142E+03  0.93380589857E+02 0.  0.
        -13    1    4    4    0    0  0.11773705768E+03 -0.85511287341E+02  0.99924682860E+02  0.17651950957E+03  0.00000000000E+00 0.  1.
         13    1    4    4    0    0  0.31632851101E+02  0.19940412633E+02  0.57863030508E+02  0.68894031849E+02  0.00000000000E+00 0. -1.
        -13    1    3    3    0    0 -0.61194690153E+02 -0.10368741970E+02  0.18482284637E+03  0.19496611361E+03  0.00000000000E+00 0.  1.
         13    1    3    3    0    0 -0.21614960154E+02  0.65759396831E+02  0.18011580293E+03  0.19295908177E+03  0.00000000000E+00 0. -1.
         21    1    1    2  503  501 -0.38941498491E+02  0.14650754701E+02  0.69888388247E+02  0.81335550221E+02  0.00000000000E+00 0. -1.
          1    1    1    2  501    0 -0.27618759982E+02 -0.44705348540E+01  0.16523391190E+02  0.32493138371E+02  0.00000000000E+00 0. -1.
<scales pt_clust_5="13000.00000" pt_clust_6="13000.00000" pt_clust_7="13000.00000" pt_clust_8="13000.00000" pt_clust_9="25.35569" pt_clust_10="74.09436"></scales>
<clustering>
<clus scale="   25.356">  9 10 -1 -1</clus>
<clus scale="   74.094">  2  9  1 -1</clus>
<clus scale="   85.908">  7  8 -1 -1</clus>
<clus scale="   93.381">  5  6 -1 -1</clus>
<clus scale="  141.516">  1  7  2 -1</clus>
<clus scale="   74.094">  2  5  1 -1</clus>
</clustering>
</event>
<event>
10    2  0.3984345E-006  0.9407790E+02  0.7546771E-02  0.1293509E+00
         21   -1    0    0  501  502  0.00000000000E+00  0.00000000000E+00  0.34635659651E+03  0.34635659651E+03  0.00000000000E+00 0. -1.
          2   -1    0    0  503    0 -0.00000000000E+00 -0.00000000000E+00 -0.12041597969E+03  0.12041597969E+03  0.00000000000E+00 0. -1.
         23    2    1    2    0    0  0.29303660008E+02 -0.24246718346E+02  0.22245322035E+02  0.10082819649E+03  0.90691030503E+02 0.  0.
         23    2    1    2    0    0 -0.98403559397E+01 -0.27745912929E+02  0.86008454082E+02  0.12871898880E+03  0.91128785868E+02 0.  0.
        -11    1    3    3    0    0  0.45815366159E+02 -0.47994832089E+02  0.36702345726E+01  0.66453158731E+02  0.00000000000E+00 0. -1.
         11    1    3    3    0    0 -0.16511706151E+02  0.23748113743E+02  0.18575087463E+02  0.34375037754E+02  0.00000000000E+00 0.  1.
        -13    1    4    4    0    0 -0.88531869443E+01  0.31668097166E+02  0.47992597692E+02  0.58176771399E+02  0.00000000000E+00 0.  1.
         13    1    4    4    0    0 -0.98716899538E+00 -0.59414010095E+02  0.38015856390E+02  0.70542217397E+02  0.00000000000E+00 0. -1.
         21    1    1    2  503  502 -0.13911490093E+02 -0.48907620369E+02 -0.29426349648E+02  0.58748573943E+02  0.00000000000E+00 0.  1.
          2    1    1    2  501    0 -0.55518139753E+01  0.10090025164E+03  0.14711319036E+03  0.17847681697E+03  0.00000000000E+00 0. -1.
<scales pt_clust_5="13000.00000" pt_clust_6="13000.00000" pt_clust_7="13000.00000" pt_clust_8="13000.00000" pt_clust_9="50.84766" pt_clust_10="91.24052"></scales>
<clustering>
<clus scale="   50.848">  2  9  1 -1</clus>
<clus scale="   90.691">  5  6 -1 -1</clus>
<clus scale="   91.129">  7  8 -1 -1</clus>
<clus scale="   91.241">  1 10  2 -1</clus>
<clus scale="   93.654">  2  5  1 -1</clus>
<clus scale="   91.241">  1  5  2 -1</clus>
</clustering>
</event>
<event>
10    2  0.3984345E-006  0.9266655E+02  0.7546771E-02  0.1296781E+00
         21   -1    0    0  503  502  0.00000000000E+00  0.00000000000E+00  0.11462784723E+03  0.11462784723E+03  0.00000000000E+00 0.  1.
         -1   -1    0    0    0  501 -0.00000000000E+00 -0.00000000000E+00 -0.20104008145E+03  0.20104008145E+03  0.00000000000E+00 0.  1.
         23    2    1    2    0    0  0.39469457985E+01 -0.14116746989E+02 -0.10381699512E+03  0.13973569276E+03  0.92375507728E+02 0.  0.
         23    2    1    2    0    0  0.26973094878E+01 -0.21850045291E+02  0.38486068832E+02  0.10206129435E+03  0.91927310162E+02 0.  0.
        -11    1    3    3    0    0 -0.34516979693E+02 -0.33205944081E+02 -0.71206293779E+02  0.85816040943E+02  0.00000000000E+00 0.  1.
         11    1    3    3    0    0  0.38463925491E+02  0.19089197092E+02 -0.32610701340E+02  0.53919651813E+02  0.00000000000E+00 0. -1.
        -13    1    4    4    0    0 -0.19699739425E+02 -0.48801402222E+02  0.38153712529E+01  0.52765648390E+02  0.00000000000E+00 0.  1.
         13    1    4    4    0    0  0.22397048912E+02  0.26951356932E+02  0.34670697579E+02  0.49295645965E+02  0.00000000000E+00 0. -1.
         21    1    1    2  503  501 -0.18132124472E+02  0.99939473671E+01 -0.36196262707E+02  0.41699188911E+02  0.00000000000E+00 0.  1.
         -1    1    1    2    0  502  0.11487869186E+02  0.25972844912E+02  0.15114954769E+02  0.32171752656E+02  0.00000000000E+00 0.  1.
<scales pt_clust_5="13000.00000" pt_clust_6="13000.00000" pt_clust_7="13000.00000" pt_clust_8="13000.00000" pt_clust_9="20.70393" pt_clust_10="28.51564"></scales>
<clustering>
<clus scale="   20.704">  2  9  1 -1</clus>
<clus scale="   28.516">  1 10  2 -1</clus>
<clus scale="   91.927">  7  8 -1 -1</clus>
<clus scale="   92.220">  1  7  2 -1</clus>
<clus scale="   92.376">  5  6 -1 -1</clus>
<clus scale="   28.516">  1  5  2 -1</clus>
</clustering>
</event>
<event>
10    2  0.3984345E-006  0.1013583E+03  0.7546771E-02  0.1279769E+00
         21   -1    0    0  503  502  0.00000000000E+00  0.00000000000E+00  0.15988707667E+03  0.15988707667E+03  0.00000000000E+00 0.  1.
         -1   -1    0    0    0  501 -0.00000000000E+00 -0.00000000000E+00 -0.53294273847E+03  0.53294273847E+03  0.00000000000E+00 0.  1.
         23    2    1    2    0    0  0.54485447266E+02 -0.18135065951E+02 -0.35081625131E+03  0.36570189761E+03  0.85838750856E+02 0.  0.
         23    2    1    2    0    0 -0.14303498304E+01 -0.95028776316E+01 -0.95572406214E+02  0.13213264619E+03  0.90733680495E+02 0.  0.
        -13    1    4    4    0    0 -0.14571834972E+02  0.26028121903E+02 -0.54742440332E+00  0.29834563474E+02  0.00000000000E+00 0. -1.
         13    1    4    4    0    0  0.13141485141E+02 -0.35530999534E+02 -0.95024981811E+02  0.10229808272E+03  0.00000000000E+00 0.  1.
        -13    1    3    3    0    0 -0.20299067738E+02 -0.19780829005E+02 -0.10478240176E+03  0.10854807721E+03  0.00000000000E+00 0. -1.
         13    1    3    3    0    0  0.74784515004E+02  0.16457630541E+01 -0.24603384955E+03  0.25715382040E+03  0.00000000000E+00 0.  1.
         21    1    1    2  503  501  0.19515488103E+02 -0.77351284585E+01 -0.46204098781E+02  0.50749435783E+02  0.00000000000E+00 0. -1.
         -1    1    1    2    0  502 -0.72570585538E+02  0.35373072041E+02  0.11953709451E+03  0.14424583556E+03  0.00000000000E+00 0.  1.
<scales pt_clust_5="13000.00000" pt_clust_6="13000.00000" pt_clust_7="13000.00000" pt_clust_8="13000.00000" pt_clust_9="20.99253" pt_clust_10="80.19878"></scales>
<clustering>
<clus scale="   20.993">  2  9  1 -1</clus>
<clus scale="   80.199">  1 10  2 -1</clus>
<clus scale="   85.839">  7  8 -1 -1</clus>
<clus scale="   90.734">  5  6 -1 -1</clus>
<clus scale="   97.001">  2  7  1 -1</clus>
<clus scale="   80.199">  1  5  2 -1</clus>
</clustering>
</event>
<event>
10    2  0.3984345E-006  0.1573509E+03  0.7546771E-02  0.1214838E+00
          1   -1    0    0  503    0 -0.00000000000E+00  0.00000000000E+00  0.20030137332E+03  0.20030137332E+03  0.00000000000E+00 0. -1.
         21   -1    0    0  501  502  0.00000000000E+00 -0.00000000000E+00 -0.23291740993E+03  0.23291740993E+03  0.00000000000E+00 0. -1.
         23    2    1    2    0    0  0.10739233762E+02 -0.32759444087E+02 -0.50358610160E+02  0.10857563894E+03  0.89800709551E+02 0.  0.
         23    2    1    2    0    0  0.10077467277E+03  0.10571671493E+03 -0.28071026278E+02  0.17213683170E+03  0.86669186127E+02 0.  0.
        -11    1    4    4    0    0  0.50264463945E+02 -0.24590624075E+01 -0.53655828230E+01  0.50609809351E+02  0.00000000000E+00 0.  1.
         11    1    4    4    0    0  0.50510208826E+02  0.10817577734E+03 -0.22705443455E+02  0.12152702235E+03  0.00000000000E+00 0. -1.
        -11    1    3    3    0    0  0.20294809132E+02  0.27538231885E+02 -0.25460793857E+02  0.42643704306E+02  0.00000000000E+00 0.  1.
         11    1    3    3    0    0 -0.95555753702E+01 -0.60297675973E+02 -0.24897816303E+02  0.65931934637E+02  0.00000000000E+00 0. -1.
         21    1    1    2  503  502 -0.28748764427E+02  0.55291095038E+01 -0.80099504184E+00  0.29286585684E+02  0.00000000000E+00 0.  1.
          1    1    1    2  501    0 -0.82765142105E+02 -0.78486380350E+02  0.46614594868E+02  0.12321972692E+03  0.00000000000E+00 0. -1.
<scales pt_clust_5="13000.00000" pt_clust_6="13000.00000" pt_clust_7="13000.00000" pt_clust_8="13000.00000" pt_clust_9="29.27563" pt_clust_10="131.33081"></scales>
<clustering>
<clus scale="   29.276">  1  9  2 -1</clus>
<clus scale="   86.669">  5  6 -1 -1</clus>
<clus scale="   89.801">  7  8 -1 -1</clus>
<clus scale="   95.501">  1  7  2 -1</clus>
<clus scale="  131.331">  2 10  1 -1</clus>
<clus scale="  131.331">  2  5  1 -1</clus>
</clustering>
</event>
<event>
10    2  0.3984345E-006  0.1185243E+03  0.7546771E-02  0.1257949E+00
         21   -1    0    0  501  502  0.00000000000E+00  0.00000000000E+00  0.17043533684E+03  0.17043533684E+03  0.00000000000E+00 0. -1.
          2   -1    0    0  503    0 -0.00000000000E+00 -0.00000000000E+00 -0.46107265506E+03  0.46107265506E+03  0.00000000000E+00 0. -1.
         23    2    1    2    0    0  0.30705101399E+02 -0.14527874326E+02 -0.20580373858E+03  0.22634865344E+03  0.87890111593E+02 0.  0.
         23    2    1    2    0    0  0.65125953235E+02 -0.38829561611E+02  0.81306752533E+02  0.13964967763E+03  0.84511063276E+02 0.  0.
        -11    1    4    4    0    0  0.88378592103E+01  0.26105166136E+02  0.21422440549E+02  0.34907139864E+02  0.00000000000E+00 0.  1.
         11    1    4    4    0    0  0.56288094025E+02 -0.64934727747E+02  0.59884311984E+02  0.10474253777E+03  0.00000000000E+00 0. -1.
        -13    1    3    3    0    0  0.61471413319E+02 -0.14924249392E+02 -0.14522339055E+03  0.15840233912E+03  0.00000000000E+00 0. -1.
         13    1    3    3    0    0 -0.30766311920E+02  0.39637506669E+00 -0.60580348027E+02  0.67946314318E+02  0.00000000000E+00 0.  1.
         21    1    1    2  503  502 -0.28873889490E+02 -0.17707435467E+02 -0.16440173241E+03  0.16785465256E+03  0.00000000000E+00 0. -1.
          2    1    1    2  501    0 -0.66957165143E+02  0.71064871403E+02 -0.17385997568E+01  0.97655008273E+02  0.00000000000E+00 0. -1.
<scales pt_clust_5="13000.00000" pt_clust_6="13000.00000" pt_clust_7="13000.00000" pt_clust_8="13000.00000" pt_clust_9="33.87115" pt_clust_10="83.10178"></scales>
<clustering>
<clus scale="   33.871">  2  9  1 -1</clus>
<clus scale="   84.511">  5  6 -1 -1</clus>
<clus scale="   87.890">  7  8 -1 -1</clus>
<clus scale="   92.586">  2  7  1 -1</clus>
<clus scale="   83.102">  1 10  2 -1</clus>
<clus scale="   83.102">  1  5  2 -1</clus>
</clustering>
</event>
<event>
10    2  0.3984345E-006  0.3405681E+03  0.7546771E-02  0.1066626E+00
         21   -1    0    0  501  502  0.00000000000E+00  0.00000000000E+00  0.27604154364E+03  0.27604154364E+03  0.00000000000E+00 0.  1.
          1   -1    0    0  503    0 -0.00000000000E+00 -0.00000000000E+00 -0.10123465520E+04  0.10123465520E+04  0.00000000000E+00 0. -1.
         23    2    1    2    0    0  0.31708533134E+03  0.62793566065E+02 -0.73045637852E+03  0.80386324513E+03  0.90241102871E+02 0.  0.
         23    2    1    2    0    0 -0.29241286204E+03 -0.78910481494E+02 -0.73650716061E+02  0.32520951251E+03  0.92761269261E+02 0.  0.
        -11    1    3    3    0    0  0.26329528052E+03  0.19389521523E+02 -0.61544042697E+03  0.66967699486E+03  0.00000000000E+00 0. -1.
         11    1    3    3    0    0  0.53790050822E+02  0.43404044542E+02 -0.11501595155E+03  0.13418625027E+03  0.00000000000E+00 0.  1.
        -13    1    4    4    0    0 -0.27217414856E+03 -0.68322144623E+02 -0.92630796516E+02  0.29551166991E+03  0.00000000000E+00 0.  1.
         13    1    4    4    0    0 -0.20238713483E+02 -0.10588336871E+02  0.18980080455E+02  0.29697842602E+02  0.00000000000E+00 0. -1.
         21    1    1    2  503  502  0.14871411296E+02  0.16419969190E+02 -0.39317668758E+02  0.45129295792E+02  0.00000000000E+00 0. -1.
          1    1    1    2  501    0 -0.39543880599E+02 -0.30305376081E+00  0.10711975497E+03  0.11418604222E+03  0.00000000000E+00 0. -1.
<scales pt_clust_5="13000.00000" pt_clust_6="13000.00000" pt_clust_7="13000.00000" pt_clust_8="13000.00000" pt_clust_9="22.15343" pt_clust_10="39.49047"></scales>
<clustering>
<clus scale="   22.153">  2  9  1 -1</clus>
<clus scale="   39.490">  1 10  2 -1</clus>
<clus scale="   90.241">  5  6 -1 -1</clus>
<clus scale="   92.761">  7  8 -1 -1</clus>
<clus scale="  339.890">  2  5  1 -1</clus>
<clus scale="   39.490">  1  5  2 -1</clus>
</clustering>
</event>
<event>
10    2  0.3984345E-006  0.1047503E+03  0.7546771E-02  0.1271865E+00
         21   -1    0    0  501  502  0.00000000000E+00  0.00000000000E+00  0.26705203243E+03  0.26705203243E+03  0.00000000000E+00 0.  1.
          1   -1    0    0  503    0 -0.00000000000E+00 -0.00000000000E+00 -0.24856695839E+03  0.24856695839E+03  0.00000000000E+00 0. -1.
         23    2    1    2    0    0  0.83328043509E+02 -0.82141129237E+01 -0.11995729238E+03  0.17169884680E+03  0.89887193244E+02 0.  0.
         23    2    1    2    0    0 -0.21054633764E+02  0.12107215382E+02  0.15730252586E+03  0.18420539618E+03  0.92723573443E+02 0.  0.
        -11    1    3    3    0    0  0.61520460668E+02  0.37342576057E+02 -0.76982411187E+02  0.10538276282E+03  0.00000000000E+00 0.  1.
         11    1    3    3    0    0  0.21807582841E+02 -0.45556688981E+02 -0.42974881198E+02  0.66316083979E+02  0.00000000000E+00 0. -1.
        -13    1    4    4    0    0 -0.51964769146E+02  0.84029795755E+01  0.13769502327E+03  0.14741392991E+03  0.00000000000E+00 0. -1.
         13    1    4    4    0    0  0.30910135383E+02  0.37042358068E+01  0.19607502586E+02  0.36791466265E+02  0.00000000000E+00 0.  1.
         21    1    1    2  503  502 -0.40813349299E+02 -0.16770411926E+02 -0.81268836781E+02  0.92474861605E+02  0.00000000000E+00 0.  1.
          1    1    1    2  501    0 -0.21460060447E+02  0.12877309467E+02  0.62408677346E+02  0.67239886240E+02  0.00000000000E+00 0. -1.
<scales pt_clust_5="13000.00000" pt_clust_6="13000.00000" pt_clust_7="13000.00000" pt_clust_8="13000.00000" pt_clust_9="44.54238" pt_clust_10="25.02717"></scales>
<clustering>
<clus scale="   25.027">  1 10  2 -1</clus>
<clus scale="   44.542">  2  9  1 -1</clus>
<clus scale="   89.887">  5  6 -1 -1</clus>
<clus scale="   92.724">  7  8 -1 -1</clus>
<clus scale="  102.248">  2  5  1 -1</clus>
<clus scale="   25.027">  1  5  2 -1</clus>
</clustering>
</event>
<event>
10    2  0.3984345E-006  0.1099254E+03  0.7546771E-02  0.1266392E+00
          1   -1    0    0  503    0 -0.00000000000E+00  0.00000000000E+00  0.39678779380E+03  0.39678779380E+03  0.00000000000E+00 0. -1.
         21   -1    0    0  501  502  0.00000000000E+00 -0.00000000000E+00 -0.79515436083E+02  0.79515436083E+02  0.00000000000E+00 0.  1.
         23    2    1    2    0    0 -0.33074442212E+02 -0.44777189225E+02  0.25896469825E+03  0.27780507305E+03  0.83749795641E+02 0.  0.
         23    2    1    2    0    0  0.14283658971E+02  0.36814106915E+02  0.43569723366E+02  0.11348517433E+03  0.97063188779E+02 0.  0.
        -11    1    3    3    0    0  0.23653943492E+02  0.59274618457E+01  0.68066147446E+02  0.72302449992E+02  0.00000000000E+00 0.  1.
         11    1    3    3    0    0 -0.56728385704E+02 -0.50704651070E+02  0.19089855080E+03  0.20550262306E+03  0.00000000000E+00 0. -1.
        -13    1    4    4    0    0  0.14352871006E+02 -0.30433407284E+02  0.29572074943E+02  0.44796258789E+02  0.00000000000E+00 0. -1.
         13    1    4    4    0    0 -0.69212035054E-01  0.67247514199E+02  0.13997648423E+02  0.68688915536E+02  0.00000000000E+00 0.  1.
         21    1    1    2  503  502  0.22895421680E+02 -0.12048061623E+02  0.42974817638E+02  0.50161649433E+02  0.00000000000E+00 0.  1.
          1    1    1    2  501    0 -0.41046384390E+01  0.20011143933E+02 -0.28236881537E+02  0.34851333076E+02  0.00000000000E+00 0. -1.
<scales pt_clust_5="13000.00000" pt_clust_6="13000.00000" pt_clust_7="13000.00000" pt_clust_8="13000.00000" pt_clust_9="24.92987" pt_clust_10="20.42777"></scales>
<clustering>
<clus scale="   20.428">  2 10  1 -1</clus>
<clus scale="   24.930">  1  9  2 -1</clus>
<clus scale="   83.750">  5  6 -1 -1</clus>
<clus scale="   97.063">  7  8 -1 -1</clus>
<clus scale="   98.368">  1  5  2 -1</clus>
<clus scale="   20.428">  2  5  1 -1</clus>
</clustering>
</event>
<event>
10    2  0.3984345E-006  0.1082856E+03  0.7546771E-02  0.1264054E+00
         21   -1    0    0  501  502  0.00000000000E+00  0.00000000000E+00  0.80650440489E+02  0.80650440489E+02  0.00000000000E+00 0.  1.
          2   -1    0    0  503    0 -0.00000000000E+00 -0.00000000000E+00 -0.32843735275E+03  0.32843735275E+03  0.00000000000E+00 0. -1.
         23    2    1    2    0    0  0.36969001973E+02 -0.23369583017E+02 -0.81226580607E+02  0.12910664333E+03  0.90321223629E+02 0.  0.
         23    2    1    2    0    0 -0.79008135000E+02  0.42339044784E+02 -0.84917274731E+02  0.15257170436E+03  0.89623107033E+02 0.  0.
        -11    1    3    3    0    0  0.16954488540E+02 -0.52603542179E+02 -0.20786423019E+02  0.59047969596E+02  0.00000000000E+00 0. -1.
         11    1    3    3    0    0  0.20014513433E+02  0.29233959162E+02 -0.60440157588E+02  0.70058673735E+02  0.00000000000E+00 0.  1.
        -11    1    4    4    0    0 -0.81370764202E+02  0.20558242300E+02 -0.96417096213E+02  0.12782839683E+03  0.00000000000E+00 0.  1.
         11    1    4    4    0    0  0.23626292019E+01  0.21780802484E+02  0.11499821481E+02  0.24743307533E+02  0.00000000000E+00 0. -1.
         21    1    1    2  503  502 -0.22966726949E+02  0.73055199298E+01 -0.37431422519E+02  0.44519125778E+02  0.00000000000E+00 0.  1.
          2    1    1    2  501    0  0.65005859977E+02 -0.26274981696E+02 -0.44211634399E+02  0.82890319765E+02  0.00000000000E+00 0. -1.
<scales pt_clust_5="13000.00000" pt_clust_6="13000.00000" pt_clust_7="13000.00000" pt_clust_8="13000.00000" pt_clust_9="24.10065" pt_clust_10="64.80383"></scales>
<clustering>
<clus scale="   24.101">  2  9  1 -1</clus>
<clus scale="   64.804">  1 10  2 -1</clus>
<clus scale="   89.623">  7  8 -1 -1</clus>
<clus scale="   90.321">  5  6 -1 -1</clus>
<clus scale="  107.704">  1  7  2 -1</clus>
<clus scale="   64.804">  1  5  2 -1</clus>
</clustering>
</event>
<event>
10    2  0.3984345E-006  0.2897792E+03  0.7546771E-02  0.1130120E+00
         21   -1    0    0  501  502  0.00000000000E+00  0.00000000000E+00  0.15524476545E+03  0.15524476545E+03  0.00000000000E+00 0. -1.
          1   -1    0    0  503    0 -0.00000000000E+00 -0.00000000000E+00 -0.89839260958E+03  0.89839260958E+03  0.00000000000E+00 0. -1.
         23    2    1    2    0    0 -0.56380632908E+02  0.36960787598E+01 -0.13579670967E+03  0.17233313263E+03  0.89808270658E+02 0.  0.
         23    2    1    2    0    0 -0.20714270762E+03  0.14576887620E+03 -0.37150552252E+03  0.45880141157E+03  0.91245358267E+02 0.  0.
        -11    1    3    3    0    0 -0.32911418930E+02 -0.14963909508E+02 -0.13762465168E+03  0.14229414898E+03  0.00000000000E+00 0.  1.
         11    1    3    3    0    0 -0.23469213978E+02  0.18659988268E+02  0.18279420048E+01  0.30038983652E+02  0.00000000000E+00 0. -1.
        -13    1    4    4    0    0 -0.30593975883E+02  0.18772795555E+01 -0.11376945717E+02  0.32694807427E+02  0.00000000000E+00 0.  1.
         13    1    4    4    0    0 -0.17654873174E+03  0.14389159664E+03 -0.36012857680E+03  0.42610660414E+03  0.00000000000E+00 0. -1.
         21    1    1    2  503  502  0.47399056319E+01 -0.23028021862E+02 -0.10241221127E+03  0.10507624619E+03  0.00000000000E+00 0. -1.
          1    1    1    2  501    0  0.25878343490E+03 -0.12643693309E+03 -0.13343340068E+03  0.31742658465E+03  0.00000000000E+00 0. -1.
<scales pt_clust_5="13000.00000" pt_clust_6="13000.00000" pt_clust_7="13000.00000" pt_clust_8="13000.00000" pt_clust_9="23.51077" pt_clust_10="275.03868"></scales>
<clustering>
<clus scale="   23.511">  2  9  1 -1</clus>
<clus scale="   89.808">  5  6 -1 -1</clus>
<clus scale="   91.245">  7  8 -1 -1</clus>
<clus scale="  105.556">  2  5  1 -1</clus>
<clus scale="  275.039">  1 10  2 -1</clus>
<clus scale="  275.039">  1  5  2 -1</clus>
</clustering>
</event>
<event>
10    2  0.3984345E-006  0.1629305E+03  0.7546771E-02  0.1185476E+00
         21   -1    0    0  501  502  0.00000000000E+00  0.00000000000E+00  0.15066049463E+03  0.15066049463E+03  0.00000000000E+00 0.  1.
          1   -1    0    0  503    0 -0.00000000000E+00 -0.00000000000E+00 -0.47646270521E+03  0.47646270521E+03  0.00000000000E+00 0. -1.
         23    2    1    2    0    0  0.79655772483E+02  0.76519491280E+02 -0.30532596796E+03  0.33710781918E+03  0.90650209106E+02 0.  0.
         23    2    1    2    0    0 -0.80786350443E+02 -0.92387413081E+02  0.45453242751E+01  0.15282998376E+03  0.90964143752E+02 0.  0.
        -11    1    3    3    0    0  0.21302600500E+02  0.68170148740E+02 -0.23356026060E+03  0.24423628989E+03  0.00000000000E+00 0.  1.
         11    1    3    3    0    0  0.58353171983E+02  0.83493425394E+01 -0.71765707360E+02  0.92871529298E+02  0.00000000000E+00 0. -1.
        -11    1    4    4    0    0 -0.70610498053E+02 -0.50812612624E+02 -0.35742785801E+02  0.94049512353E+02  0.00000000000E+00 0. -1.
         11    1    4    4    0    0 -0.10175852390E+02 -0.41574800457E+02  0.40288110076E+02  0.58780471403E+02  0.00000000000E+00 0.  1.
         21    1    1    2  503  502 -0.36450627214E+01  0.58415020660E+02 -0.58563587073E+02  0.82796707976E+02  0.00000000000E+00 0.  1.
          1    1    1    2  501    0  0.47756406810E+01 -0.42547098859E+02  0.33542020173E+02  0.54388688920E+02  0.00000000000E+00 0. -1.
<scales pt_clust_5="13000.00000" pt_clust_6="13000.00000" pt_clust_7="13000.00000" pt_clust_8="13000.00000" pt_clust_9="53.67302" pt_clust_10="42.81428"></scales>
<clustering>
<clus scale="   42.814">  1 10  2 -1</clus>
<clus scale="   53.673">  2  9  1 -1</clus>
<clus scale="   90.650">  5  6 -1 -1</clus>
<clus scale="   90.964">  7  8 -1 -1</clus>
<clus scale="  162.755">  2  5  1 -1</clus>
<clus scale="   42.814">  1  5  2 -1</clus>
</clustering>
</event>
<event>
10    2  0.3984345E-006  0.1899643E+03  0.7546771E-02  0.1158696E+00
         -3   -1    0    0    0  501 -0.00000000000E+00  0.00000000000E+00  0.15516623549E+03  0.15516623549E+03  0.00000000000E+00 0.  1.
         21   -1    0    0  503  502  0.00000000000E+00 -0.00000000000E+00 -0.68751718661E+03  0.68751718661E+03  0.00000000000E+00 0. -1.
         23    2    1    2    0    0 -0.14780407020E+03  0.10067329499E+03  0.19281117058E+02  0.20203815651E+03  0.92013584431E+02 0.  0.
         23    2    1    2    0    0  0.13656480840E+03 -0.14413320815E+03 -0.49157191803E+03  0.53839836946E+03  0.93837759214E+02 0.  0.
        -11    1    4    4    0    0  0.12792445239E+03 -0.72369461481E+02 -0.31486427834E+03  0.34747880259E+03  0.00000000000E+00 0.  1.
         11    1    4    4    0    0  0.86403560077E+01 -0.71763746671E+02 -0.17670763969E+03  0.19091956687E+03  0.00000000000E+00 0. -1.
        -13    1    3    3    0    0 -0.82178639792E+02  0.18800178535E+01  0.23637148395E+01  0.82234119762E+02  0.00000000000E+00 0.  1.
         13    1    3    3    0    0 -0.65625430410E+02  0.98793277139E+02  0.16917402219E+02  0.11980403675E+03  0.00000000000E+00 0. -1.
         21    1    1    2  503  501  0.28738457547E+02 -0.67062879885E+01 -0.23955358266E+02  0.38009636021E+02  0.00000000000E+00 0.  1.
         -3    1    1    2    0  502 -0.17499195747E+02  0.50166201148E+02 -0.36104791875E+02  0.64237260105E+02  0.00000000000E+00 0.  1.
<scales pt_clust_5="13000.00000" pt_clust_6="13000.00000" pt_clust_7="13000.00000" pt_clust_8="13000.00000" pt_clust_9="29.51056" pt_clust_10="51.68492"></scales>
<clustering>
<clus scale="   29.511">  1  9  2 -1</clus>
<clus scale="   51.685">  2 10  1 -1</clus>
<clus scale="   92.014">  7  8 -1 -1</clus>
<clus scale="   93.838">  5  6 -1 -1</clus>
<clus scale="  189.070">  1  7  2 -1</clus>
<clus scale="   51.685">  2  5  1 -1</clus>
</clustering>
</event>
<event>
10    2  0.3984345E-006  0.1110253E+03  0.7546771E-02  0.1259949E+00
          1   -1    0    0  503    0 -0.00000000000E+00  0.00000000000E+00  0.55248209153E+03  0.55248209153E+03  0.00000000000E+00 0. -1.
         21   -1    0    0  501  502  0.00000000000E+00 -0.00000000000E+00 -0.68798741806E+02  0.68798741806E+02  0.00000000000E+00 0. -1.
         23    2    1    2    0    0  0.71278061069E+02  0.88485341843E+01  0.32286510670E+03  0.34340469094E+03  0.92336591282E+02 0.  0.
         23    2    1    2    0    0 -0.38860873146E+02 -0.11211686607E+02  0.65913240137E+02  0.12290554736E+03  0.95526692438E+02 0.  0.
        -11    1    4    4    0    0 -0.44195584019E+02  0.22308051127E+02  0.84150544886E+00  0.49513704399E+02  0.00000000000E+00 0.  1.
         11    1    4    4    0    0  0.53347108730E+01 -0.33519737734E+02  0.65071734688E+02  0.73391842961E+02  0.00000000000E+00 0. -1.
        -13    1    3    3    0    0 -0.66309392013E+01 -0.29048578745E+02  0.68832760118E+02  0.75004920820E+02  0.00000000000E+00 0.  1.
         13    1    3    3    0    0  0.77909000270E+02  0.37897112929E+02  0.25403234658E+03  0.26839977012E+03  0.00000000000E+00 0. -1.
         21    1    1    2  503  502 -0.12468251072E+02 -0.16908844558E+02  0.11739565284E+03  0.11926066247E+03  0.00000000000E+00 0. -1.
          1    1    1    2  501    0 -0.19948936850E+02  0.19271996981E+02 -0.22490649942E+02  0.35709932567E+02  0.00000000000E+00 0. -1.
<scales pt_clust_5="13000.00000" pt_clust_6="13000.00000" pt_clust_7="13000.00000" pt_clust_8="13000.00000" pt_clust_9="21.00872" pt_clust_10="27.69699"></scales>
<clustering>
<clus scale="   21.009">  1  9  2 -1</clus>
<clus scale="   27.697">  2 10  1 -1</clus>
<clus scale="   92.337">  7  8 -1 -1</clus>
<clus scale="   95.527">  5  6 -1 -1</clus>
<clus scale="  108.293">  1  7  2 -1</clus>
<clus scale="   27.697">  2  5  1 -1</clus>
</clustering>
</event>
<event>
10    2  0.3984345E-006  0.1574955E+03  0.7546771E-02  0.1191817E+00
          3   -1    0    0  503    0 -0.00000000000E+00  0.00000000000E+00  0.52813417089E+02  0.52813417089E+02  0.00000000000E+00 0. -1.
         21   -1    0    0  501  502  0.00000000000E+00 -0.00000000000E+00 -0.13748317322E+04  0.13748317322E+04  0.00000000000E+00 0. -1.
         23    2    1    2    0    0  0.82664147727E+02  0.55937132593E+02 -0.31479711003E+03  0.34251254347E+03  0.90858669517E+02 0.  0.
         23    2    1    2    0    0 -0.18340730421E+03  0.47305272221E+02 -0.42041154816E+03  0.47028001366E+03  0.92419659163E+02 0.  0.
        -11    1    3    3    0    0  0.12167233403E+02 -0.23166314063E+02 -0.38091595188E+02  0.46213518584E+02  0.00000000000E+00 0.  1.
         11    1    3    3    0    0  0.70496914325E+02  0.79103446657E+02 -0.27670551484E+03  0.29629902488E+03  0.00000000000E+00 0. -1.
        -13    1    4    4    0    0 -0.92628592108E+02  0.68713421885E+02 -0.19864672761E+03  0.22970004966E+03  0.00000000000E+00 0.  1.
         13    1    4    4    0    0 -0.90778712104E+02 -0.21408149664E+02 -0.22176482056E+03  0.24057996400E+03  0.00000000000E+00 0. -1.
         21    1    1    2  503  502  0.13060953304E+02 -0.48121681728E+02 -0.60263830198E+02  0.78217734457E+02  0.00000000000E+00 0.  1.
          3    1    1    2  501    0  0.87682203181E+02 -0.55120723086E+02 -0.52654582671E+03  0.53663485769E+03  0.00000000000E+00 0. -1.
<scales pt_clust_5="13000.00000" pt_clust_6="13000.00000" pt_clust_7="13000.00000" pt_clust_8="13000.00000" pt_clust_9="49.86266" pt_clust_10="107.85841"></scales>
<clustering>
<clus scale="   49.863">  1  9  2 -1</clus>
<clus scale="   90.859">  5  6 -1 -1</clus>
<clus scale="   92.420">  7  8 -1 -1</clus>
<clus scale="  107.858">  2 10  1 -1</clus>
<clus scale="  156.585">  1  5  2 -1</clus>
<clus scale="  107.858">  2  5  1 -1</clus>
</clustering>
</event>
<event>
10    2  0.3984345E-006  0.1101835E+03  0.7546771E-02  0.1260835E+00
         21   -1    0    0  501  502  0.00000000000E+00  0.00000000000E+00  0.53387983632E+02  0.53387983632E+02  0.00000000000E+00 0.  1.
          3   -1    0    0  503    0 -0.00000000000E+00 -0.00000000000E+00 -0.73433468920E+03  0.73433468920E+03  0.00000000000E+00 0. -1.
         23    2    1    2    0    0  0.29528806037E+02 -0.66021336454E+02 -0.51072961964E+03  0.52401223088E+03  0.92267580874E+02 0.  0.
         23    2    1    2    0    0 -0.10105608837E+02  0.84054313572E+02 -0.64675442391E+02  0.13992379903E+03  0.90711111377E+02 0.  0.
        -11    1    3    3    0    0 -0.73071786234E+01 -0.77947776478E+02 -0.32605233808E+03  0.33531981434E+03  0.00000000000E+00 0. -1.
         11    1    3    3    0    0  0.36835984661E+02  0.11926440023E+02 -0.18467728156E+03  0.18869241654E+03  0.00000000000E+00 0.  1.
        -13    1    4    4    0    0 -0.24895368757E+02  0.70546880492E+02 -0.27736139131E+01  0.74862104344E+02  0.00000000000E+00 0.  1.
         13    1    4    4    0    0  0.14789759920E+02  0.13507433081E+02 -0.61901828478E+02  0.65061694689E+02  0.00000000000E+00 0. -1.
         21    1    1    2  503  502 -0.14468871824E+02  0.17643888144E+02 -0.68149037733E+02  0.71867561421E+02  0.00000000000E+00 0. -1.
          3    1    1    2  501    0 -0.49543253756E+01 -0.35676865262E+02 -0.37392605804E+02  0.51919081499E+02  0.00000000000E+00 0. -1.
<scales pt_clust_5="13000.00000" pt_clust_6="13000.00000" pt_clust_7="13000.00000" pt_clust_8="13000.00000" pt_clust_9="22.81787" pt_clust_10="34.99638"></scales>
<clustering>
<clus scale="   22.818">  2  9  1 -1</clus>
<clus scale="   34.996">  1 10  2 -1</clus>
<clus scale="   90.711">  7  8 -1 -1</clus>
<clus scale="   92.268">  5  6 -1 -1</clus>
<clus scale="  108.883">  1  7  2 -1</clus>
<clus scale="   34.996">  1  5  2 -1</clus>
</clustering>
</event>
<event>
10    2  0.3984345E-006  0.1046936E+03  0.7546771E-02  0.1276349E+00
         21   -1    0    0  503  502  0.00000000000E+00  0.00000000000E+00  0.56871230710E+02  0.56871230710E+02  0.00000000000E+00 0.  1.
         -3   -1    0    0    0  501 -0.00000000000E+00 -0.00000000000E+00 -0.46393061504E+03  0.46393061504E+03  0.00000000000E+00 0.  1.
         23    2    1    2    0    0  0.75822668365E+01 -0.30343454344E+02 -0.20354844417E+03  0.22809427809E+03  0.98065358720E+02 0.  0.
         23    2    1    2    0    0  0.31081995525E+02  0.33907795793E+02 -0.13463251537E+03  0.16651262434E+03  0.86514223155E+02 0.  0.
        -11    1    4    4    0    0 -0.33404249546E+00  0.23047167538E+02  0.44825657076E+01  0.23481416296E+02  0.00000000000E+00 0. -1.
         11    1    4    4    0    0  0.31416038020E+02  0.10860628255E+02 -0.13911508108E+03  0.14303120805E+03  0.00000000000E+00 0.  1.
        -13    1    3    3    0    0  0.16631939621E+02 -0.62781037373E+02 -0.10028871500E+03  0.11948182466E+03  0.00000000000E+00 0.  1.
         13    1    3    3    0    0 -0.90496727841E+01  0.32437583028E+02 -0.10325972918E+03  0.10861245343E+03  0.00000000000E+00 0. -1.
         21    1    1    2  503  501 -0.23532958734E+02 -0.19664379227E+02 -0.90333619258E+02  0.95397330808E+02  0.00000000000E+00 0.  1.
         -3    1    1    2    0  502 -0.15131303628E+02  0.16100037778E+02  0.21455194478E+02  0.30797612505E+02  0.00000000000E+00 0.  1.
<scales pt_clust_5="13000.00000" pt_clust_6="13000.00000" pt_clust_7="13000.00000" pt_clust_8="13000.00000" pt_clust_9="30.82697" pt_clust_10="22.09451"></scales>
<clustering>
<clus scale="   22.095">  1 10  2 -1</clus>
<clus scale="   30.827">  2  9  1 -1</clus>
<clus scale="   86.514">  5  6 -1 -1</clus>
<clus scale="   93.961">  1  5  2 -1</clus>
<clus scale="   98.065">  7  8 -1 -1</clus>
<clus scale="   22.095">  1  5  2 -1</clus>
</clustering>
</event>
<event>
10    2  0.3984345E-006  0.2738949E+03  0.7546771E-02  0.1099232E+00
         21   -1    0    0  501  502  0.00000000000E+00  0.00000000000E+00  0.11365067575E+03  0.11365067575E+03  0.00000000000E+00 0. -1.
          1   -1    0    0  503    0 -0.00000000000E+00 -0.00000000000E+00 -0.15156251547E+04  0.15156251547E+04  0.00000000000E+00 0. -1.
         23    2    1    2    0    0  0.14185131409E+03  0.25964472466E+03 -0.88432234313E+03  0.93672338754E+03  0.88811710135E+02 0.  0.
         23    2    1    2    0    0 -0.84198985621E+02 -0.20370648699E+03 -0.31460123214E+03  0.39506005151E+03  0.92264332267E+02 0.  0.
        -13    1    3    3    0    0  0.11223353172E+03  0.18820941926E+03 -0.75386685091E+03  0.78506966573E+03  0.00000000000E+00 0. -1.
         13    1    3    3    0    0  0.29617782378E+02  0.71435305405E+02 -0.13045549222E+03  0.15165372182E+03  0.00000000000E+00 0.  1.
        -13    1    4    4    0    0 -0.77708877383E+02 -0.68520666925E+02 -0.13484696055E+03  0.17005132810E+03  0.00000000000E+00 0.  1.
         13    1    4    4    0    0 -0.64901082381E+01 -0.13518582007E+03 -0.17975427159E+03  0.22500872341E+03  0.00000000000E+00 0. -1.
         21    1    1    2  503  502 -0.14551209520E+02 -0.26827189347E+02 -0.23465546515E+03  0.23663183030E+03  0.00000000000E+00 0. -1.
          1    1    1    2  501    0 -0.43101118953E+02 -0.29111048322E+02  0.31604561487E+02  0.60860561090E+02  0.00000000000E+00 0. -1.
<scales pt_clust_5="13000.00000" pt_clust_6="13000.00000" pt_clust_7="13000.00000" pt_clust_8="13000.00000" pt_clust_9="30.51943" pt_clust_10="52.32080"></scales>
<clustering>
<clus scale="   30.519">  2  9  1 -1</clus>
<clus scale="   52.321">  1 10  2 -1</clus>
<clus scale="   88.812">  5  6 -1 -1</clus>
<clus scale="   92.264">  7  8 -1 -1</clus>
<clus scale="  272.751">  2  5  1 -1</clus>
<clus scale="   52.321">  1  5  2 -1</clus>
</clustering>
</event>
<event>
10    2  0.3984345E-006  0.1653737E+03  0.7546771E-02  0.1207460E+00
         21   -1    0    0  501  502  0.00000000000E+00  0.00000000000E+00  0.25447101165E+03  0.25447101165E+03  0.00000000000E+00 0. -1.
          2   -1    0    0  503    0 -0.00000000000E+00 -0.00000000000E+00 -0.28032178527E+03  0.28032178527E+03  0.00000000000E+00 0. -1.
         23    2    1    2    0    0  0.25415617188E+02 -0.11476971208E+02  0.94237787980E+02  0.13449595536E+03  0.91818989641E+02 0.  0.
         23    2    1    2    0    0 -0.82096127180E+02  0.12285259929E+03  0.63030454500E+01  0.17375584949E+03  0.91207629055E+02 0.  0.
        -11    1    4    4    0    0 -0.34021082260E+02 -0.19352101257E+01  0.19696004974E+02  0.39358756183E+02  0.00000000000E+00 0.  1.
         11    1    4    4    0    0 -0.48075044921E+02  0.12478780942E+03 -0.13392959524E+02  0.13439709330E+03  0.00000000000E+00 0. -1.
        -13    1    3    3    0    0  0.70305964487E+01  0.22353265912E+02  0.93070519856E+02  0.95975098070E+02  0.00000000000E+00 0. -1.
         13    1    3    3    0    0  0.18385020739E+02 -0.33830237121E+02  0.11672681246E+01  0.38520857287E+02  0.00000000000E+00 0.  1.
         21    1    1    2  503  502  0.15952834894E+02  0.12462413244E+02 -0.88495258920E+02  0.90781140863E+02  0.00000000000E+00 0. -1.
          2    1    1    2  501    0  0.40727675099E+02 -0.12383804133E+03 -0.37896348139E+02  0.13575985121E+03  0.00000000000E+00 0. -1.
<scales pt_clust_5="13000.00000" pt_clust_6="13000.00000" pt_clust_7="13000.00000" pt_clust_8="13000.00000" pt_clust_9="20.24363" pt_clust_10="137.94797"></scales>
<clustering>
<clus scale="   20.244">  2  9  1 -1</clus>
<clus scale="   91.208">  5  6 -1 -1</clus>
<clus scale="   91.819">  7  8 -1 -1</clus>
<clus scale="   96.272">  2  7  1 -1</clus>
<clus scale="  137.948">  1 10  2 -1</clus>
<clus scale="  137.948">  1  5  2 -1</clus>
</clustering>
</event>
<event>
10    2  0.3984345E-006  0.1833730E+03  0.7546771E-02  0.1164608E+00
         21   -1    0    0  501  502  0.00000000000E+00  0.00000000000E+00  0.17518137594E+03  0.17518137594E+03  0.00000000000E+00 0. -1.
          1   -1    0    0  503    0 -0.00000000000E+00 -0.00000000000E+00 -0.69327904200E+03  0.69327904200E+03  0.00000000000E+00 0. -1.
         23    2    1    2    0    0 -0.17842438380E+03  0.90907294596E+02 -0.37680696465E+03  0.43639853278E+03  0.91437376742E+02 0.  0.
         23    2    1    2    0    0  0.10584007525E+03 -0.40827311969E+02  0.71478267802E+02  0.16214838476E+03  0.91180946369E+02 0.  0.
        -11    1    4    4    0    0  0.29837194828E+02 -0.60516434778E+01  0.72423151426E+02  0.78562035657E+02  0.00000000000E+00 0. -1.
         11    1    4    4    0    0  0.76002880420E+02 -0.34775668492E+02 -0.94488362410E+00  0.83586349102E+02  0.00000000000E+00 0.  1.
        -11    1    3    3    0    0 -0.10129184393E+03  0.50140675325E+00 -0.17483858225E+03  0.20206142358E+03  0.00000000000E+00 0.  1.
         11    1    3    3    0    0 -0.77132539871E+02  0.90405887843E+02 -0.20196838239E+03  0.23433710920E+03  0.00000000000E+00 0. -1.
         21    1    1    2  503  502  0.14847485970E+02 -0.69387440568E+02 -0.19343255788E+03  0.20603693648E+03  0.00000000000E+00 0. -1.
          1    1    1    2  501    0  0.57736822579E+02  0.19307457942E+02 -0.19336411344E+02  0.63876563913E+02  0.00000000000E+00 0. -1.
<scales pt_clust_5="13000.00000" pt_clust_6="13000.00000" pt_clust_7="13000.00000" pt_clust_8="13000.00000" pt_clust_9="70.72194" pt_clust_10="60.87954"></scales>
<clustering>
<clus scale="   60.880">  1 10  2 -1</clus>
<clus scale="   70.722">  2  9  1 -1</clus>
<clus scale="   91.181">  5  6 -1 -1</clus>
<clus scale="   91.437">  7  8 -1 -1</clus>
<clus scale="  183.245">  1  5  2 -1</clus>
<clus scale="   60.880">  1  5  2 -1</clus>
</clustering>
</event>
<event>
10    2  0.3984345E-006  0.1219170E+03  0.7546771E-02  0.1253321E+00
         21   -1    0    0  501  502  0.00000000000E+00  0.00000000000E+00  0.18644756847E+03  0.18644756847E+03  0.00000000000E+00 0.  1.
          4   -1    0    0  503    0 -0.00000000000E+00 -0.00000000000E+00 -0.38082382628E+03  0.38082382628E+03  0.00000000000E+00 0. -1.
         23    2    1    2    0    0  0.11047365212E+02 -0.34584185905E+01 -0.30276439751E+03  0.32529202585E+03  0.11838334657E+03 0.  0.
         23    2    1    2    0    0 -0.56906463933E+02  0.25873853891E+02  0.75719680258E+02  0.13222802463E+03  0.88560592623E+02 0.  0.
        -13    1    3    3    0    0 -0.65206538907E+01  0.55278564827E+02 -0.11481005801E+03  0.12759148905E+03  0.00000000000E+00 0.  1.
         13    1    3    3    0    0  0.17568019103E+02 -0.58736983418E+02 -0.18795433950E+03  0.19770053681E+03  0.00000000000E+00 0. -1.
        -13    1    4    4    0    0 -0.19767210373E+01 -0.21251785833E+02 -0.68623486666E+01  0.22419581985E+02  0.00000000000E+00 0. -1.
         13    1    4    4    0    0 -0.54929742896E+02  0.47125639725E+02  0.82582028924E+02  0.10980844264E+03  0.00000000000E+00 0.  1.
         21    1    1    2  503  502  0.15100535865E+01 -0.21327056796E+02 -0.27602264791E+02  0.34914304161E+02  0.00000000000E+00 0. -1.
          4    1    1    2  501    0  0.44349045134E+02 -0.10883785043E+01  0.60270724236E+02  0.74837040107E+02  0.00000000000E+00 0. -1.
<scales pt_clust_5="13000.00000" pt_clust_6="13000.00000" pt_clust_7="13000.00000" pt_clust_8="13000.00000" pt_clust_9="21.38045" pt_clust_10="44.40697"></scales>
<clustering>
<clus scale="   21.380">  2  9  1 -1</clus>
<clus scale="   44.407">  1 10  2 -1</clus>
<clus scale="   88.561">  7  8 -1 -1</clus>
<clus scale="   93.231">  1  7  2 -1</clus>
<clus scale="  118.383">  5  6 -1 -1</clus>
<clus scale="   44.407">  1  5  2 -1</clus>
</clustering>
</event>
<event>
10    2  0.3984345E-006  0.2333795E+03  0.7546771E-02  0.1124348E+00
         -1   -1    0    0    0  501 -0.00000000000E+00  0.00000000000E+00  0.26451022830E+03  0.26451022830E+03  0.00000000000E+00 0.  1.
         21   -1    0    0  503  502  0.00000000000E+00 -0.00000000000E+00 -0.77090045897E+03  0.77090045897E+03  0.00000000000E+00 0. -1.
         23    2    1    2    0    0  0.21288389957E+03  0.49615231213E+02 -0.74485068227E+02  0.24836141982E+03  0.91401004381E+02 0.  0.
         23    2    1    2    0    0 -0.27885032136E+03  0.44243283605E+02 -0.46237340924E+03  0.54925707057E+03  0.90438875092E+02 0.  0.
        -11    1    3    3    0    0  0.96359131574E+02  0.21325966930E+02 -0.81864357588E+02  0.12822500593E+03  0.00000000000E+00 0. -1.
         11    1    3    3    0    0  0.11652476799E+03  0.28289264283E+02  0.73792893617E+01  0.12013641388E+03  0.00000000000E+00 0.  1.
        -11    1    4    4    0    0 -0.41151402343E+02  0.33500546135E+02 -0.48646153533E+02  0.71987309713E+02  0.00000000000E+00 0.  1.
         11    1    4    4    0    0 -0.23769891902E+03  0.10742737470E+02 -0.41372725571E+03  0.47726976085E+03  0.00000000000E+00 0. -1.
         21    1    1    2  503  501 -0.35946902156E+02 -0.29567766232E+02  0.91546083092E+02  0.10269916214E+03  0.00000000000E+00 0.  1.
         -1    1    1    2    0  502  0.10191332395E+03 -0.64290748587E+02 -0.61077836291E+02  0.13509303475E+03  0.00000000000E+00 0.  1.
<scales pt_clust_5="13000.00000" pt_clust_6="13000.00000" pt_clust_7="13000.00000" pt_clust_8="13000.00000" pt_clust_9="46.54495" pt_clust_10="117.66980"></scales>
<clustering>
<clus scale="   46.545">  1  9  2 -1</clus>
<clus scale="   90.439">  7  8 -1 -1</clus>
<clus scale="   91.401">  5  6 -1 -1</clus>
<clus scale="  117.670">  2 10  1 -1</clus>
<clus scale="  233.004">  2  7  1 -1</clus>
<clus scale="  117.670">  2  5  1 -1</clus>
</clustering>
</event>
<event>
10    2  0.3984345E-006  0.1719449E+03  0.7546771E-02  0.1191370E+00
         21   -1    0    0  501  502  0.00000000000E+00  0.00000000000E+00  0.10456404071E+04  0.10456404071E+04  0.00000000000E+00 0. -1.
          1   -1    0    0  503    0 -0.00000000000E+00 -0.00000000000E+00 -0.86078559569E+02  0.86078559569E+02  0.00000000000E+00 0. -1.
         23    2    1    2    0    0  0.62195102713E+02  0.44300705007E+02  0.69092557859E+02  0.13637740751E+03  0.89410471764E+02 0.  0.
         23    2    1    2    0    0  0.21965567108E+02  0.80806265323E+02  0.55486345583E+02  0.13611991313E+03  0.91857267268E+02 0.  0.
        -11    1    4    4    0    0 -0.31609899548E+02  0.39480038897E+02  0.33226111074E+01  0.50684306894E+02  0.00000000000E+00 0.  1.
         11    1    4    4    0    0  0.53575466656E+02  0.41326226426E+02  0.52163734476E+02  0.85435606234E+02  0.00000000000E+00 0. -1.
        -13    1    3    3    0    0  0.45196294636E+02  0.18193608188E+02  0.87530689349E+02  0.10017651424E+03  0.00000000000E+00 0.  1.
         13    1    3    3    0    0  0.16998808077E+02  0.26107096819E+02 -0.18438131489E+02  0.36200893265E+02  0.00000000000E+00 0. -1.
         21    1    1    2  503  502  0.21573196431E+02 -0.68317839522E+01  0.24475145555E+02  0.33333299059E+02  0.00000000000E+00 0.  1.
          1    1    1    2  501    0 -0.10573386625E+03 -0.11827518638E+03  0.81050779848E+03  0.82588834693E+03  0.00000000000E+00 0. -1.
<scales pt_clust_5="13000.00000" pt_clust_6="13000.00000" pt_clust_7="13000.00000" pt_clust_8="13000.00000" pt_clust_9="22.62910" pt_clust_10="145.35229"></scales>
<clustering>
<clus scale="   22.629">  2  9  1 -1</clus>
<clus scale="   89.410">  7  8 -1 -1</clus>
<clus scale="   91.857">  5  6 -1 -1</clus>
<clus scale="  121.525">  2  7  1 -1</clus>
<clus scale="  145.352">  1 10  2 -1</clus>
<clus scale="  145.352">  1  5  2 -1</clus>
</clustering>
</event>
<event>
10    2  0.3984345E-006  0.1361599E+03  0.7546771E-02  0.1218901E+00
          2   -1    0    0  503    0 -0.00000000000E+00  0.00000000000E+00  0.50823508504E+03  0.50823508504E+03  0.00000000000E+00 0. -1.
         21   -1    0    0  501  502  0.00000000000E+00 -0.00000000000E+00 -0.24905799309E+03  0.24905799309E+03  0.00000000000E+00 0. -1.
         23    2    1    2    0    0 -0.11251753535E+02  0.57310922768E+02  0.35490189778E+03  0.37056496952E+03  0.89173402770E+02 0.  0.
         23    2    1    2    0    0 -0.53668713303E+02 -0.10476121225E+03 -0.10337205961E+03  0.18092149540E+03  0.90507250607E+02 0.  0.
        -11    1    3    3    0    0 -0.44586364598E+02  0.29933340822E+02  0.11636466827E+03  0.12815882655E+03  0.00000000000E+00 0.  1.
         11    1    3    3    0    0  0.33334611063E+02  0.27377581946E+02  0.23853722951E+03  0.24240614297E+03  0.00000000000E+00 0. -1.
        -13    1    4    4    0    0 -0.69546390974E+02 -0.53111699074E+02 -0.89421045090E+02  0.12511465294E+03  0.00000000000E+00 0. -1.
         13    1    4    4    0    0  0.15877677670E+02 -0.51649513176E+02 -0.13951014516E+02  0.55806842462E+02  0.00000000000E+00 0.  1.
         21    1    1    2  503  502  0.33535264344E+02  0.46290131401E+02  0.96171352708E+02  0.11187635720E+03  0.00000000000E+00 0. -1.
          2    1    1    2  501    0  0.31385202495E+02  0.11601580812E+01 -0.88524098929E+02  0.93930256007E+02  0.00000000000E+00 0. -1.
<scales pt_clust_5="13000.00000" pt_clust_6="13000.00000" pt_clust_7="13000.00000" pt_clust_8="13000.00000" pt_clust_9="58.13696" pt_clust_10="31.40664"></scales>
<clustering>
<clus scale="   31.407">  2 10  1 -1</clus>
<clus scale="   58.137">  1  9  2 -1</clus>
<clus scale="   89.173">  5  6 -1 -1</clus>
<clus scale="   90.507">  7  8 -1 -1</clus>
<clus scale="  135.277">  1  5  2 -1</clus>
<clus scale="   31.407">  2  5  1 -1</clus>
</clustering>
</event>
<event>
10    2  0.3984345E-006  0.1527634E+03  0.7546771E-02  0.1217902E+00
         21   -1    0    0  501  502  0.00000000000E+00  0.00000000000E+00  0.34149609687E+03  0.34149609687E+03  0.00000000000E+00 0. -1.
          1   -1    0    0  503    0 -0.00000000000E+00 -0.00000000000E+00 -0.27180772514E+03  0.27180772514E+03  0.00000000000E+00 0. -1.
         23    2    1    2    0    0 -0.97670215909E+01  0.32588883340E+02 -0.55750120712E+02  0.11259481918E+03  0.91717431926E+02 0.  0.
         23    2    1    2    0    0  0.82100915551E+02 -0.61912865482E+02  0.21251661368E+03  0.25333306324E+03  0.91872556259E+02 0.  0.
        -13    1    3    3    0    0 -0.39113672107E+01  0.55997360872E+02 -0.65769546770E+02  0.86467545937E+02  0.00000000000E+00 0. -1.
         13    1    3    3    0    0 -0.58556543802E+01 -0.23408477533E+02  0.10019426058E+02  0.26127273244E+02  0.00000000000E+00 0.  1.
        -13    1    4    4    0    0  0.46969554544E+02 -0.93691075136E+01  0.17131366499E+03  0.17788280142E+03  0.00000000000E+00 0. -1.
         13    1    4    4    0    0  0.35131361007E+02 -0.52543757968E+02  0.41202948695E+02  0.75450261821E+02  0.00000000000E+00 0.  1.
         21    1    1    2  503  502 -0.86920639148E+01  0.12021832256E+03 -0.47940597811E+02  0.12971622094E+03  0.00000000000E+00 0. -1.
          1    1    1    2  501    0 -0.63641830045E+02 -0.90894340422E+02 -0.39137523438E+02  0.11765971865E+03  0.00000000000E+00 0. -1.
<scales pt_clust_5="13000.00000" pt_clust_6="13000.00000" pt_clust_7="13000.00000" pt_clust_8="13000.00000" pt_clust_9="122.04960" pt_clust_10="102.75336"></scales>
<clustering>
<clus scale="   91.717">  5  6 -1 -1</clus>
<clus scale="   91.873">  7  8 -1 -1</clus>
<clus scale="   97.824">  2  5  1 -1</clus>
<clus scale="  102.753">  1 10  2 -1</clus>
<clus scale="  122.050">  2  9  1 -1</clus>
<clus scale="  102.753">  1  5  2 -1</clus>
</clustering>
</event>
<event>
10    2  0.3984345E-006  0.1053062E+03  0.7546771E-02  0.1270026E+00
          1   -1    0    0  503    0 -0.00000000000E+00  0.00000000000E+00  0.22954027547E+03  0.22954027547E+03  0.00000000000E+00 0. -1.
         21   -1    0    0  501  502  0.00000000000E+00 -0.00000000000E+00 -0.13289419792E+03  0.13289419792E+03  0.00000000000E+00 0. -1.
         23    2    1    2    0    0 -0.25942035120E+02  0.11504358645E+02  0.51415903550E+02  0.10885279779E+03  0.91651497504E+02 0.  0.
         23    2    1    2    0    0  0.40109602188E+02 -0.53402356719E+02  0.23116651796E+01  0.11247159109E+03  0.90465038090E+02 0.  0.
        -13    1    3    3    0    0  0.15184329312E+02 -0.32151199840E+02  0.24061829965E+02  0.42932914752E+02  0.00000000000E+00 0.  1.
         13    1    3    3    0    0 -0.41126364433E+02  0.43655558484E+02  0.27354073585E+02  0.65919883038E+02  0.00000000000E+00 0. -1.
        -13    1    4    4    0    0  0.20809386156E+02 -0.77443412412E+02  0.96827813279E+01  0.80772946786E+02  0.00000000000E+00 0.  1.
         13    1    4    4    0    0  0.19300216032E+02  0.24041055693E+02 -0.73711161483E+01  0.31698644309E+02  0.00000000000E+00 0. -1.
         21    1    1    2  503  502 -0.25492919300E+02  0.83674562657E+02  0.43781802588E+02  0.97817010833E+02  0.00000000000E+00 0. -1.
          1    1    1    2  501    0  0.11325352233E+02 -0.41776564584E+02 -0.86329377090E+00  0.43293073669E+02  0.00000000000E+00 0. -1.
<scales pt_clust_5="13000.00000" pt_clust_6="13000.00000" pt_clust_7="13000.00000" pt_clust_8="13000.00000" pt_clust_9="76.92459" pt_clust_10="43.28447"></scales>
<clustering>
<clus scale="   43.284">  2 10  1 -1</clus>
<clus scale="   76.925">  1  9  2 -1</clus>
<clus scale="   90.465">  7  8 -1 -1</clus>
<clus scale="   91.651">  5  6 -1 -1</clus>
<clus scale="  104.275">  2  7  1 -1</clus>
<clus scale="   43.284">  2  5  1 -1</clus>
</clustering>
</event>
<event>
10    2  0.3984345E-006  0.1045835E+03  0.7546771E-02  0.1271182E+00
         -2   -1    0    0    0  501 -0.00000000000E+00  0.00000000000E+00  0.32616637760E+03  0.32616637760E+03  0.00000000000E+00 0.  1.
         21   -1    0    0  503  502  0.00000000000E+00 -0.00000000000E+00 -0.22804517577E+03  0.22804517577E+03  0.00000000000E+00 0.  1.
         23    2    1    2    0    0 -0.51619339980E+02 -0.31452532247E+00  0.87963568268E+02  0.13769041904E+03  0.92500848464E+02 0.  0.
         23    2    1    2    0    0 -0.97659915605E+01 -0.14881817068E+02 -0.63212422502E+02  0.11299685625E+03  0.91954532745E+02 0.  0.
        -13    1    3    3    0    0 -0.57505225652E+02 -0.32456699317E+02  0.33175731031E+02  0.73898020524E+02  0.00000000000E+00 0.  1.
         13    1    3    3    0    0  0.58858856724E+01  0.32142173994E+02  0.54787837237E+02  0.63792398515E+02  0.00000000000E+00 0. -1.
        -13    1    4    4    0    0  0.37077594171E+02 -0.25014211143E+02 -0.38800220979E+02  0.59210775173E+02  0.00000000000E+00 0. -1.
         13    1    4    4    0    0 -0.46843585731E+02  0.10132394076E+02 -0.24412201523E+02  0.53786081072E+02  0.00000000000E+00 0.  1.
         21    1    1    2  503  501 -0.23664367676E+02  0.14824061382E+02  0.17144714977E+03  0.17370630460E+03  0.00000000000E+00 0.  1.
         -2    1    1    2    0  502  0.85049699216E+02  0.37228100777E+00 -0.98077093708E+02  0.12981797349E+03  0.00000000000E+00 0.  1.
<scales pt_clust_5="13000.00000" pt_clust_6="13000.00000" pt_clust_7="13000.00000" pt_clust_8="13000.00000" pt_clust_9="27.92410" pt_clust_10="82.62640"></scales>
<clustering>
<clus scale="   27.924">  1  9  2 -1</clus>
<clus scale="   82.626">  2 10  1 -1</clus>
<clus scale="   91.955">  7  8 -1 -1</clus>
<clus scale="   92.501">  5  6 -1 -1</clus>
<clus scale="  104.101">  2  7  1 -1</clus>
<clus scale="   82.626">  2  5  1 -1</clus>
</clustering>
</event>
<event>
10    2  0.3984345E-006  0.1522138E+03  0.7546771E-02  0.1198083E+00
         21   -1    0    0  503  502  0.00000000000E+00  0.00000000000E+00  0.54786877303E+03  0.54786877303E+03  0.00000000000E+00 0.  1.
         -1   -1    0    0    0  501 -0.00000000000E+00 -0.00000000000E+00 -0.17708729265E+03  0.17708729265E+03  0.00000000000E+00 0.  1.
         23    2    1    2    0    0 -0.98774908454E+02 -0.71742769082E+02 -0.56052673321E+02  0.16310408848E+03  0.92506940483E+02 0.  0.
         23    2    1    2    0    0  0.67572602976E+02  0.14312318994E+03  0.21978657660E+03  0.28567331633E+03  0.90844924115E+02 0.  0.
        -11    1    4    4    0    0  0.12777577017E+02  0.38063370676E+02  0.13264702608E+03  0.13859047655E+03  0.00000000000E+00 0. -1.
         11    1    4    4    0    0  0.54795025959E+02  0.10505981927E+03  0.87139550523E+02  0.14708283979E+03  0.00000000000E+00 0.  1.
        -13    1    3    3    0    0 -0.95911985853E+02 -0.91662786666E+02 -0.52441652887E+02  0.14265799118E+03  0.00000000000E+00 0.  1.
         13    1    3    3    0    0 -0.28629226013E+01  0.19920017584E+02 -0.36110204348E+01  0.20446097304E+02  0.00000000000E+00 0. -1.
         21    1    1    2  503  501  0.51163362296E+02 -0.27418943323E+02 -0.54150143481E+01  0.58299317961E+02  0.00000000000E+00 0.  1.
         -1    1    1    2    0  502 -0.19961056817E+02 -0.43961477538E+02  0.21246259146E+03  0.21787934290E+03  0.00000000000E+00 0.  1.
<scales pt_clust_5="13000.00000" pt_clust_6="13000.00000" pt_clust_7="13000.00000" pt_clust_8="13000.00000" pt_clust_9="58.42497" pt_clust_10="48.28100"></scales>
<clustering>
<clus scale="   48.281">  1 10  2 -1</clus>
<clus scale="   58.425">  2  9  1 -1</clus>
<clus scale="   90.845">  5  6 -1 -1</clus>
<clus scale="   92.507">  7  8 -1 -1</clus>
<clus scale="  151.209">  1  5  2 -1</clus>
<clus scale="   48.281">  1  5  2 -1</clus>
</clustering>
</event>
<event>
10    2  0.3984345E-006  0.1713652E+03  0.7546771E-02  0.1178229E+00
         -2   -1    0    0    0  501 -0.00000000000E+00  0.00000000000E+00  0.25474742087E+03  0.25474742087E+03  0.00000000000E+00 0.  1.
         21   -1    0    0  503  502  0.00000000000E+00 -0.00000000000E+00 -0.53316376553E+03  0.53316376553E+03  0.00000000000E+00 0. -1.
         23    2    1    2    0    0  0.59569037607E+02  0.11046876660E+03  0.26815269018E+02  0.15705777475E+03  0.90533238758E+02 0.  0.
         23    2    1    2    0    0 -0.16494951094E+03 -0.10491059041E+03 -0.41503585689E+03  0.47005897162E+03  0.10240166582E+03 0.  0.
        -11    1    3    3    0    0  0.26918768310E+02  0.11145276646E+03  0.40558075700E+02  0.12161947518E+03  0.00000000000E+00 0.  1.
         11    1    3    3    0    0  0.32650269297E+02 -0.98399985303E+00 -0.13742806682E+02  0.35438299570E+02  0.00000000000E+00 0. -1.
        -13    1    4    4    0    0 -0.40561945778E+01 -0.49718299855E+02 -0.79124569161E+02  0.93536407349E+02  0.00000000000E+00 0. -1.
         13    1    4    4    0    0 -0.16089331636E+03 -0.55192290556E+02 -0.33591128773E+03  0.37652256427E+03  0.00000000000E+00 0.  1.
         21    1    1    2  503  501  0.21268566532E+02  0.57401823496E+00  0.58095976835E+02  0.61869410404E+02  0.00000000000E+00 0. -1.
         -2    1    1    2    0  502  0.84111906800E+02 -0.61321944286E+01  0.51708266375E+02  0.98925029621E+02  0.00000000000E+00 0.  1.
<scales pt_clust_5="13000.00000" pt_clust_6="13000.00000" pt_clust_7="13000.00000" pt_clust_8="13000.00000" pt_clust_9="21.27631" pt_clust_10="92.52559"></scales>
<clustering>
<clus scale="   21.276">  1  9  2 -1</clus>
<clus scale="   90.533">  5  6 -1 -1</clus>
<clus scale="   92.526">  2 10  1 -1</clus>
<clus scale="  102.402">  7  8 -1 -1</clus>
<clus scale="  164.548">  1  5  2 -1</clus>
<clus scale="   92.526">  2  5  1 -1</clus>
</clustering>
</event>
<event>
10    2  0.3984345E-006  0.9606217E+02  0.7546771E-02  0.1292080E+00
          1   -1    0    0  503    0 -0.00000000000E+00  0.00000000000E+00  0.56436494493E+03  0.56436494493E+03  0.00000000000E+00 0. -1.
         21   -1    0    0  501  502  0.00000000000E+00 -0.00000000000E+00 -0.60517328878E+02  0.60517328878E+02  0.00000000000E+00 0.  1.
         23    2    1    2    0    0 -0.18337673913E+02  0.13024409148E+02  0.16260237986E+03  0.19001337803E+03  0.95706031045E+02 0.  0.
         23    2    1    2    0    0 -0.21295712995E+02 -0.11438728626E+01  0.13092631433E+03  0.16028231590E+03  0.89966133467E+02 0.  0.
        -13    1    4    4    0    0 -0.53733025325E+00 -0.34900002724E+02  0.15404002214E+02  0.38152092972E+02  0.00000000000E+00 0. -1.
         13    1    4    4    0    0 -0.20758382741E+02  0.33756129861E+02  0.11552231211E+03  0.12213022293E+03  0.00000000000E+00 0.  1.
        -13    1    3    3    0    0 -0.63806515767E+01  0.52141941091E+02  0.61090130007E+02  0.80569837530E+02  0.00000000000E+00 0.  1.
         13    1    3    3    0    0 -0.11957022337E+02 -0.39117531943E+02  0.10151224985E+03  0.10944354050E+03  0.00000000000E+00 0. -1.
         21    1    1    2  503  502 -0.42959457495E+02  0.27819353653E+02  0.16421098823E+03  0.17200197697E+03  0.00000000000E+00 0. -1.
          1    1    1    2  501    0  0.82592844403E+02 -0.39699889938E+02  0.46107933633E+02  0.10258460290E+03  0.00000000000E+00 0. -1.
<scales pt_clust_5="13000.00000" pt_clust_6="13000.00000" pt_clust_7="13000.00000" pt_clust_8="13000.00000" pt_clust_9="51.18038" pt_clust_10="82.12205"></scales>
<clustering>
<clus scale="   51.180">  1  9  2 -1</clus>
<clus scale="   82.122">  2 10  1 -1</clus>
<clus scale="   89.966">  5  6 -1 -1</clus>
<clus scale="   90.345">  2  5  1 -1</clus>
<clus scale="   95.706">  7  8 -1 -1</clus>
<clus scale="   82.122">  2  5  1 -1</clus>
</clustering>
</event>
<event>
10    2  0.3984345E-006  0.1053431E+03  0.7546771E-02  0.1270716E+00
          2   -1    0    0  503    0 -0.00000000000E+00  0.00000000000E+00  0.26599966002E+03  0.26599966002E+03  0.00000000000E+00 0. -1.
         21   -1    0    0  501  502  0.00000000000E+00 -0.00000000000E+00 -0.21876411230E+03  0.21876411230E+03  0.00000000000E+00 0. -1.
         23    2    1    2    0    0  0.58016663304E+02  0.21962885744E+01  0.11333865201E+03  0.15514496860E+03  0.88620281754E+02 0.  0.
         23    2    1    2    0    0  0.23158331914E+02 -0.36339633368E+02 -0.46455014970E+02  0.11135872684E+03  0.91574124822E+02 0.  0.
        -11    1    3    3    0    0  0.44073786273E+01  0.34312917902E+02  0.13041091205E+02  0.36971223690E+02  0.00000000000E+00 0.  1.
         11    1    3    3    0    0  0.53609284677E+02 -0.32116629327E+02  0.10029756080E+03  0.11817374491E+03  0.00000000000E+00 0. -1.
        -11    1    4    4    0    0  0.25933044266E+00  0.20628678277E+02 -0.45493753176E+02  0.49952889784E+02  0.00000000000E+00 0.  1.
         11    1    4    4    0    0  0.22899001471E+02 -0.56968311645E+02 -0.96126179329E+00  0.61405837054E+02  0.00000000000E+00 0. -1.
         21    1    1    2  503  502  0.14365774739E+02  0.39481526255E+02  0.73537581210E+02  0.84693224342E+02  0.00000000000E+00 0. -1.
          2    1    1    2  501    0 -0.95540769957E+02 -0.53381814615E+01 -0.93185670535E+02  0.13356685254E+03  0.00000000000E+00 0. -1.
<scales pt_clust_5="13000.00000" pt_clust_6="13000.00000" pt_clust_7="13000.00000" pt_clust_8="13000.00000" pt_clust_9="42.01388" pt_clust_10="93.99484"></scales>
<clustering>
<clus scale="   42.014">  1  9  2 -1</clus>
<clus scale="   88.620">  5  6 -1 -1</clus>
<clus scale="   91.574">  7  8 -1 -1</clus>
<clus scale="   93.995">  2 10  1 -1</clus>
<clus scale="  102.786">  1  5  2 -1</clus>
<clus scale="   93.995">  2  5  1 -1</clus>
</clustering>
</event>
<event>
10    2  0.3984345E-006  0.9765741E+02  0.7546771E-02  0.1285933E+00
         21   -1    0    0  503  502  0.00000000000E+00  0.00000000000E+00  0.13881023442E+03  0.13881023442E+03  0.00000000000E+00 0. -1.
         -1   -1    0    0    0  501 -0.00000000000E+00 -0.00000000000E+00 -0.14816728356E+03  0.14816728356E+03  0.00000000000E+00 0.  1.
         23    2    1    2    0    0  0.35457292566E+02  0.24423697996E+02 -0.52225774512E+02  0.11314520597E+03  0.90667356255E+02 0.  0.
         23    2    1    2    0    0 -0.33151984204E+01 -0.23591457772E+02  0.78861697803E+01  0.95262862257E+02  0.91898170990E+02 0.  0.
        -11    1    3    3    0    0 -0.18610469972E+02  0.10498991271E+02  0.14739479075E+02  0.25958248279E+02  0.00000000000E+00 0. -1.
         11    1    3    3    0    0  0.54067762539E+02  0.13924706725E+02 -0.66965253586E+02  0.87186957690E+02  0.00000000000E+00 0.  1.
        -13    1    4    4    0    0  0.32302231539E+02 -0.10725033632E+02 -0.27252076822E+02  0.43602020594E+02  0.00000000000E+00 0.  1.
         13    1    4    4    0    0 -0.35617429959E+02 -0.12866424140E+02  0.35138246603E+02  0.51660841663E+02  0.00000000000E+00 0. -1.
         21    1    1    2  503  501 -0.16679841429E+02  0.12138338231E+02 -0.14442795622E+02  0.25182349185E+02  0.00000000000E+00 0.  1.
         -1    1    1    2    0  502 -0.15462252717E+02 -0.12970578456E+02  0.49425351217E+02  0.53387100573E+02  0.00000000000E+00 0.  1.
<scales pt_clust_5="13000.00000" pt_clust_6="13000.00000" pt_clust_7="13000.00000" pt_clust_8="13000.00000" pt_clust_9="20.96278" pt_clust_10="20.18210"></scales>
<clustering>
<clus scale="   20.182">  1 10  2 -1</clus>
<clus scale="   20.963">  2  9  1 -1</clus>
<clus scale="   90.667">  5  6 -1 -1</clus>
<clus scale="   91.898">  7  8 -1 -1</clus>
<clus scale="   96.500">  2  5  1 -1</clus>
<clus scale="   20.182">  1  5  2 -1</clus>
</clustering>
</event>
<event>
10    2  0.3984345E-006  0.1579117E+03  0.7546771E-02  0.1208908E+00
          2   -1    0    0  503    0 -0.00000000000E+00  0.00000000000E+00  0.69561796179E+03  0.69561796179E+03  0.00000000000E+00 0. -1.
         21   -1    0    0  501  502  0.00000000000E+00 -0.00000000000E+00 -0.18846835852E+03  0.18846835852E+03  0.00000000000E+00 0. -1.
         23    2    1    2    0    0 -0.28488021126E+02 -0.52065240026E+02  0.46688188500E+01  0.10737667013E+03  0.89362155589E+02 0.  0.
         23    2    1    2    0    0 -0.57099061631E+02  0.50916652838E+02  0.42311685797E+03  0.43894397984E+03  0.88267398117E+02 0.  0.
        -11    1    4    4    0    0  0.12111762182E+02  0.26383543215E+02  0.43547682342E+02  0.52337240786E+02  0.00000000000E+00 0.  1.
         11    1    4    4    0    0 -0.69210823813E+02  0.24533109622E+02  0.37956917562E+03  0.38660673906E+03  0.00000000000E+00 0. -1.
        -13    1    3    3    0    0 -0.43906689596E+02 -0.37935099897E+02 -0.31181267426E+02  0.65872153705E+02  0.00000000000E+00 0.  1.
         13    1    3    3    0    0  0.15418668470E+02 -0.14130140129E+02  0.35850086276E+02  0.41504516422E+02  0.00000000000E+00 0. -1.
         21    1    1    2  503  502 -0.47612486547E+02  0.30827610267E+02  0.16647087344E+03  0.17586882081E+03  0.00000000000E+00 0. -1.
          2    1    1    2  501    0  0.13319956930E+03 -0.29679023079E+02 -0.87106946983E+02  0.16189684953E+03  0.00000000000E+00 0. -1.
<scales pt_clust_5="13000.00000" pt_clust_6="13000.00000" pt_clust_7="13000.00000" pt_clust_8="13000.00000" pt_clust_9="56.72116" pt_clust_10="130.93878"></scales>
<clustering>
<clus scale="   56.721">  1  9  2 -1</clus>
<clus scale="   88.267">  5  6 -1 -1</clus>
<clus scale="   89.362">  7  8 -1 -1</clus>
<clus scale="  107.199">  1  7  2 -1</clus>
<clus scale="  130.939">  2 10  1 -1</clus>
<clus scale="  130.939">  2  5  1 -1</clus>
</clustering>
</event>
<event>
10    2  0.3984345E-006  0.3115522E+03  0.7546771E-02  0.1079622E+00
          1   -1    0    0  503    0 -0.00000000000E+00  0.00000000000E+00  0.10957817558E+04  0.10957817558E+04  0.00000000000E+00 0. -1.
         21   -1    0    0  501  502  0.00000000000E+00 -0.00000000000E+00 -0.13781118982E+03  0.13781118982E+03  0.00000000000E+00 0.  1.
         23    2    1    2    0    0  0.22894254319E+03  0.22304169826E+03  0.55497846251E+03  0.64688940435E+03  0.91118166995E+02 0.  0.
         23    2    1    2    0    0 -0.22004362014E+03 -0.18265959632E+03  0.31336498472E+03  0.43381110786E+03  0.90613137900E+02 0.  0.
        -13    1    3    3    0    0  0.16527138150E+03  0.16915431614E+03  0.32263544944E+03  0.40002680591E+03  0.00000000000E+00 0.  1.
         13    1    3    3    0    0  0.63671161688E+02  0.53887382125E+02  0.23234301307E+03  0.24686259844E+03  0.00000000000E+00 0. -1.
        -13    1    4    4    0    0 -0.16519688367E+03 -0.98416014407E+02  0.24836181184E+03  0.31410079887E+03  0.00000000000E+00 0.  1.
         13    1    4    4    0    0 -0.54846736470E+02 -0.84243581913E+02  0.65003172876E+02  0.11971030899E+03  0.00000000000E+00 0. -1.
         21    1    1    2  503  502  0.85530511660E+01 -0.66265183429E+02  0.99763651358E+02  0.12007087637E+03  0.00000000000E+00 0.  1.
          1    1    1    2  501    0 -0.17451974211E+02  0.25883081487E+02 -0.10136532646E+02  0.32821557020E+02  0.00000000000E+00 0. -1.
<scales pt_clust_5="13000.00000" pt_clust_6="13000.00000" pt_clust_7="13000.00000" pt_clust_8="13000.00000" pt_clust_9="64.39096" pt_clust_10="31.21707"></scales>
<clustering>
<clus scale="   31.217">  2 10  1 -1</clus>
<clus scale="   64.391">  1  9  2 -1</clus>
<clus scale="   90.613">  7  8 -1 -1</clus>
<clus scale="   91.118">  5  6 -1 -1</clus>
<clus scale="  311.405">  2  7  1 -1</clus>
<clus scale="   31.217">  2  5  1 -1</clus>
</clustering>
</event>
<event>
10    2  0.3984345E-006  0.1476320E+03  0.7546771E-02  0.1203681E+00
          4   -1    0    0  503    0 -0.00000000000E+00  0.00000000000E+00  0.16831981224E+03  0.16831981224E+03  0.00000000000E+00 0. -1.
         21   -1    0    0  501  502  0.00000000000E+00 -0.00000000000E+00 -0.56728001995E+03  0.56728001995E+03  0.00000000000E+00 0. -1.
         23    2    1    2    0    0 -0.34047194087E+02 -0.10107343134E+03 -0.10598023725E+03  0.17652322981E+03  0.92485620654E+02 0.  0.
         23    2    1    2    0    0  0.12324844796E+03  0.84822457311E+02 -0.13232250734E+03  0.21953959414E+03  0.91122764768E+02 0.  0.
        -11    1    3    3    0    0  0.12595659791E+02 -0.56468466049E+02 -0.94746804992E+02  0.11101484297E+03  0.00000000000E+00 0. -1.
         11    1    3    3    0    0 -0.46642853878E+02 -0.44604965289E+02 -0.11233432259E+02  0.65508386842E+02  0.00000000000E+00 0.  1.
        -13    1    4    4    0    0  0.76670681598E+02  0.98593473516E+02 -0.80918189919E+02  0.14881807651E+03  0.00000000000E+00 0.  1.
         13    1    4    4    0    0  0.46577766361E+02 -0.13771016205E+02 -0.51404317424E+02  0.70721517633E+02  0.00000000000E+00 0. -1.
         21    1    1    2  503  502  0.33867391819E+02  0.17691252751E+02  0.69060198069E+02  0.78925861477E+02  0.00000000000E+00 0. -1.
          4    1    1    2  501    0 -0.12306864569E+03 -0.14402787239E+01 -0.22971766119E+03  0.26061114676E+03  0.00000000000E+00 0. -1.
<scales pt_clust_5="13000.00000" pt_clust_6="13000.00000" pt_clust_7="13000.00000" pt_clust_8="13000.00000" pt_clust_9="38.20969" pt_clust_10="117.53163"></scales>
<clustering>
<clus scale="   38.210">  1  9  2 -1</clus>
<clus scale="   91.123">  7  8 -1 -1</clus>
<clus scale="   92.486">  5  6 -1 -1</clus>
<clus scale="  117.532">  2 10  1 -1</clus>
<clus scale="  146.782">  2  7  1 -1</clus>
<clus scale="  117.532">  2  5  1 -1</clus>
</clustering>
</event>
<event>
10    2  0.3984345E-006  0.4013194E+03  0.7546771E-02  0.1086955E+00
          1   -1    0    0  503    0 -0.00000000000E+00  0.00000000000E+00  0.78794116553E+03  0.78794116553E+03  0.00000000000E+00 0. -1.
         21   -1    0    0  501  502  0.00000000000E+00 -0.00000000000E+00 -0.51643562554E+03  0.51643562554E+03  0.00000000000E+00 0. -1.
         23    2    1    2    0    0 -0.60889988063E+02  0.15298080024E+02  0.32523821001E+03  0.34342944513E+03  0.90676725965E+02 0.  0.
         23    2    1    2    0    0  0.15405547369E+03 -0.35951362384E+03  0.83955911345E+02  0.41043371419E+03  0.91782917764E+02 0.  0.
        -11    1    3    3    0    0 -0.25912369205E+02 -0.37910858936E+02  0.15558171719E+03  0.16221699919E+03  0.00000000000E+00 0.  1.
         11    1    3    3    0    0 -0.34977618858E+02  0.53208938960E+02  0.16965649283E+03  0.18121244594E+03  0.00000000000E+00 0. -1.
        -13    1    4    4    0    0  0.54526765912E+02 -0.15797256975E+03 -0.86166972944E+01  0.16734021772E+03  0.00000000000E+00 0.  1.
         13    1    4    4    0    0  0.99528707780E+02 -0.20154105409E+03  0.92572608639E+02  0.24309349647E+03  0.00000000000E+00 0. -1.
         21    1    1    2  503  502 -0.35464641985E+02 -0.46188813860E+02  0.80665262316E+02  0.99488853152E+02  0.00000000000E+00 0. -1.
          1    1    1    2  501    0 -0.57700843644E+02  0.39040435768E+03 -0.21835384368E+03  0.45102477859E+03  0.00000000000E+00 0. -1.
<scales pt_clust_5="13000.00000" pt_clust_6="13000.00000" pt_clust_7="13000.00000" pt_clust_8="13000.00000" pt_clust_9="58.23356" pt_clust_10="390.68297"></scales>
<clustering>
<clus scale="   58.234">  1  9  2 -1</clus>
<clus scale="   90.677">  5  6 -1 -1</clus>
<clus scale="   91.783">  7  8 -1 -1</clus>
<clus scale="  119.726">  1  5  2 -1</clus>
<clus scale="  390.683">  2 10  1 -1</clus>
<clus scale="  390.683">  2  5  1 -1</clus>
</clustering>
</event>
<event>
10    2  0.3984345E-006  0.9712444E+02  0.7546771E-02  0.1287101E+00
         -2   -1    0    0    0  501 -0.00000000000E+00  0.00000000000E+00  0.34158844597E+03  0.34158844597E+03  0.00000000000E+00 0.  1.
         21   -1    0    0  503  502  0.00000000000E+00 -0.00000000000E+00 -0.61444007856E+02  0.61444007856E+02  0.00000000000E+00 0. -1.
         23    2    1    2    0    0  0.30138639968E+02  0.41249615803E+01  0.17251075290E+03  0.19695994157E+03  0.90043910338E+02 0.  0.
         23    2    1    2    0    0 -0.12966215129E+02  0.62389627334E+00  0.24707250323E+02  0.95453110561E+02  0.91281630770E+02 0.  0.
        -11    1    3    3    0    0  0.45130904365E+02 -0.26029635420E+02  0.14295780255E+03  0.15215542632E+03  0.00000000000E+00 0.  1.
         11    1    3    3    0    0 -0.14992264397E+02  0.30154597000E+02  0.29552950346E+02  0.44804515243E+02  0.00000000000E+00 0. -1.
        -13    1    4    4    0    0 -0.20361927978E+02  0.21408830395E+02  0.52334191075E+02  0.60098366745E+02  0.00000000000E+00 0.  1.
         13    1    4    4    0    0  0.73957128484E+01 -0.20784934122E+02 -0.27626940753E+02  0.35354743817E+02  0.00000000000E+00 0. -1.
         21    1    1    2  503  501  0.20958109150E+02 -0.18339400973E+02  0.54347673022E+02  0.61067548912E+02  0.00000000000E+00 0.  1.
         -2    1    1    2    0  502 -0.38130533989E+02  0.13590543119E+02  0.28578761872E+02  0.49551852788E+02  0.00000000000E+00 0.  1.
<scales pt_clust_5="13000.00000" pt_clust_6="13000.00000" pt_clust_7="13000.00000" pt_clust_8="13000.00000" pt_clust_9="27.84916" pt_clust_10="36.94303"></scales>
<clustering>
<clus scale="   27.849">  1  9  2 -1</clus>
<clus scale="   36.943">  2 10  1 -1</clus>
<clus scale="   90.044">  5  6 -1 -1</clus>
<clus scale="   91.282">  7  8 -1 -1</clus>
<clus scale="   95.962">  1  5  2 -1</clus>
<clus scale="   36.943">  2  5  1 -1</clus>
</clustering>
</event>
<event>
10    2  0.3984345E-006  0.1149337E+03  0.7546771E-02  0.1253764E+00
         21   -1    0    0  503  502  0.00000000000E+00  0.00000000000E+00  0.12132714557E+03  0.12132714557E+03  0.00000000000E+00 0.  1.
         -3   -1    0    0    0  501 -0.00000000000E+00 -0.00000000000E+00 -0.52288713397E+03  0.52288713397E+03  0.00000000000E+00 0.  1.
         23    2    1    2    0    0  0.37904262183E+01  0.41836432255E+01 -0.17529843847E+03  0.19993045205E+03  0.95972771790E+02 0.  0.
         23    2    1    2    0    0 -0.28867832297E+02 -0.93535273095E+02 -0.11939513431E+02  0.13376318451E+03  0.90376094710E+02 0.  0.
        -11    1    4    4    0    0 -0.21573379963E+01 -0.10395619188E+03 -0.41898312815E+01  0.10406295509E+03  0.00000000000E+00 0.  1.
         11    1    4    4    0    0 -0.26710494301E+02  0.10420918781E+02 -0.77496821498E+01  0.29700229418E+02  0.00000000000E+00 0. -1.
        -13    1    3    3    0    0  0.35899111879E+02  0.35934608175E+02 -0.99021079882E+02  0.11128888785E+03  0.00000000000E+00 0. -1.
         13    1    3    3    0    0 -0.32108685661E+02 -0.31750964949E+02 -0.76277358589E+02  0.88641564197E+02  0.00000000000E+00 0.  1.
         21    1    1    2  503  501  0.63195153802E+02  0.51699718580E+02 -0.23824247701E+03  0.25184512347E+03  0.00000000000E+00 0.  1.
         -3    1    1    2    0  502 -0.38117747723E+02  0.37651911289E+02  0.23920440513E+02  0.58675519508E+02  0.00000000000E+00 0.  1.
<scales pt_clust_5="13000.00000" pt_clust_6="13000.00000" pt_clust_7="13000.00000" pt_clust_8="13000.00000" pt_clust_9="81.29360" pt_clust_10="53.57825"></scales>
<clustering>
<clus scale="   53.578">  1 10  2 -1</clus>
<clus scale="   81.294">  2  9  1 -1</clus>
<clus scale="   90.376">  5  6 -1 -1</clus>
<clus scale="   95.973">  7  8 -1 -1</clus>
<clus scale="  110.303">  1  5  2 -1</clus>
<clus scale="   53.578">  1  5  2 -1</clus>
</clustering>
</event>
<event>
10    2  0.3984345E-006  0.1119509E+03  0.7546771E-02  0.1257428E+00
         -3   -1    0    0    0  501 -0.00000000000E+00  0.00000000000E+00  0.34606196737E+03  0.34606196737E+03  0.00000000000E+00 0.  1.
         21   -1    0    0  503  502  0.00000000000E+00 -0.00000000000E+00 -0.13572445184E+03  0.13572445184E+03  0.00000000000E+00 0.  1.
         23    2    1    2    0    0  0.62883158459E+02 -0.64419684000E+00  0.12513507759E+03  0.16575620338E+03  0.88665803491E+02 0.  0.
         23    2    1    2    0    0 -0.66303954259E+02  0.22425512458E+02  0.94300776421E+02  0.14786422383E+03  0.89844723246E+02 0.  0.
        -13    1    4    4    0    0 -0.68346861348E+02  0.49813415449E+02  0.81902347035E+02  0.11773132236E+03  0.00000000000E+00 0. -1.
         13    1    4    4    0    0  0.20429070883E+01 -0.27387902991E+02  0.12398429386E+02  0.30132901468E+02  0.00000000000E+00 0.  1.
        -13    1    3    3    0    0  0.13453862654E+02  0.24157895042E+02  0.10221976861E+03  0.10589377417E+03  0.00000000000E+00 0.  1.
         13    1    3    3    0    0  0.49429295806E+02 -0.24802091882E+02  0.22915308982E+02  0.59862429213E+02  0.00000000000E+00 0. -1.
         21    1    1    2  503  501  0.17568854910E+02 -0.49744321467E+02  0.67345007674E+02  0.85548303546E+02  0.00000000000E+00 0. -1.
         -3    1    1    2    0  502 -0.14148059109E+02  0.27963005850E+02 -0.76443346164E+02  0.82617688454E+02  0.00000000000E+00 0.  1.
<scales pt_clust_5="13000.00000" pt_clust_6="13000.00000" pt_clust_7="13000.00000" pt_clust_8="13000.00000" pt_clust_9="47.72641" pt_clust_10="31.33843"></scales>
<clustering>
<clus scale="   31.338">  2 10  1 -1</clus>
<clus scale="   47.726">  1  9  2 -1</clus>
<clus scale="   88.666">  7  8 -1 -1</clus>
<clus scale="   89.845">  5  6 -1 -1</clus>
<clus scale="  111.007">  1  7  2 -1</clus>
<clus scale="   31.338">  2  5  1 -1</clus>
</clustering>
</event>
<event>
10    2  0.3984345E-006  0.9186392E+02  0.7546771E-02  0.1300222E+00
          1   -1    0    0  503    0 -0.00000000000E+00  0.00000000000E+00  0.28666586769E+03  0.28666586769E+03  0.00000000000E+00 0. -1.
         21   -1    0    0  501  502  0.00000000000E+00 -0.00000000000E+00 -0.71383331858E+02  0.71383331858E+02  0.00000000000E+00 0.  1.
         23    2    1    2    0    0  0.50413068670E+00 -0.47393839132E+01  0.10076740458E+03  0.13356833908E+03  0.87542649444E+02 0.  0.
         23    2    1    2    0    0  0.31413247889E+02  0.16398811946E+02  0.21730203607E+02  0.99702915993E+02  0.90624260177E+02 0.  0.
        -13    1    4    4    0    0  0.28057965153E+01  0.51051912745E+02  0.36265146362E+01  0.51257408220E+02  0.00000000000E+00 0.  1.
         13    1    4    4    0    0  0.28607451374E+02 -0.34653100799E+02  0.18103688970E+02  0.48445507773E+02  0.00000000000E+00 0. -1.
        -13    1    3    3    0    0 -0.41504377945E+02  0.89903704125E+01  0.39295380552E+02  0.57858163481E+02  0.00000000000E+00 0.  1.
         13    1    3    3    0    0  0.42008508632E+02 -0.13729754326E+02  0.61472024032E+02  0.75710175603E+02  0.00000000000E+00 0. -1.
         21    1    1    2  503  502 -0.17181747089E+02  0.19863890496E+02  0.85209821177E+02  0.89165577460E+02  0.00000000000E+00 0.  1.
          1    1    1    2  501    0 -0.14735631487E+02 -0.31523318529E+02  0.75751064694E+01  0.35612367015E+02  0.00000000000E+00 0. -1.
<scales pt_clust_5="13000.00000" pt_clust_6="13000.00000" pt_clust_7="13000.00000" pt_clust_8="13000.00000" pt_clust_9="26.26379" pt_clust_10="33.73704"></scales>
<clustering>
<clus scale="   26.264">  1  9  2 -1</clus>
<clus scale="   33.737">  2 10  1 -1</clus>
<clus scale="   87.543">  7  8 -1 -1</clus>
<clus scale="   88.825">  1  7  2 -1</clus>
<clus scale="   90.624">  5  6 -1 -1</clus>
<clus scale="   33.737">  2  5  1 -1</clus>
</clustering>
</event>
<event>
10    2  0.3984345E-006  0.2054149E+03  0.7546771E-02  0.1145332E+00
         21   -1    0    0  503  502  0.00000000000E+00  0.00000000000E+00  0.84638365676E+03  0.84638365676E+03  0.00000000000E+00 0.  1.
         -3   -1    0    0    0  501 -0.00000000000E+00 -0.00000000000E+00 -0.24557247847E+03  0.24557247847E+03  0.00000000000E+00 0.  1.
         23    2    1    2    0    0  0.10961305178E+03  0.16274302410E+03  0.22827656881E+03  0.31475480250E+03  0.91978697623E+02 0.  0.
         23    2    1    2    0    0 -0.16006861179E+03 -0.82002950073E+02  0.29544702181E+03  0.35813598481E+03  0.92876243570E+02 0.  0.
        -11    1    4    4    0    0 -0.48247810048E+02 -0.46952753640E+02  0.43183616830E+02  0.79982729457E+02  0.00000000000E+00 0.  1.
         11    1    4    4    0    0 -0.11182080174E+03 -0.35050196433E+02  0.25226340498E+03  0.27815325536E+03  0.00000000000E+00 0. -1.
        -13    1    3    3    0    0  0.58986893757E+02  0.22154607608E+02  0.41018919580E+02  0.75185317961E+02  0.00000000000E+00 0. -1.
         13    1    3    3    0    0  0.50626158020E+02  0.14058841649E+03  0.18725764923E+03  0.23956948454E+03  0.00000000000E+00 0.  1.
         21    1    1    2  503  501 -0.27805621022E+02  0.36108041954E+02 -0.14733290550E+03  0.15422038872E+03  0.00000000000E+00 0.  1.
         -3    1    1    2    0  502  0.78261181032E+02 -0.11684811598E+03  0.22442049315E+03  0.26484495920E+03  0.00000000000E+00 0.  1.
<scales pt_clust_5="13000.00000" pt_clust_6="13000.00000" pt_clust_7="13000.00000" pt_clust_8="13000.00000" pt_clust_9="45.57349" pt_clust_10="130.94098"></scales>
<clustering>
<clus scale="   45.573">  2  9  1 -1</clus>
<clus scale="   91.979">  7  8 -1 -1</clus>
<clus scale="   92.876">  5  6 -1 -1</clus>
<clus scale="  130.941">  1 10  2 -1</clus>
<clus scale="  205.011">  2  7  1 -1</clus>
<clus scale="  130.941">  1  5  2 -1</clus>
</clustering>
</event>
<event>
10    2  0.3984345E-006  0.1639642E+03  0.7546771E-02  0.1184428E+00
         -1   -1    0    0    0  501 -0.00000000000E+00  0.00000000000E+00  0.33123061523E+03  0.33123061523E+03  0.00000000000E+00 0.  1.
         21   -1    0    0  503  502  0.00000000000E+00 -0.00000000000E+00 -0.19179810167E+03  0.19179810167E+03  0.00000000000E+00 0. -1.
         23    2    1    2    0    0 -0.16494431859E+03 -0.60031561203E+02  0.36854866702E+02  0.20136576453E+03  0.91539463341E+02 0.  0.
         23    2    1    2    0    0  0.72608665260E+02  0.83389643116E+02 -0.41508953277E+01  0.14416638083E+03  0.92416798141E+02 0.  0.
        -11    1    4    4    0    0  0.83467845514E+02  0.56242118795E+02 -0.30121725942E+02  0.10505891459E+03  0.00000000000E+00 0.  1.
         11    1    4    4    0    0 -0.10859180253E+02  0.27147524321E+02  0.25970830615E+02  0.39107466235E+02  0.00000000000E+00 0. -1.
        -13    1    3    3    0    0 -0.51909860051E+02  0.20415556729E+02  0.27820020570E+02  0.62332833014E+02  0.00000000000E+00 0.  1.
         13    1    3    3    0    0 -0.11303445854E+03 -0.80447117932E+02  0.90348461317E+01  0.13903293151E+03  0.00000000000E+00 0. -1.
         21    1    1    2  503  501  0.66790965200E+02 -0.34217423785E+02  0.12390147895E+03  0.14485662432E+03  0.00000000000E+00 0.  1.
         -1    1    1    2    0  502  0.25544688131E+02  0.10859341872E+02 -0.17172936768E+02  0.32639947225E+02  0.00000000000E+00 0.  1.
<scales pt_clust_5="13000.00000" pt_clust_6="13000.00000" pt_clust_7="13000.00000" pt_clust_8="13000.00000" pt_clust_9="76.17397" pt_clust_10="27.75710"></scales>
<clustering>
<clus scale="   27.757">  2 10  1 -1</clus>
<clus scale="   76.174">  1  9  2 -1</clus>
<clus scale="   91.539">  7  8 -1 -1</clus>
<clus scale="   92.417">  5  6 -1 -1</clus>
<clus scale="  163.471">  1  7  2 -1</clus>
<clus scale="   27.757">  2  5  1 -1</clus>
</clustering>
</event>
<event>
10    2  0.3984345E-006  0.1149157E+03  0.7546771E-02  0.1252476E+00
          1   -1    0    0  503    0 -0.00000000000E+00  0.00000000000E+00  0.24268265427E+03  0.24268265427E+03  0.00000000000E+00 0. -1.
         21   -1    0    0  501  502  0.00000000000E+00 -0.00000000000E+00 -0.12418230228E+03  0.12418230228E+03  0.00000000000E+00 0.  1.
         23    2    1    2    0    0  0.41885155400E+02 -0.60981331565E+02  0.12927494215E+03  0.17513125184E+03  0.92118704194E+02 0.  0.
         23    2    1    2    0    0 -0.10157557290E+02  0.34725453571E+02 -0.52875835165E+02  0.11046886587E+03  0.89991573421E+02 0.  0.
        -13    1    3    3    0    0 -0.26266915418E+02 -0.17122288555E+02  0.14296950104E+02  0.34460504830E+02  0.00000000000E+00 0.  1.
         13    1    3    3    0    0  0.68152070818E+02 -0.43859043010E+02  0.11497799204E+03  0.14067074701E+03  0.00000000000E+00 0. -1.
        -13    1    4    4    0    0  0.42900480920E+01 -0.28690044898E+02 -0.29451079053E+02  0.41338713650E+02  0.00000000000E+00 0. -1.
         13    1    4    4    0    0 -0.14447605382E+02  0.63415498468E+02 -0.23424756111E+02  0.69130152221E+02  0.00000000000E+00 0.  1.
         21    1    1    2  503  502 -0.11706589478E+02 -0.17286364322E+02  0.18266805068E+02  0.27740562288E+02  0.00000000000E+00 0.  1.
          1    1    1    2  501    0 -0.20021008632E+02  0.43542242316E+02  0.23834439943E+02  0.53524276548E+02  0.00000000000E+00 0. -1.
<scales pt_clust_5="13000.00000" pt_clust_6="13000.00000" pt_clust_7="13000.00000" pt_clust_8="13000.00000" pt_clust_9="20.87732" pt_clust_10="46.12768"></scales>
<clustering>
<clus scale="   20.877">  1  9  2 -1</clus>
<clus scale="   46.128">  2 10  1 -1</clus>
<clus scale="   89.992">  7  8 -1 -1</clus>
<clus scale="   92.119">  5  6 -1 -1</clus>
<clus scale="  113.218">  2  7  1 -1</clus>
<clus scale="   46.128">  2  5  1 -1</clus>
</clustering>
</event>
<event>
10    2  0.3984345E-006  0.1427928E+03  0.7546771E-02  0.1209822E+00
          1   -1    0    0  503    0 -0.00000000000E+00  0.00000000000E+00  0.70195287283E+03  0.70195287283E+03  0.00000000000E+00 0. -1.
         21   -1    0    0  501  502  0.00000000000E+00 -0.00000000000E+00 -0.78290310290E+02  0.78290310290E+02  0.00000000000E+00 0.  1.
         23    2    1    2    0    0 -0.70994003622E+02 -0.37258704877E+02  0.22007811603E+03  0.25200060911E+03  0.92960046241E+02 0.  0.
         23    2    1    2    0    0  0.13487086553E+03  0.41025164228E+02  0.32074228185E+03  0.36271987907E+03  0.93898268545E+02 0.  0.
        -11    1    3    3    0    0 -0.30394869255E+02 -0.32968655535E+02  0.20275109839E+03  0.20765063983E+03  0.00000000000E+00 0. -1.
         11    1    3    3    0    0 -0.40599134367E+02 -0.42900493420E+01  0.17327017644E+02  0.44349969280E+02  0.00000000000E+00 0.  1.
        -13    1    4    4    0    0  0.11775206785E+03  0.25703153874E+02  0.31738853160E+03  0.33950210838E+03  0.00000000000E+00 0.  1.
         13    1    4    4    0    0  0.17118797674E+02  0.15322010354E+02  0.33537502548E+01  0.23217770692E+02  0.00000000000E+00 0. -1.
         21    1    1    2  503  502 -0.14038744627E+02 -0.16222264637E+02  0.10673318005E+03  0.10886790135E+03  0.00000000000E+00 0. -1.
          1    1    1    2  501    0 -0.49838117278E+02  0.12455805287E+02 -0.23891015400E+02  0.56654793584E+02  0.00000000000E+00 0. -1.
<scales pt_clust_5="13000.00000" pt_clust_6="13000.00000" pt_clust_7="13000.00000" pt_clust_8="13000.00000" pt_clust_9="21.45340" pt_clust_10="51.64082"></scales>
<clustering>
<clus scale="   21.453">  1  9  2 -1</clus>
<clus scale="   51.641">  2 10  1 -1</clus>
<clus scale="   92.960">  5  6 -1 -1</clus>
<clus scale="   93.898">  7  8 -1 -1</clus>
<clus scale="  142.178">  1  5  2 -1</clus>
<clus scale="   51.641">  2  5  1 -1</clus>
</clustering>
</event>
<event>
10    2  0.5244579E-006  0.1040573E+03  0.7546771E-02  0.1274208E+00
          2   -1    0    0  503    0 -0.00000000000E+00  0.00000000000E+00  0.56493105428E+03  0.56493105428E+03  0.00000000000E+00 0. -1.
         21   -1    0    0  501  502  0.00000000000E+00 -0.00000000000E+00 -0.27166604084E+03  0.27166604084E+03  0.00000000000E+00 0. -1.
         23    2    1    2    0    0 -0.84833301065E+01 -0.23382161697E+02  0.45501450829E+03  0.46558614934E+03  0.95465005804E+02 0.  0.
         23    2    1    2    0    0  0.47241226618E+02  0.13803357895E+01 -0.41849396510E+02  0.11050710477E+03  0.90701760716E+02 0.  0.
        -11    1    3    3    0    0  0.94223108830E+01 -0.56771210991E+02  0.32915202507E+03  0.33414488766E+03  0.00000000000E+00 0. -1.
         11    1    3    3    0    0 -0.17905640990E+02  0.33389049294E+02  0.12586248322E+03  0.13144126169E+03  0.00000000000E+00 0.  1.
        -13    1    4    4    0    0  0.22456080304E+02 -0.44388831787E+02 -0.25808540578E+02  0.56042168916E+02  0.00000000000E+00 0. -1.
         13    1    4    4    0    0  0.24785146314E+02  0.45769167577E+02 -0.16040855932E+02  0.54464935853E+02  0.00000000000E+00 0.  1.
         21    1    1    2  503  502 -0.11192151430E+02 -0.16880968655E+02  0.65767715078E+02  0.68815868104E+02  0.00000000000E+00 0. -1.
          2    1    1    2  501    0 -0.27565745082E+02  0.38882794562E+02 -0.18566781342E+03  0.19168797290E+03  0.00000000000E+00 0. -1.
<scales pt_clust_5="13000.00000" pt_clust_6="13000.00000" pt_clust_7="13000.00000" pt_clust_8="13000.00000" pt_clust_9="20.25417" pt_clust_10="47.61879"></scales>
<clustering>
<clus scale="   20.254">  1  9  2 -1</clus>
<clus scale="   47.619">  2 10  1 -1</clus>
<clus scale="   90.702">  7  8 -1 -1</clus>
<clus scale="   95.465">  5  6 -1 -1</clus>
<clus scale="   99.705">  2  7  1 -1</clus>
<clus scale="   47.619">  2  5  1 -1</clus>
</clustering>
</event>
<event>
10    2  0.3984345E-006  0.1490628E+03  0.7546771E-02  0.1203631E+00
         21   -1    0    0  501  502  0.00000000000E+00  0.00000000000E+00  0.19708084964E+03  0.19708084964E+03  0.00000000000E+00 0.  1.
          1   -1    0    0  503    0 -0.00000000000E+00 -0.00000000000E+00 -0.19736875708E+03  0.19736875708E+03  0.00000000000E+00 0. -1.
         23    2    1    2    0    0  0.13600534984E+03 -0.13438681191E+02  0.16769787012E+02  0.16031336062E+03  0.82104168592E+02 0.  0.
         23    2    1    2    0    0 -0.96285044601E+02  0.20771805682E+02  0.16504503313E+02  0.13622724159E+03  0.92645480169E+02 0.  0.
        -11    1    4    4    0    0 -0.74009048395E+01  0.41237232798E+02 -0.58909641708E+01  0.42308228752E+02  0.00000000000E+00 0.  1.
         11    1    4    4    0    0 -0.88884139761E+02 -0.20465427116E+02  0.22395467484E+02  0.93919012835E+02  0.00000000000E+00 0. -1.
        -13    1    3    3    0    0  0.37586311998E+02 -0.40460347164E+02 -0.65797738269E+01  0.55615321323E+02  0.00000000000E+00 0. -1.
         13    1    3    3    0    0  0.98419037839E+02  0.27021665973E+02  0.23349560839E+02  0.10469803930E+03  0.00000000000E+00 0.  1.
         21    1    1    2  503  502 -0.21617622358E+02  0.52649393085E+01 -0.59698961710E+02  0.63710338341E+02  0.00000000000E+00 0. -1.
          1    1    1    2  501    0 -0.18102682878E+02 -0.12598063800E+02  0.26136763945E+02  0.34198666178E+02  0.00000000000E+00 0. -1.
<scales pt_clust_5="13000.00000" pt_clust_6="13000.00000" pt_clust_7="13000.00000" pt_clust_8="13000.00000" pt_clust_9="22.42593" pt_clust_10="22.05489"></scales>
<clustering>
<clus scale="   22.055">  1 10  2 -1</clus>
<clus scale="   22.426">  2  9  1 -1</clus>
<clus scale="   82.104">  7  8 -1 -1</clus>
<clus scale="   92.645">  5  6 -1 -1</clus>
<clus scale="  142.750">  2  7  1 -1</clus>
<clus scale="   22.055">  1  5  2 -1</clus>
</clustering>
</event>
<event>
10    2  0.3984345E-006  0.9413855E+02  0.7546771E-02  0.1294291E+00
          2   -1    0    0  503    0 -0.00000000000E+00  0.00000000000E+00  0.20722870202E+03  0.20722870202E+03  0.00000000000E+00 0. -1.
         21   -1    0    0  501  502  0.00000000000E+00 -0.00000000000E+00 -0.16986892111E+03  0.16986892111E+03  0.00000000000E+00 0. -1.
         23    2    1    2    0    0 -0.86409751605E+01 -0.66071366641E+01  0.11507109717E+03  0.14660296774E+03  0.90181772222E+02 0.  0.
         23    2    1    2    0    0 -0.45936312071E+02  0.19235125978E+02 -0.10235647062E+02  0.10169529860E+03  0.88074005524E+02 0.  0.
        -11    1    4    4    0    0 -0.33420393851E+02  0.42368590999E+02 -0.36005953960E+02  0.64872559291E+02  0.00000000000E+00 0.  1.
         11    1    4    4    0    0 -0.12515918220E+02 -0.23133465021E+02  0.25770306898E+02  0.36822739311E+02  0.00000000000E+00 0. -1.
        -13    1    3    3    0    0 -0.44503924335E+01  0.41867792952E+02  0.56379583489E+02  0.70366011070E+02  0.00000000000E+00 0.  1.
         13    1    3    3    0    0 -0.41905827270E+01 -0.48474929616E+02  0.58691513681E+02  0.76236956675E+02  0.00000000000E+00 0. -1.
         21    1    1    2  503  502  0.25520430301E+02 -0.20051929334E+02  0.18767031985E+02  0.37490981880E+02  0.00000000000E+00 0. -1.
          2    1    1    2  501    0  0.29056856930E+02  0.74239400207E+01 -0.86242701187E+02  0.91308374906E+02  0.00000000000E+00 0. -1.
<scales pt_clust_5="13000.00000" pt_clust_6="13000.00000" pt_clust_7="13000.00000" pt_clust_8="13000.00000" pt_clust_9="34.67284" pt_clust_10="29.99026"></scales>
<clustering>
<clus scale="   29.990">  2 10  1 -1</clus>
<clus scale="   34.673">  1  9  2 -1</clus>
<clus scale="   88.074">  5  6 -1 -1</clus>
<clus scale="   90.182">  7  8 -1 -1</clus>
<clus scale="   92.121">  2  5  1 -1</clus>
<clus scale="   29.990">  2  5  1 -1</clus>
</clustering>
</event>
<event>
10    2  0.3984345E-006  0.1719460E+03  0.7546771E-02  0.1175878E+00
          1   -1    0    0  503    0 -0.00000000000E+00  0.00000000000E+00  0.81382162964E+03  0.81382162964E+03  0.00000000000E+00 0. -1.
         21   -1    0    0  501  502  0.00000000000E+00 -0.00000000000E+00 -0.13526913093E+03  0.13526913093E+03  0.00000000000E+00 0. -1.
         23    2    1    2    0    0  0.78921767133E+01 -0.13000230713E+03  0.34774587308E+03  0.38263536807E+03  0.92302472022E+02 0.  0.
         23    2    1    2    0    0 -0.11959579687E+02  0.16480580654E+03  0.35326237088E+03  0.40069719623E+03  0.91978013495E+02 0.  0.
        -11    1    4    4    0    0 -0.30114272893E+02  0.87035097935E+01  0.47480118853E+02  0.56894483044E+02  0.00000000000E+00 0.  1.
         11    1    4    4    0    0  0.18154693206E+02  0.15610229675E+03  0.30578225203E+03  0.34380271319E+03  0.00000000000E+00 0. -1.
        -13    1    3    3    0    0 -0.12018794863E+02 -0.13365249908E+03  0.26003168496E+03  0.29261565085E+03  0.00000000000E+00 0. -1.
         13    1    3    3    0    0  0.19910971577E+02  0.36501919503E+01  0.87714188119E+02  0.90019717217E+02  0.00000000000E+00 0.  1.
         21    1    1    2  503  502  0.34448082822E+02 -0.20956385248E+02  0.62556036081E+02  0.74425117688E+02  0.00000000000E+00 0. -1.
          1    1    1    2  501    0 -0.30380679848E+02 -0.13847114164E+02 -0.85011781328E+02  0.91333078582E+02  0.00000000000E+00 0. -1.
<scales pt_clust_5="13000.00000" pt_clust_6="13000.00000" pt_clust_7="13000.00000" pt_clust_8="13000.00000" pt_clust_9="38.11723" pt_clust_10="33.38755"></scales>
<clustering>
<clus scale="   33.388">  2 10  1 -1</clus>
<clus scale="   38.117">  2  9  1 -1</clus>
<clus scale="   91.978">  5  6 -1 -1</clus>
<clus scale="   92.302">  7  8 -1 -1</clus>
<clus scale="  171.772">  2  5  1 -1</clus>
<clus scale="   33.388">  2  5  1 -1</clus>
</clustering>
</event>
<event>
10    2  0.3984345E-006  0.1028925E+03  0.7546771E-02  0.1274407E+00
          3   -1    0    0  503    0 -0.00000000000E+00  0.00000000000E+00  0.85833432534E+02  0.85833432534E+02  0.00000000000E+00 0. -1.
         21   -1    0    0  501  502  0.00000000000E+00 -0.00000000000E+00 -0.23376214233E+03  0.23376214233E+03  0.00000000000E+00 0.  1.
         23    2    1    2    0    0 -0.13669820350E+02  0.37584277334E+02 -0.72231994760E+02  0.12235545202E+03  0.90299245191E+02 0.  0.
         23    2    1    2    0    0  0.40353436529E+02 -0.43906060674E+02 -0.96836814884E+02  0.14532507900E+03  0.90475786068E+02 0.  0.
        -11    1    4    4    0    0  0.45968236498E+02  0.79595785561E+01 -0.75943129696E+02  0.89127956364E+02  0.00000000000E+00 0.  1.
         11    1    4    4    0    0 -0.56147999685E+01 -0.51865639230E+02 -0.20893685188E+02  0.56197122632E+02  0.00000000000E+00 0. -1.
        -13    1    3    3    0    0 -0.77053945128E+01  0.66017954897E+02 -0.34964301914E+02  0.75101570434E+02  0.00000000000E+00 0.  1.
         13    1    3    3    0    0 -0.59644258368E+01 -0.28433677562E+02 -0.37267692846E+02  0.47253881590E+02  0.00000000000E+00 0. -1.
         21    1    1    2  503  502 -0.98456908620E+01  0.18905390744E+02  0.22317784084E+02  0.30861544261E+02  0.00000000000E+00 0.  1.
          3    1    1    2  501    0 -0.16837925318E+02 -0.12583607405E+02 -0.11776842311E+01  0.21053499578E+02  0.00000000000E+00 0. -1.
<scales pt_clust_5="13000.00000" pt_clust_6="13000.00000" pt_clust_7="13000.00000" pt_clust_8="13000.00000" pt_clust_9="21.25433" pt_clust_10="21.02055"></scales>
<clustering>
<clus scale="   21.021">  2 10  1 -1</clus>
<clus scale="   21.254">  1  9  2 -1</clus>
<clus scale="   90.299">  7  8 -1 -1</clus>
<clus scale="   90.476">  5  6 -1 -1</clus>
<clus scale="  102.737">  1  7  2 -1</clus>
<clus scale="   21.021">  2  5  1 -1</clus>
</clustering>
</event>
<event>
10    2  0.7991292E-006  0.1000964E+03  0.7546771E-02  0.1280173E+00
          2   -1    0    0  503    0 -0.00000000000E+00  0.00000000000E+00  0.27008153696E+03  0.27008153696E+03  0.00000000000E+00 0. -1.
         21   -1    0    0  501  502  0.00000000000E+00 -0.00000000000E+00 -0.29119359719E+03  0.29119359719E+03  0.00000000000E+00 0. -1.
         23    2    1    2    0    0  0.36516754468E+02 -0.11652561595E+02  0.22700172837E+03  0.24794209132E+03  0.92066499971E+02 0.  0.
         23    2    1    2    0    0 -0.48024160578E+02  0.18661628564E+02 -0.11306730584E+03  0.15454610909E+03  0.91900532129E+02 0.  0.
        -13    1    3    3    0    0 -0.13373064381E+02 -0.40069324031E+02  0.91658672676E+02  0.10092423820E+03  0.00000000000E+00 0.  1.
         13    1    3    3    0    0  0.49889818849E+02  0.28416762436E+02  0.13534305569E+03  0.14701785312E+03  0.00000000000E+00 0. -1.
        -13    1    4    4    0    0 -0.53305433499E+02 -0.95076923724E+01 -0.11363968462E+03  0.12588027397E+03  0.00000000000E+00 0.  1.
         13    1    4    4    0    0  0.52812729209E+01  0.28169320936E+02  0.57237877956E+00  0.28665835120E+02  0.00000000000E+00 0. -1.
         21    1    1    2  503  502 -0.20949415891E+02 -0.18040829646E+01 -0.13076124414E+01  0.21067572044E+02  0.00000000000E+00 0. -1.
          2    1    1    2  501    0  0.32456822002E+02 -0.52049840037E+01 -0.13373887032E+03  0.13771936170E+03  0.00000000000E+00 0. -1.
<scales pt_clust_5="13000.00000" pt_clust_6="13000.00000" pt_clust_7="13000.00000" pt_clust_8="13000.00000" pt_clust_9="21.02695" pt_clust_10="23.11566"></scales>
<clustering>
<clus scale="   21.027">  2  9  1 -1</clus>
<clus scale="   23.116">  2 10  1 -1</clus>
<clus scale="   91.901">  7  8 -1 -1</clus>
<clus scale="   92.066">  5  6 -1 -1</clus>
<clus scale="   99.944">  2  7  1 -1</clus>
<clus scale="   21.027">  2  5  1 -1</clus>
</clustering>
</event>
<event>
10    2  0.3984345E-006  0.1018698E+03  0.7546771E-02  0.1279134E+00
         21   -1    0    0  503  502  0.00000000000E+00  0.00000000000E+00  0.55084813516E+02  0.55084813516E+02  0.00000000000E+00 0.  1.
         -1   -1    0    0    0  501 -0.00000000000E+00 -0.00000000000E+00 -0.48902165304E+03  0.48902165304E+03  0.00000000000E+00 0.  1.
         23    2    1    2    0    0 -0.28587416073E+02 -0.13138941685E+02 -0.16628243859E+03  0.19121635467E+03  0.89016699351E+02 0.  0.
         23    2    1    2    0    0  0.42698042581E+02  0.34616649203E+01 -0.12390647031E+03  0.16166743593E+03  0.94596197020E+02 0.  0.
        -11    1    3    3    0    0  0.47218374558E+01 -0.46736922424E+02 -0.77882031894E+02  0.90951891452E+02  0.00000000000E+00 0. -1.
         11    1    3    3    0    0 -0.33309253529E+02  0.33597980740E+02 -0.88400406700E+02  0.10026446322E+03  0.00000000000E+00 0.  1.
        -13    1    4    4    0    0 -0.28153938214E+02  0.11235955676E+02 -0.53434490835E+02  0.61433995049E+02  0.00000000000E+00 0.  1.
         13    1    4    4    0    0  0.70851980795E+02 -0.77742907561E+01 -0.70471979477E+02  0.10023344088E+03  0.00000000000E+00 0. -1.
         21    1    1    2  503  501 -0.22911593860E+02  0.30374477853E+02 -0.15936364023E+03  0.16384236285E+03  0.00000000000E+00 0.  1.
         -1    1    1    2    0  502  0.88009673517E+01 -0.20697201089E+02  0.15615709606E+02  0.27380313105E+02  0.00000000000E+00 0.  1.
<scales pt_clust_5="13000.00000" pt_clust_6="13000.00000" pt_clust_7="13000.00000" pt_clust_8="13000.00000" pt_clust_9="36.59342" pt_clust_10="22.49069"></scales>
<clustering>
<clus scale="   22.491">  1 10  2 -1</clus>
<clus scale="   36.593">  2  9  1 -1</clus>
<clus scale="   89.017">  5  6 -1 -1</clus>
<clus scale="   94.596">  7  8 -1 -1</clus>
<clus scale="   96.711">  2  5  1 -1</clus>
<clus scale="   22.491">  1  5  2 -1</clus>
</clustering>
</event>
<event>
10    2  0.3984345E-006  0.1019489E+03  0.7546771E-02  0.1277497E+00
         -2   -1    0    0    0  501 -0.00000000000E+00  0.00000000000E+00  0.10128978662E+04  0.10128978662E+04  0.00000000000E+00 0.  1.
         21   -1    0    0  503  502  0.00000000000E+00 -0.00000000000E+00 -0.13637508057E+03  0.13637508057E+03  0.00000000000E+00 0.  1.
         23    2    1    2    0    0  0.62069919272E+02 -0.61142712521E+02  0.58725342195E+03  0.60031440919E+03  0.88992708232E+02 0.  0.
         23    2    1    2    0    0 -0.23134965865E+02 -0.13051211176E+02  0.21614034064E+02  0.97859697451E+02  0.91672204937E+02 0.  0.
        -11    1    4    4    0    0 -0.55301852492E+02 -0.25185631575E+02  0.17489422068E+02  0.63233620893E+02  0.00000000000E+00 0. -1.
         11    1    4    4    0    0  0.32166886627E+02  0.12134420399E+02  0.41246119955E+01  0.34626076558E+02  0.00000000000E+00 0.  1.
        -13    1    3    3    0    0  0.51962896386E+02 -0.84117439126E+02  0.44365821647E+03  0.45454207639E+03  0.00000000000E+00 0.  1.
         13    1    3    3    0    0  0.10107022886E+02  0.22974726605E+02  0.14359520548E+03  0.14577233280E+03  0.00000000000E+00 0. -1.
         21    1    1    2  503  501 -0.14943582536E+02  0.59901867994E+02  0.35452008190E+03  0.35985557231E+03  0.00000000000E+00 0. -1.
         -2    1    1    2    0  502 -0.23991370870E+02  0.14292055703E+02 -0.86864752288E+02  0.91243267820E+02  0.00000000000E+00 0.  1.
<scales pt_clust_5="13000.00000" pt_clust_6="13000.00000" pt_clust_7="13000.00000" pt_clust_8="13000.00000" pt_clust_9="62.85678" pt_clust_10="27.92577"></scales>
<clustering>
<clus scale="   27.926">  2 10  1 -1</clus>
<clus scale="   62.857">  1  9  2 -1</clus>
<clus scale="   88.993">  7  8 -1 -1</clus>
<clus scale="   91.672">  5  6 -1 -1</clus>
<clus scale="   99.546">  1  7  2 -1</clus>
<clus scale="   27.926">  2  5  1 -1</clus>
</clustering>
</event>
<event>
10    2  0.3984345E-006  0.2407504E+03  0.7546771E-02  0.1119296E+00
         -3   -1    0    0    0  501 -0.00000000000E+00  0.00000000000E+00  0.73832952750E+03  0.73832952750E+03  0.00000000000E+00 0.  1.
         21   -1    0    0  503  502  0.00000000000E+00 -0.00000000000E+00 -0.22724708240E+03  0.22724708240E+03  0.00000000000E+00 0.  1.
         23    2    1    2    0    0 -0.18733252176E+03  0.96244170195E+02  0.29390928693E+03  0.37220775020E+03  0.88314927193E+02 0.  0.
         23    2    1    2    0    0  0.13100290419E+03 -0.23142347048E+03  0.12690227470E+02  0.28050675155E+03  0.88342584258E+02 0.  0.
        -11    1    3    3    0    0 -0.15452494300E+03  0.61467973890E+02  0.16309088023E+03  0.23292682335E+03  0.00000000000E+00 0.  1.
         11    1    3    3    0    0 -0.32807578759E+02  0.34776196305E+02  0.13081840670E+03  0.13928092686E+03  0.00000000000E+00 0. -1.
        -11    1    4    4    0    0  0.96287416243E+02 -0.21823773684E+03  0.28331864772E+02  0.24021172093E+03  0.00000000000E+00 0.  1.
         11    1    4    4    0    0  0.34715487950E+02 -0.13185733638E+02 -0.15641637301E+02  0.40295030620E+02  0.00000000000E+00 0. -1.
         21    1    1    2  503  501 -0.43358987565E+02 -0.22435733152E+02  0.57351410335E+02  0.75316320888E+02  0.00000000000E+00 0. -1.
         -3    1    1    2    0  502  0.99688605127E+02  0.15761503344E+03  0.14713152037E+03  0.23754578726E+03  0.00000000000E+00 0.  1.
<scales pt_clust_5="13000.00000" pt_clust_6="13000.00000" pt_clust_7="13000.00000" pt_clust_8="13000.00000" pt_clust_9="48.81971" pt_clust_10="174.57667"></scales>
<clustering>
<clus scale="   48.820">  1  9  2 -1</clus>
<clus scale="   88.315">  5  6 -1 -1</clus>
<clus scale="   88.343">  7  8 -1 -1</clus>
<clus scale="  174.577">  2 10  1 -1</clus>
<clus scale="  240.740">  1  5  2 -1</clus>
<clus scale="  174.577">  2  5  1 -1</clus>
</clustering>
</event>
<event>
10    2  0.3984345E-006  0.1047259E+03  0.7546771E-02  0.1271891E+00
         21   -1    0    0  501  502  0.00000000000E+00  0.00000000000E+00  0.84493487083E+02  0.84493487083E+02  0.00000000000E+00 0. -1.
          1   -1    0    0  503    0 -0.00000000000E+00 -0.00000000000E+00 -0.49926845765E+03  0.49926845765E+03  0.00000000000E+00 0. -1.
         23    2    1    2    0    0  0.64361724854E+01  0.21188649099E+02 -0.18232163844E+03  0.20396192306E+03  0.88706837658E+02 0.  0.
         23    2    1    2    0    0 -0.58059037121E+02  0.11077249700E+02  0.14178137779E+02  0.10987342058E+03  0.91529185003E+02 0.  0.
        -11    1    3    3    0    0 -0.26241769209E+02  0.42461062170E+02 -0.78136732994E+02  0.92719584203E+02  0.00000000000E+00 0.  1.
         11    1    3    3    0    0  0.32677941694E+02 -0.21272413070E+02 -0.10418490545E+03  0.11124233886E+03  0.00000000000E+00 0. -1.
        -13    1    4    4    0    0 -0.82636470462E+00  0.25901192807E+02  0.38114973245E+02  0.46090192589E+02  0.00000000000E+00 0.  1.
         13    1    4    4    0    0 -0.57232672416E+02 -0.14823943108E+02 -0.23936835466E+02  0.63783227993E+02  0.00000000000E+00 0. -1.
         21    1    1    2  503  502  0.63463556475E+02 -0.53252892922E+02 -0.21307727224E+03  0.22861631077E+03  0.00000000000E+00 0. -1.
          1    1    1    2  501    0 -0.11840691840E+02  0.20986994123E+02 -0.33554197675E+02  0.41310290330E+02  0.00000000000E+00 0. -1.
<scales pt_clust_5="13000.00000" pt_clust_6="13000.00000" pt_clust_7="13000.00000" pt_clust_8="13000.00000" pt_clust_9="80.67598" pt_clust_10="24.09681"></scales>
<clustering>
<clus scale="   24.097">  1 10  2 -1</clus>
<clus scale="   80.676">  2  9  1 -1</clus>
<clus scale="   88.707">  5  6 -1 -1</clus>
<clus scale="   91.529">  7  8 -1 -1</clus>
<clus scale="  102.268">  2  5  1 -1</clus>
<clus scale="   24.097">  1  5  2 -1</clus>
</clustering>
</event>
<event>
10    2  0.3984345E-006  0.1502492E+03  0.7546771E-02  0.1200668E+00
          3   -1    0    0  503    0 -0.00000000000E+00  0.00000000000E+00  0.71669285911E+03  0.71669285911E+03  0.00000000000E+00 0. -1.
         21   -1    0    0  501  502  0.00000000000E+00 -0.00000000000E+00 -0.10172746119E+03  0.10172746119E+03  0.00000000000E+00 0.  1.
         23    2    1    2    0    0  0.12304873189E+03  0.90876510794E+02  0.43711568495E+03  0.47197000436E+03  0.91027646075E+02 0.  0.
         23    2    1    2    0    0 -0.65133603162E+02 -0.48809390869E+02  0.16149253043E+03  0.20125830992E+03  0.88319460072E+02 0.  0.
        -11    1    4    4    0    0 -0.62070190788E+02 -0.72843549978E+02  0.12438047649E+03  0.15693754901E+03  0.00000000000E+00 0. -1.
         11    1    4    4    0    0 -0.30634123739E+01  0.24034159109E+02  0.37112053944E+02  0.44320760907E+02  0.00000000000E+00 0.  1.
        -13    1    3    3    0    0  0.80166014325E+02  0.85681414968E+02  0.20796094040E+03  0.23877949546E+03  0.00000000000E+00 0.  1.
         13    1    3    3    0    0  0.42882717568E+02  0.51950958265E+01  0.22915474456E+03  0.23319050890E+03  0.00000000000E+00 0. -1.
         21    1    1    2  503  502 -0.24976470094E+02 -0.40089069966E+02  0.68667343624E+02  0.83343636046E+02  0.00000000000E+00 0. -1.
          3    1    1    2  501    0 -0.32938658637E+02 -0.19780499593E+01 -0.52310161099E+02  0.61848369976E+02  0.00000000000E+00 0. -1.
<scales pt_clust_5="13000.00000" pt_clust_6="13000.00000" pt_clust_7="13000.00000" pt_clust_8="13000.00000" pt_clust_9="50.56544" pt_clust_10="32.99800"></scales>
<clustering>
<clus scale="   32.998">  2 10  1 -1</clus>
<clus scale="   50.565">  2  9  1 -1</clus>
<clus scale="   88.319">  5  6 -1 -1</clus>
<clus scale="   91.028">  7  8 -1 -1</clus>
<clus scale="  148.624">  2  5  1 -1</clus>
<clus scale="   32.998">  2  5  1 -1</clus>
</clustering>
</event>
<event>
10    2  0.3984345E-006  0.1570626E+03  0.7546771E-02  0.1192339E+00
          1   -1    0    0  502    0 -0.00000000000E+00  0.00000000000E+00  0.56621023006E+03  0.56621023006E+03  0.00000000000E+00 0. -1.
         21   -1    0    0  503  502  0.00000000000E+00 -0.00000000000E+00 -0.63139152897E+02  0.63139152897E+02  0.00000000000E+00 0.  1.
         23    2    1    2    0    0  0.88832439896E+02 -0.71062272791E+02  0.21382750281E+03  0.25869999238E+03  0.90897943352E+02 0.  0.
         23    2    1    2    0    0 -0.91238514067E+02  0.11770266548E+03  0.19295225855E+03  0.26072920157E+03  0.92578391426E+02 0.  0.
        -11    1    3    3    0    0  0.55640667544E+02 -0.90755144148E+02  0.16662892366E+03  0.19773107564E+03  0.00000000000E+00 0. -1.
         11    1    3    3    0    0  0.33191772352E+02  0.19692871357E+02  0.47198579146E+02  0.60968916732E+02  0.00000000000E+00 0.  1.
        -11    1    4    4    0    0 -0.74244821856E+02  0.21862361726E+02  0.74642975190E+02  0.10752595118E+03  0.00000000000E+00 0. -1.
         11    1    4    4    0    0 -0.16993692211E+02  0.95840303751E+02  0.11830928336E+03  0.15320325038E+03  0.00000000000E+00 0.  1.
         21    1    1    2  503  501  0.12822536738E+02 -0.18306997630E+02  0.48353274361E+02  0.53269153852E+02  0.00000000000E+00 0. -1.
          1    1    1    2  501    0 -0.10416462567E+02 -0.28333395057E+02  0.47938041439E+02  0.56651035162E+02  0.00000000000E+00 0. -1.
<scales pt_clust_5="13000.00000" pt_clust_6="13000.00000" pt_clust_7="13000.00000" pt_clust_8="13000.00000" pt_clust_9="21.58581" pt_clust_10="53.01352"></scales>
<clustering>
<clus scale="   21.586">  9 10 -1 -1</clus>
<clus scale="   53.014">  2  9  1 -1</clus>
<clus scale="   90.898">  5  6 -1 -1</clus>
<clus scale="   92.578">  7  8 -1 -1</clus>
<clus scale="  156.078">  1  5  2 -1</clus>
<clus scale="   53.014">  2  5  1 -1</clus>
</clustering>
</event>
<event>
10    2  0.3984345E-006  0.1039505E+03  0.7546771E-02  0.1276571E+00
          1   -1    0    0  503    0 -0.00000000000E+00  0.00000000000E+00  0.10893130703E+03  0.10893130703E+03  0.00000000000E+00 0. -1.
         21   -1    0    0  501  502  0.00000000000E+00 -0.00000000000E+00 -0.22253618068E+03  0.22253618068E+03  0.00000000000E+00 0.  1.
         23    2    1    2    0    0  0.24569189583E+02 -0.22429605329E+02 -0.18718623275E+01  0.88168490238E+02  0.81629936483E+02 0.  0.
         23    2    1    2    0    0 -0.48692365712E+02  0.62927095169E+02 -0.34537637968E+02  0.12592234744E+03  0.91284299658E+02 0.  0.
        -11    1    4    4    0    0  0.15533096663E+02  0.39591853426E+02  0.10846070782E+02  0.43891106172E+02  0.00000000000E+00 0.  1.
         11    1    4    4    0    0 -0.64225462375E+02  0.23335241744E+02 -0.45383708750E+02  0.82031241270E+02  0.00000000000E+00 0. -1.
        -13    1    3    3    0    0  0.44772350621E+02 -0.40991997990E+02 -0.69762607899E+00  0.60707445684E+02  0.00000000000E+00 0.  1.
         13    1    3    3    0    0 -0.20203161038E+02  0.18562392660E+02 -0.11742362485E+01  0.27461044554E+02  0.00000000000E+00 0. -1.
         21    1    1    2  503  502  0.47972864559E+02 -0.96361848382E+01 -0.36799854878E+02  0.61224840639E+02  0.00000000000E+00 0.  1.
          1    1    1    2  501    0 -0.23849688431E+02 -0.30861305002E+02 -0.40395518473E+02  0.56151809387E+02  0.00000000000E+00 0. -1.
<scales pt_clust_5="13000.00000" pt_clust_6="13000.00000" pt_clust_7="13000.00000" pt_clust_8="13000.00000" pt_clust_9="45.14731" pt_clust_10="39.00292"></scales>
<clustering>
<clus scale="   39.003">  2 10  1 -1</clus>
<clus scale="   45.147">  2  9  1 -1</clus>
<clus scale="   81.630">  7  8 -1 -1</clus>
<clus scale="   91.284">  5  6 -1 -1</clus>
<clus scale="   95.584">  1  7  2 -1</clus>
<clus scale="   39.003">  2  5  1 -1</clus>
</clustering>
</event>
<event>
10    2  0.3984345E-006  0.1420620E+03  0.7546771E-02  0.1227950E+00
         21   -1    0    0  501  502  0.00000000000E+00  0.00000000000E+00  0.32892030622E+03  0.32892030622E+03  0.00000000000E+00 0.  1.
          2   -1    0    0  503    0 -0.00000000000E+00 -0.00000000000E+00 -0.22059233253E+03  0.22059233253E+03  0.00000000000E+00 0. -1.
         23    2    1    2    0    0 -0.81085608429E+02 -0.99561800053E+00 -0.30659345584E+02  0.12704984888E+03  0.92875193022E+02 0.  0.
         23    2    1    2    0    0 -0.40233421484E+02  0.83609253217E+01  0.24081246310E+02  0.10044919948E+03  0.88439255849E+02 0.  0.
        -11    1    3    3    0    0 -0.15072962338E+02 -0.20170005632E+02  0.27297295624E+02  0.37137119829E+02  0.00000000000E+00 0.  1.
         11    1    3    3    0    0 -0.66012646091E+02  0.19174387632E+02 -0.57956641208E+02  0.89912729050E+02  0.00000000000E+00 0. -1.
        -11    1    4    4    0    0 -0.45358679417E+02  0.42458746897E+02  0.21983092382E+02  0.65904562339E+02  0.00000000000E+00 0.  1.
         11    1    4    4    0    0  0.51252579329E+01 -0.34097821575E+02  0.20981539277E+01  0.34544637137E+02  0.00000000000E+00 0. -1.
         21    1    1    2  503  502  0.12927244207E+03  0.20951378852E+02 -0.60428801508E+02  0.14422886191E+03  0.00000000000E+00 0.  1.
          2    1    1    2  501    0 -0.79534121585E+01 -0.28316686174E+02  0.17533487447E+03  0.17778472849E+03  0.00000000000E+00 0. -1.
<scales pt_clust_5="13000.00000" pt_clust_6="13000.00000" pt_clust_7="13000.00000" pt_clust_8="13000.00000" pt_clust_9="107.49790" pt_clust_10="29.41244"></scales>
<clustering>
<clus scale="   29.412">  1 10  2 -1</clus>
<clus scale="   88.439">  7  8 -1 -1</clus>
<clus scale="   92.875">  5  6 -1 -1</clus>
<clus scale="   98.604">  1  7  2 -1</clus>
<clus scale="  107.498">  1  9  2 -1</clus>
<clus scale="   29.412">  1  5  2 -1</clus>
</clustering>
</event>
<event>
10    2  0.3984345E-006  0.1024891E+03  0.7546771E-02  0.1275216E+00
         21   -1    0    0  501  502  0.00000000000E+00  0.00000000000E+00  0.28749297896E+03  0.28749297896E+03  0.00000000000E+00 0. -1.
          4   -1    0    0  503    0 -0.00000000000E+00 -0.00000000000E+00 -0.23939593355E+03  0.23939593355E+03  0.00000000000E+00 0. -1.
         23    2    1    2    0    0  0.13981130432E+02 -0.10471168600E+02 -0.12670853716E+03  0.15676926997E+03  0.90644543346E+02 0.  0.
         23    2    1    2    0    0  0.19194158899E+01  0.24222584771E+02  0.89856174972E+02  0.13003345816E+03  0.90797303321E+02 0.  0.
        -11    1    4    4    0    0  0.37106289804E+02  0.20479779759E+02  0.11281370762E+02  0.43858493456E+02  0.00000000000E+00 0. -1.
         11    1    4    4    0    0 -0.35186873914E+02  0.37428050125E+01  0.78574804211E+02  0.86174964705E+02  0.00000000000E+00 0.  1.
        -13    1    3    3    0    0 -0.22229250353E+02 -0.35363780375E+02 -0.32870687816E+02  0.53152785921E+02  0.00000000000E+00 0.  1.
         13    1    3    3    0    0  0.36210380785E+02  0.24892611775E+02 -0.93837849344E+02  0.10361648405E+03  0.00000000000E+00 0. -1.
         21    1    1    2  503  502  0.19368586824E+01 -0.50298395420E+02 -0.66425974608E+02  0.83343206718E+02  0.00000000000E+00 0. -1.
          4    1    1    2  501    0 -0.17837405004E+02  0.36546979249E+02  0.15137538221E+03  0.15674297767E+03  0.00000000000E+00 0. -1.
<scales pt_clust_5="13000.00000" pt_clust_6="13000.00000" pt_clust_7="13000.00000" pt_clust_8="13000.00000" pt_clust_9="47.98839" pt_clust_10="40.66761"></scales>
<clustering>
<clus scale="   40.668">  1 10  2 -1</clus>
<clus scale="   47.988">  2  9  1 -1</clus>
<clus scale="   90.645">  7  8 -1 -1</clus>
<clus scale="   90.797">  5  6 -1 -1</clus>
<clus scale="  102.354">  2  7  1 -1</clus>
<clus scale="   40.668">  1  5  2 -1</clus>
</clustering>
</event>
<event>
10    2  0.3984345E-006  0.2285083E+03  0.7546771E-02  0.1151882E+00
          1   -1    0    0  503    0 -0.00000000000E+00  0.00000000000E+00  0.26415325261E+03  0.26415325261E+03  0.00000000000E+00 0. -1.
         21   -1    0    0  501  502  0.00000000000E+00 -0.00000000000E+00 -0.66075703279E+03  0.66075703279E+03  0.00000000000E+00 0. -1.
         23    2    1    2    0    0 -0.26129143751E+02  0.82946243369E+02 -0.46949860272E+01  0.12627526572E+03  0.91436253192E+02 0.  0.
         23    2    1    2    0    0 -0.14974824601E+03 -0.18548339084E+03  0.77960044308E+02  0.26764844717E+03  0.93430708555E+02 0.  0.
        -11    1    3    3    0    0 -0.19209681434E+02  0.10255745152E+03  0.22051809482E+01  0.10436429249E+03  0.00000000000E+00 0. -1.
         11    1    3    3    0    0 -0.69194623171E+01 -0.19611208152E+02 -0.69001669755E+01  0.21910973238E+02  0.00000000000E+00 0.  1.
        -13    1    4    4    0    0 -0.22506684410E+02  0.57591487686E+00 -0.11325014966E+02  0.25201953992E+02  0.00000000000E+00 0.  1.
         13    1    4    4    0    0 -0.12724156160E+03 -0.18605930572E+03  0.89285059274E+02  0.24244649318E+03  0.00000000000E+00 0. -1.
         21    1    1    2  503  502 -0.18535495367E+02  0.13008061102E+02 -0.12154589773E+02  0.25700355925E+02  0.00000000000E+00 0. -1.
          1    1    1    2  501    0  0.19441288513E+03  0.89529086374E+02 -0.45771424869E+03  0.50528621658E+03  0.00000000000E+00 0. -1.
<scales pt_clust_5="13000.00000" pt_clust_6="13000.00000" pt_clust_7="13000.00000" pt_clust_8="13000.00000" pt_clust_9="22.64452" pt_clust_10="208.53480"></scales>
<clustering>
<clus scale="   22.645">  2  9  1 -1</clus>
<clus scale="   91.436">  5  6 -1 -1</clus>
<clus scale="   93.431">  7  8 -1 -1</clus>
<clus scale="  127.467">  1  5  2 -1</clus>
<clus scale="  208.535">  2 10  1 -1</clus>
<clus scale="   22.645">  2  5  1 -1</clus>
</clustering>
</event>
<event>
10    2  0.3984345E-006  0.1296151E+03  0.7546771E-02  0.1228995E+00
          2   -1    0    0  503    0 -0.00000000000E+00  0.00000000000E+00  0.20966352492E+03  0.20966352492E+03  0.00000000000E+00 0. -1.
         21   -1    0    0  501  502  0.00000000000E+00 -0.00000000000E+00 -0.34107370983E+03  0.34107370983E+03  0.00000000000E+00 0.  1.
         23    2    1    2    0    0 -0.10248026585E+03  0.19961818512E+01  0.12597944279E+03  0.18683275239E+03  0.92355117502E+02 0.  0.
         23    2    1    2    0    0  0.56460965140E+02 -0.38542473254E+02 -0.94570225675E+02  0.14658583832E+03  0.88715937596E+02 0.  0.
        -11    1    4    4    0    0  0.34544357850E+02 -0.60678329972E+01 -0.10097012604E+03  0.10688824823E+03  0.00000000000E+00 0.  1.
         11    1    4    4    0    0  0.21916607290E+02 -0.32474640257E+02  0.63999003626E+01  0.39697590098E+02  0.00000000000E+00 0. -1.
        -13    1    3    3    0    0 -0.36288952011E+02 -0.21170973561E+02  0.10583401293E+03  0.11386806599E+03  0.00000000000E+00 0.  1.
         13    1    3    3    0    0 -0.66191313839E+02  0.23167155412E+02  0.20145429869E+02  0.72964686405E+02  0.00000000000E+00 0. -1.
         21    1    1    2  503  502  0.71837662590E+01  0.21022078378E+02  0.19929558621E+02  0.29844959103E+02  0.00000000000E+00 0.  1.
          2    1    1    2  501    0  0.38835534451E+02  0.15524213025E+02 -0.18274896064E+03  0.18747368493E+03  0.00000000000E+00 0. -1.
<scales pt_clust_5="13000.00000" pt_clust_6="13000.00000" pt_clust_7="13000.00000" pt_clust_8="13000.00000" pt_clust_9="22.21563" pt_clust_10="42.00904"></scales>
<clustering>
<clus scale="   22.216">  1  9  2 -1</clus>
<clus scale="   42.009">  2 10  1 -1</clus>
<clus scale="   88.716">  5  6 -1 -1</clus>
<clus scale="   92.355">  7  8 -1 -1</clus>
<clus scale="  127.048">  2  5  1 -1</clus>
<clus scale="   42.009">  2  5  1 -1</clus>
</clustering>
</event>
<event>
10    2  0.3984345E-006  0.9992863E+02  0.7546771E-02  0.1282719E+00
         -1   -1    0    0    0  501 -0.00000000000E+00  0.00000000000E+00  0.70756718963E+02  0.70756718963E+02  0.00000000000E+00 0.  1.
         21   -1    0    0  503  502  0.00000000000E+00 -0.00000000000E+00 -0.46669291891E+03  0.46669291891E+03  0.00000000000E+00 0. -1.
         23    2    1    2    0    0 -0.29150437219E+02 -0.23382673647E+02 -0.40859437552E+02  0.10669575735E+03  0.91203034938E+02 0.  0.
         23    2    1    2    0    0  0.24357091395E+02  0.48433999824E+02 -0.31970647886E+03  0.33807516327E+03  0.95621457629E+02 0.  0.
        -13    1    4    4    0    0  0.25221760768E+02 -0.21958099131E+02 -0.16130550574E+03  0.16473542884E+03  0.00000000000E+00 0.  1.
         13    1    4    4    0    0 -0.86466937241E+00  0.70392098956E+02 -0.15840097312E+03  0.17333973443E+03  0.00000000000E+00 0. -1.
        -13    1    3    3    0    0 -0.28518022328E+02  0.24138663093E+02 -0.45580040438E+02  0.58936344811E+02  0.00000000000E+00 0. -1.
         13    1    3    3    0    0 -0.63241489035E+00 -0.47521336740E+02  0.47206028857E+01  0.47759412536E+02  0.00000000000E+00 0.  1.
         21    1    1    2  503  501  0.24916484043E+02  0.59653973026E+01  0.15384818200E+02  0.29884942247E+02  0.00000000000E+00 0. -1.
         -1    1    1    2    0  502 -0.20123138220E+02 -0.31016723480E+02 -0.50755101743E+02  0.62793775011E+02  0.00000000000E+00 0.  1.
<scales pt_clust_5="13000.00000" pt_clust_6="13000.00000" pt_clust_7="13000.00000" pt_clust_8="13000.00000" pt_clust_9="25.62064" pt_clust_10="34.72069"></scales>
<clustering>
<clus scale="   25.621">  1  9  2 -1</clus>
<clus scale="   34.721">  2 10  1 -1</clus>
<clus scale="   91.203">  7  8 -1 -1</clus>
<clus scale="   95.621">  5  6 -1 -1</clus>
<clus scale="   95.709">  1  7  2 -1</clus>
<clus scale="   34.721">  2  5  1 -1</clus>
</clustering>
</event>
<event>
10    2  0.3984345E-006  0.1166932E+03  0.7546771E-02  0.1249568E+00
         21   -1    0    0  501  502  0.00000000000E+00  0.00000000000E+00  0.16096527489E+03  0.16096527489E+03  0.00000000000E+00 0.  1.
          1   -1    0    0  503    0 -0.00000000000E+00 -0.00000000000E+00 -0.27640617112E+03  0.27640617112E+03  0.00000000000E+00 0. -1.
         23    2    1    2    0    0  0.65411555226E+02 -0.29831479868E+02 -0.15860217302E+03  0.19663226752E+03  0.91329133323E+02 0.  0.
         23    2    1    2    0    0 -0.86135699823E+02  0.39495682801E+02  0.18372594959E+02  0.13470919716E+03  0.93966737788E+02 0.  0.
        -11    1    3    3    0    0  0.71581613938E+00 -0.32553930037E+02 -0.11256983329E+03  0.11718463261E+03  0.00000000000E+00 0.  1.
         11    1    3    3    0    0  0.64695739087E+02  0.27224501695E+01 -0.46032339733E+02  0.79447634906E+02  0.00000000000E+00 0. -1.
        -11    1    4    4    0    0 -0.10553578333E+03  0.23524326411E+02  0.12033826785E+02  0.10879342114E+03  0.00000000000E+00 0.  1.
         11    1    4    4    0    0  0.19400083505E+02  0.15971356390E+02  0.63387681739E+01  0.25915776024E+02  0.00000000000E+00 0. -1.
         21    1    1    2  503  502 -0.62057085301E+01  0.23737574663E+02 -0.28505809880E+02  0.37610696167E+02  0.00000000000E+00 0.  1.
          1    1    1    2  501    0  0.26929853128E+02 -0.33401777596E+02  0.53294491708E+02  0.68419285165E+02  0.00000000000E+00 0. -1.
<scales pt_clust_5="13000.00000" pt_clust_6="13000.00000" pt_clust_7="13000.00000" pt_clust_8="13000.00000" pt_clust_9="24.53535" pt_clust_10="42.21150"></scales>
<clustering>
<clus scale="   24.535">  2  9  1 -1</clus>
<clus scale="   42.211">  1 10  2 -1</clus>
<clus scale="   91.329">  5  6 -1 -1</clus>
<clus scale="   93.967">  7  8 -1 -1</clus>
<clus scale="  114.580">  2  5  1 -1</clus>
<clus scale="   42.211">  1  5  2 -1</clus>
</clustering>
</event>
<event>
10    2  0.3984345E-006  0.1172113E+03  0.7546771E-02  0.1247875E+00
         21   -1    0    0  503  502  0.00000000000E+00  0.00000000000E+00  0.10518539265E+03  0.10518539265E+03  0.00000000000E+00 0.  1.
         -3   -1    0    0    0  501 -0.00000000000E+00 -0.00000000000E+00 -0.28963204988E+03  0.28963204988E+03  0.00000000000E+00 0.  1.
         23    2    1    2    0    0  0.32846282109E+01 -0.81711521945E+02 -0.11248977125E+03  0.16674187341E+03  0.91985553820E+02 0.  0.
         23    2    1    2    0    0 -0.33533241815E+02  0.52621332506E+02 -0.30766755887E+02  0.11558152536E+03  0.92298498343E+02 0.  0.
        -11    1    3    3    0    0 -0.22219324530E+02 -0.73590496955E+02 -0.34447070747E+02  0.84236929596E+02  0.00000000000E+00 0. -1.
         11    1    3    3    0    0  0.25503952740E+02 -0.81210249901E+01 -0.78042700500E+02  0.82504943814E+02  0.00000000000E+00 0.  1.
        -13    1    4    4    0    0  0.22285429169E+02  0.10040788547E+02 -0.37810735607E+02  0.45023432954E+02  0.00000000000E+00 0.  1.
         13    1    4    4    0    0 -0.55818670983E+02  0.42580543959E+02  0.70439797201E+01  0.70558092410E+02  0.00000000000E+00 0. -1.
         21    1    1    2  503  501  0.38467840448E+02  0.74627509798E+01 -0.67133411465E+02  0.77732633661E+02  0.00000000000E+00 0.  1.
         -3    1    1    2    0  502 -0.82192268446E+01  0.21627438459E+02  0.25943281361E+02  0.34761410098E+02  0.00000000000E+00 0.  1.
<scales pt_clust_5="13000.00000" pt_clust_6="13000.00000" pt_clust_7="13000.00000" pt_clust_8="13000.00000" pt_clust_9="38.93880" pt_clust_10="23.13659"></scales>
<clustering>
<clus scale="   23.137">  1 10  2 -1</clus>
<clus scale="   38.939">  2  9  1 -1</clus>
<clus scale="   91.986">  5  6 -1 -1</clus>
<clus scale="   92.298">  7  8 -1 -1</clus>
<clus scale="  116.965">  2  5  1 -1</clus>
<clus scale="   23.137">  1  5  2 -1</clus>
</clustering>
</event>
<event>
10    2  0.3984345E-006  0.1320666E+03  0.7546771E-02  0.1229380E+00
          2   -1    0    0  503    0 -0.00000000000E+00  0.00000000000E+00  0.23158317737E+03  0.23158317737E+03  0.00000000000E+00 0. -1.
         21   -1    0    0  501  502  0.00000000000E+00 -0.00000000000E+00 -0.16205000679E+03  0.16205000679E+03  0.00000000000E+00 0.  1.
         23    2    1    2    0    0  0.69449321962E+01 -0.89544398857E+02  0.40914331652E+02  0.14323936026E+03  0.10381281397E+03 0.  0.
         23    2    1    2    0    0  0.36059804640E+02  0.85156625264E+02 -0.47991083997E+01  0.12691342056E+03  0.86787237195E+02 0.  0.
        -11    1    3    3    0    0  0.35298260781E+02  0.74773562499E+01  0.82493973415E+01  0.37012573906E+02  0.00000000000E+00 0.  1.
         11    1    3    3    0    0 -0.28353328585E+02 -0.97021755107E+02  0.32664934311E+02  0.10622678636E+03  0.00000000000E+00 0. -1.
        -11    1    4    4    0    0  0.34145825277E+02  0.55440797161E+02  0.37534347459E+02  0.75156148204E+02  0.00000000000E+00 0. -1.
         11    1    4    4    0    0  0.19139793624E+01  0.29715828104E+02 -0.42333455859E+02  0.51757272357E+02  0.00000000000E+00 0.  1.
         21    1    1    2  503  502  0.14875070188E+02  0.35410077113E+02  0.42389066251E+02  0.57201173169E+02  0.00000000000E+00 0.  1.
          2    1    1    2  501    0 -0.57879807024E+02 -0.31022303521E+02 -0.89711189260E+01  0.66279230168E+02  0.00000000000E+00 0. -1.
<scales pt_clust_5="13000.00000" pt_clust_6="13000.00000" pt_clust_7="13000.00000" pt_clust_8="13000.00000" pt_clust_9="38.40757" pt_clust_10="61.08510"></scales>
<clustering>
<clus scale="   38.408">  1  9  2 -1</clus>
<clus scale="   61.085">  2 10  1 -1</clus>
<clus scale="   86.787">  7  8 -1 -1</clus>
<clus scale="  103.813">  5  6 -1 -1</clus>
<clus scale="  119.149">  2  7  1 -1</clus>
<clus scale="   61.085">  2  5  1 -1</clus>
</clustering>
</event>
<event>
10    2  0.3984345E-006  0.1840087E+03  0.7546771E-02  0.1164306E+00
          4   -1    0    0  503    0 -0.00000000000E+00  0.00000000000E+00  0.47010372672E+03  0.47010372672E+03  0.00000000000E+00 0. -1.
         21   -1    0    0  501  502  0.00000000000E+00 -0.00000000000E+00 -0.32129791596E+03  0.32129791596E+03  0.00000000000E+00 0. -1.
         23    2    1    2    0    0 -0.17787516903E+03 -0.33260452252E+02  0.34628722342E+03  0.40053165006E+03  0.88118829748E+02 0.  0.
         23    2    1    2    0    0  0.14884426901E+03 -0.22431786902E+02 -0.10414317261E+03  0.20439413453E+03  0.90958014201E+02 0.  0.
        -11    1    4    4    0    0  0.25168831483E+02  0.32000134898E+02 -0.22365344191E+02  0.46450913150E+02  0.00000000000E+00 0. -1.
         11    1    4    4    0    0  0.12367543753E+03 -0.54431921799E+02 -0.81777828414E+02  0.15794322138E+03  0.00000000000E+00 0.  1.
        -13    1    3    3    0    0 -0.13984600770E+03  0.91017410005E+01  0.20616207448E+03  0.24928407191E+03  0.00000000000E+00 0.  1.
         13    1    3    3    0    0 -0.38029161332E+02 -0.42362193253E+02  0.14012514895E+03  0.15124757815E+03  0.00000000000E+00 0. -1.
         21    1    1    2  503  502  0.18392689593E+02  0.34609237777E+02  0.37069849598E+02  0.53946863849E+02  0.00000000000E+00 0.  1.
          4    1    1    2  501    0  0.10638210422E+02  0.21083001377E+02 -0.13040808966E+03  0.13252899425E+03  0.00000000000E+00 0. -1.
<scales pt_clust_5="13000.00000" pt_clust_6="13000.00000" pt_clust_7="13000.00000" pt_clust_8="13000.00000" pt_clust_9="40.24252" pt_clust_10="23.61492"></scales>
<clustering>
<clus scale="   23.615">  2 10  1 -1</clus>
<clus scale="   40.243">  1  9  2 -1</clus>
<clus scale="   88.119">  7  8 -1 -1</clus>
<clus scale="   90.958">  5  6 -1 -1</clus>
<clus scale="  182.622">  1  7  2 -1</clus>
<clus scale="   23.615">  2  5  1 -1</clus>
</clustering>
</event>
<event>
10    2  0.3984345E-006  0.9841667E+02  0.7546771E-02  0.1283801E+00
          2   -1    0    0  503    0 -0.00000000000E+00  0.00000000000E+00  0.87633434818E+03  0.87633434818E+03  0.00000000000E+00 0. -1.
         21   -1    0    0  501  502  0.00000000000E+00 -0.00000000000E+00 -0.83526659718E+02  0.83526659718E+02  0.00000000000E+00 0. -1.
         23    2    1    2    0    0  0.26780747186E+02 -0.62476356836E+01  0.56000189992E+03  0.56816446316E+03  0.91937413034E+02 0.  0.
         23    2    1    2    0    0 -0.37640280048E+02 -0.10430779838E+01  0.10168365938E+03  0.14198167186E+03  0.91658877725E+02 0.  0.
        -11    1    4    4    0    0 -0.37138220472E+02 -0.23848985360E+02  0.10934608022E+03  0.11791771191E+03  0.00000000000E+00 0. -1.
         11    1    4    4    0    0 -0.50205957551E+00  0.22805907377E+02 -0.76624208457E+01  0.24063959946E+02  0.00000000000E+00 0.  1.
        -11    1    3    3    0    0  0.15844290583E+02 -0.49169102142E+02  0.30565174222E+03  0.30998649918E+03  0.00000000000E+00 0. -1.
         11    1    3    3    0    0  0.10936456603E+02  0.42921466459E+02  0.25435015769E+03  0.25817796398E+03  0.00000000000E+00 0.  1.
         21    1    1    2  503  502  0.42570643160E+01  0.32925894555E+02  0.18591838762E+03  0.18885942916E+03  0.00000000000E+00 0.  1.
          2    1    1    2  501    0  0.66024685461E+01 -0.25635180887E+02 -0.54796258450E+02  0.60855443718E+02  0.00000000000E+00 0. -1.
<scales pt_clust_5="13000.00000" pt_clust_6="13000.00000" pt_clust_7="13000.00000" pt_clust_8="13000.00000" pt_clust_9="31.79872" pt_clust_10="26.47178"></scales>
<clustering>
<clus scale="   26.472">  2 10  1 -1</clus>
<clus scale="   31.799">  1  9  2 -1</clus>
<clus scale="   91.659">  5  6 -1 -1</clus>
<clus scale="   91.937">  7  8 -1 -1</clus>
<clus scale="   98.157">  2  5  1 -1</clus>
<clus scale="   26.472">  2  5  1 -1</clus>
</clustering>
</event>
<event>
10    2  0.3984345E-006  0.2022141E+03  0.7546771E-02  0.1158713E+00
         -4   -1    0    0    0  501 -0.00000000000E+00  0.00000000000E+00  0.70109451349E+03  0.70109451349E+03  0.00000000000E+00 0.  1.
         21   -1    0    0  503  502  0.00000000000E+00 -0.00000000000E+00 -0.17941150965E+03  0.17941150965E+03  0.00000000000E+00 0.  1.
         23    2    1    2    0    0 -0.12163325523E+03  0.55364007924E+02  0.35534417855E+03  0.39053411040E+03  0.91583754009E+02 0.  0.
         23    2    1    2    0    0  0.11007032272E+03 -0.20092603630E+03  0.87057166663E+02  0.26094934890E+03  0.89603930824E+02 0.  0.
        -11    1    4    4    0    0  0.95168228825E+02 -0.17524080763E+03  0.10589039339E+03  0.22578553507E+03  0.00000000000E+00 0.  1.
         11    1    4    4    0    0  0.14902093891E+02 -0.25685228665E+02 -0.18833226724E+02  0.35163813825E+02  0.00000000000E+00 0. -1.
        -11    1    3    3    0    0 -0.80263428546E+02 -0.12868588055E+02  0.15843651090E+03  0.17807286853E+03  0.00000000000E+00 0. -1.
         11    1    3    3    0    0 -0.41369826689E+02  0.68232595979E+02  0.19690766765E+03  0.21246124186E+03  0.00000000000E+00 0.  1.
         21    1    1    2  503  501  0.37965634923E+01 -0.20229862170E+02  0.58179004042E+02  0.61712703142E+02  0.00000000000E+00 0. -1.
         -4    1    1    2    0  502  0.77663690256E+01  0.16579189054E+03  0.21102654584E+02  0.16730986070E+03  0.00000000000E+00 0.  1.
<scales pt_clust_5="13000.00000" pt_clust_6="13000.00000" pt_clust_7="13000.00000" pt_clust_8="13000.00000" pt_clust_9="20.58303" pt_clust_10="181.27785"></scales>
<clustering>
<clus scale="   20.583">  1  9  2 -1</clus>
<clus scale="   89.604">  5  6 -1 -1</clus>
<clus scale="   91.584">  7  8 -1 -1</clus>
<clus scale="  156.686">  1  7  2 -1</clus>
<clus scale="  181.278">  2 10  1 -1</clus>
<clus scale="  181.278">  2  5  1 -1</clus>
</clustering>
</event>
<event>
10    2  0.3984345E-006  0.9938720E+02  0.7546771E-02  0.1281887E+00
          3   -1    0    0  503    0 -0.00000000000E+00  0.00000000000E+00  0.93763541011E+02  0.93763541011E+02  0.00000000000E+00 0. -1.
         21   -1    0    0  501  502  0.00000000000E+00 -0.00000000000E+00 -0.31883911021E+03  0.31883911021E+03  0.00000000000E+00 0. -1.
         23    2    1    2    0    0 -0.11122652757E+02  0.24295978599E+02  0.66000721746E+01  0.95204820369E+02  0.91139392626E+02 0.  0.
         23    2    1    2    0    0  0.65281708976E+02 -0.38619492085E+02 -0.68825335728E+02  0.13669521776E+03  0.90528940252E+02 0.  0.
        -11    1    3    3    0    0  0.18358084341E+02  0.40887425159E+02 -0.22890126525E+02  0.50326520734E+02  0.00000000000E+00 0. -1.
         11    1    3    3    0    0 -0.29480737098E+02 -0.16591446561E+02  0.29490198700E+02  0.44878299635E+02  0.00000000000E+00 0.  1.
        -13    1    4    4    0    0  0.31792368518E+02 -0.63968819834E+02 -0.61077219474E+02  0.93985059162E+02  0.00000000000E+00 0.  1.
         13    1    4    4    0    0  0.33489340458E+02  0.25349327749E+02 -0.77481162545E+01  0.42710158594E+02  0.00000000000E+00 0. -1.
         21    1    1    2  503  502 -0.23049038617E+02  0.25139542611E+02 -0.35772990023E+02  0.49426324960E+02  0.00000000000E+00 0. -1.
          3    1    1    2  501    0 -0.31110017602E+02 -0.10816029124E+02 -0.12707731562E+03  0.13127628814E+03  0.00000000000E+00 0. -1.
<scales pt_clust_5="13000.00000" pt_clust_6="13000.00000" pt_clust_7="13000.00000" pt_clust_8="13000.00000" pt_clust_9="37.65567" pt_clust_10="32.93660"></scales>
<clustering>
<clus scale="   32.937">  2 10  1 -1</clus>
<clus scale="   37.656">  2  9  1 -1</clus>
<clus scale="   90.529">  7  8 -1 -1</clus>
<clus scale="   91.139">  5  6 -1 -1</clus>
<clus scale="   98.828">  2  7  1 -1</clus>
<clus scale="   32.937">  2  5  1 -1</clus>
</clustering>
</event>
<event>
10    2  0.3984345E-006  0.9795975E+02  0.7546771E-02  0.1284746E+00
         -1   -1    0    0    0  501 -0.00000000000E+00  0.00000000000E+00  0.34296017388E+03  0.34296017388E+03  0.00000000000E+00 0.  1.
         21   -1    0    0  503  502  0.00000000000E+00 -0.00000000000E+00 -0.10108416328E+03  0.10108416328E+03  0.00000000000E+00 0. -1.
         23    2    1    2    0    0 -0.29234046594E+02 -0.51110505989E+01  0.63751274485E+02  0.11584235225E+03  0.92056902277E+02 0.  0.
         23    2    1    2    0    0  0.11890795186E+02 -0.29431810490E+02 -0.80047297673E+01  0.97889483641E+02  0.92253199565E+02 0.  0.
        -11    1    3    3    0    0  0.24474998453E+02  0.25082650226E+02  0.21116458514E+02  0.40915397001E+02  0.00000000000E+00 0.  1.
         11    1    3    3    0    0 -0.53709045046E+02 -0.30193700825E+02  0.42634815971E+02  0.74926955244E+02  0.00000000000E+00 0. -1.
        -11    1    4    4    0    0  0.39715094800E+02 -0.49214200253E+02 -0.23456977783E+01  0.63283714805E+02  0.00000000000E+00 0.  1.
         11    1    4    4    0    0 -0.27824299614E+02  0.19782389762E+02 -0.56590319889E+01  0.34605768836E+02  0.00000000000E+00 0. -1.
         21    1    1    2  503  501 -0.56474357742E+01  0.61334585000E+02  0.18500690699E+03  0.19499071897E+03  0.00000000000E+00 0.  1.
         -1    1    1    2    0  502  0.22990687182E+02 -0.26791723911E+02  0.11225588902E+01  0.35321782312E+02  0.00000000000E+00 0.  1.
<scales pt_clust_5="13000.00000" pt_clust_6="13000.00000" pt_clust_7="13000.00000" pt_clust_8="13000.00000" pt_clust_9="59.89531" pt_clust_10="35.30394"></scales>
<clustering>
<clus scale="   35.304">  2 10  1 -1</clus>
<clus scale="   59.895">  1  9  2 -1</clus>
<clus scale="   92.057">  5  6 -1 -1</clus>
<clus scale="   92.253">  7  8 -1 -1</clus>
<clus scale="   97.775">  1  5  2 -1</clus>
<clus scale="   35.304">  2  5  1 -1</clus>
</clustering>
</event>
<event>
10    2  0.3984345E-006  0.9124299E+02  0.7546771E-02  0.1302348E+00
         -1   -1    0    0    0  501 -0.00000000000E+00  0.00000000000E+00  0.27478086914E+03  0.27478086914E+03  0.00000000000E+00 0.  1.
         21   -1    0    0  503  502  0.00000000000E+00 -0.00000000000E+00 -0.12956214898E+03  0.12956214898E+03  0.00000000000E+00 0.  1.
         23    2    1    2    0    0  0.69531858731E+01  0.34597716781E+01  0.13308141992E+03  0.15897286736E+03  0.86610573344E+02 0.  0.
         23    2    1    2    0    0  0.26928914335E+02  0.71315801276E+01  0.82869026817E+02  0.12597889581E+03  0.90704910129E+02 0.  0.
        -11    1    4    4    0    0  0.11071203843E+02 -0.37057505966E+02  0.11134475911E+02  0.40246824183E+02  0.00000000000E+00 0. -1.
         11    1    4    4    0    0  0.15857710492E+02  0.44189086094E+02  0.71734550906E+02  0.85732071627E+02  0.00000000000E+00 0.  1.
        -13    1    3    3    0    0  0.39803454391E+02 -0.21199589692E+02  0.58943233832E+02  0.74216186908E+02  0.00000000000E+00 0. -1.
         13    1    3    3    0    0 -0.32850268518E+02  0.24659361370E+02  0.74138186091E+02  0.84756680455E+02  0.00000000000E+00 0.  1.
         21    1    1    2  503  501 -0.17020498521E+02  0.10713921272E+02  0.17754607982E+02  0.26827440868E+02  0.00000000000E+00 0. -1.
         -1    1    1    2    0  502 -0.16861601687E+02 -0.21305273077E+02 -0.88486334563E+02  0.92563814079E+02  0.00000000000E+00 0.  1.
<scales pt_clust_5="13000.00000" pt_clust_6="13000.00000" pt_clust_7="13000.00000" pt_clust_8="13000.00000" pt_clust_9="20.11182" pt_clust_10="27.18829"></scales>
<clustering>
<clus scale="   20.112">  1  9  2 -1</clus>
<clus scale="   27.188">  2 10  1 -1</clus>
<clus scale="   86.611">  7  8 -1 -1</clus>
<clus scale="   87.174">  1  7  2 -1</clus>
<clus scale="   90.705">  5  6 -1 -1</clus>
<clus scale="   27.188">  2  5  1 -1</clus>
</clustering>
</event>
<event>
10    2  0.3984345E-006  0.9187938E+02  0.7546771E-02  0.1300063E+00
         21   -1    0    0  501  502  0.00000000000E+00  0.00000000000E+00  0.10942062546E+03  0.10942062546E+03  0.00000000000E+00 0.  1.
          3   -1    0    0  503    0 -0.00000000000E+00 -0.00000000000E+00 -0.14800929745E+03  0.14800929745E+03  0.00000000000E+00 0. -1.
         23    2    1    2    0    0 -0.29054880198E+01 -0.67824555671E+01 -0.23761935325E+02  0.93792854359E+02  0.90432441050E+02 0.  0.
         23    2    1    2    0    0 -0.14155864905E+00 -0.39081276676E+02 -0.19662359444E+02  0.97870733451E+02  0.87548305876E+02 0.  0.
        -11    1    3    3    0    0  0.23480829778E+02  0.19153874026E+02  0.20136006743E+02  0.36382399932E+02  0.00000000000E+00 0. -1.
         11    1    3    3    0    0 -0.26386317797E+02 -0.25936329594E+02 -0.43897942068E+02  0.57410454427E+02  0.00000000000E+00 0.  1.
        -13    1    4    4    0    0  0.37362921408E+02  0.51018636819E+01 -0.45877823225E+01  0.37987690846E+02  0.00000000000E+00 0. -1.
         13    1    4    4    0    0 -0.37504480057E+02 -0.44183140358E+02 -0.15074577121E+02  0.59883042605E+02  0.00000000000E+00 0.  1.
         21    1    1    2  503  502 -0.11164610551E+02  0.30159356620E+02 -0.16118232780E+02  0.35972666685E+02  0.00000000000E+00 0.  1.
          3    1    1    2  501    0  0.14211657220E+02  0.15704375623E+02  0.20953855559E+02  0.29793668412E+02  0.00000000000E+00 0. -1.
<scales pt_clust_5="13000.00000" pt_clust_6="13000.00000" pt_clust_7="13000.00000" pt_clust_8="13000.00000" pt_clust_9="33.39010" pt_clust_10="21.18015"></scales>
<clustering>
<clus scale="   21.180">  1 10  2 -1</clus>
<clus scale="   33.390">  2  9  1 -1</clus>
<clus scale="   87.548">  7  8 -1 -1</clus>
<clus scale="   89.042">  1  7  2 -1</clus>
<clus scale="   90.432">  5  6 -1 -1</clus>
<clus scale="   21.180">  1  5  2 -1</clus>
</clustering>
</event>
<event>
10    2  0.3984345E-006  0.1179489E+03  0.7546771E-02  0.1247621E+00
         21   -1    0    0  501  502  0.00000000000E+00  0.00000000000E+00  0.55772854673E+03  0.55772854673E+03  0.00000000000E+00 0. -1.
          1   -1    0    0  503    0 -0.00000000000E+00 -0.00000000000E+00 -0.65728608863E+02  0.65728608863E+02  0.00000000000E+00 0. -1.
         23    2    1    2    0    0  0.72224067287E+02  0.84694400905E+01  0.20679724964E+02  0.11878445026E+03  0.91619033433E+02 0.  0.
         23    2    1    2    0    0 -0.82623997251E+02  0.79549817248E+01  0.31062168168E+03  0.33341844902E+03  0.88272455298E+02 0.  0.
        -13    1    4    4    0    0 -0.22243492880E+02 -0.44424705469E+01  0.71986768845E+01  0.23797677806E+02  0.00000000000E+00 0.  1.
         13    1    4    4    0    0 -0.60380504371E+02  0.12397452272E+02  0.30342300480E+03  0.30962077122E+03  0.00000000000E+00 0. -1.
        -13    1    3    3    0    0  0.92655992346E+02  0.14925560087E+02  0.24554113948E+02  0.97009328280E+02  0.00000000000E+00 0. -1.
         13    1    3    3    0    0 -0.20431925060E+02 -0.64561199963E+01 -0.38743889847E+01  0.21775121976E+02  0.00000000000E+00 0.  1.
         21    1    1    2  503  502  0.65408767294E+01 -0.36535451339E+02  0.12130187478E+03  0.12685332908E+03  0.00000000000E+00 0. -1.
          1    1    1    2  501    0  0.38590532352E+01  0.20111029523E+02  0.39396656446E+02  0.44400927236E+02  0.00000000000E+00 0. -1.
<scales pt_clust_5="13000.00000" pt_clust_6="13000.00000" pt_clust_7="13000.00000" pt_clust_8="13000.00000" pt_clust_9="32.56605" pt_clust_10="20.47793"></scales>
<clustering>
<clus scale="   20.478">  1 10  2 -1</clus>
<clus scale="   32.566">  1  9  2 -1</clus>
<clus scale="   88.272">  5  6 -1 -1</clus>
<clus scale="   91.619">  7  8 -1 -1</clus>
<clus scale="  115.369">  1  5  2 -1</clus>
<clus scale="   20.478">  1  5  2 -1</clus>
</clustering>
</event>
<event>
10    2  0.3984345E-006  0.1032125E+03  0.7546771E-02  0.1274687E+00
         21   -1    0    0  501  502  0.00000000000E+00  0.00000000000E+00  0.23985822156E+03  0.23985822156E+03  0.00000000000E+00 0. -1.
          1   -1    0    0  503    0 -0.00000000000E+00 -0.00000000000E+00 -0.29588582035E+03  0.29588582035E+03  0.00000000000E+00 0. -1.
         23    2    1    2    0    0 -0.21919229070E+02  0.41052150105E+02 -0.20229730317E+03  0.22654076619E+03  0.90723691738E+02 0.  0.
         23    2    1    2    0    0 -0.67442571460E+01 -0.46616239586E+02 -0.39373186010E+02  0.11136986742E+03  0.92921691740E+02 0.  0.
        -11    1    3    3    0    0  0.22667476098E+02  0.38123464907E+02 -0.15606325578E+03  0.16224349864E+03  0.00000000000E+00 0.  1.
         11    1    3    3    0    0 -0.44586705168E+02  0.29286851977E+01 -0.46234047396E+02  0.64297267542E+02  0.00000000000E+00 0. -1.
        -13    1    4    4    0    0  0.35733799059E+02 -0.14502276588E+02  0.88071242345E+01  0.39557374265E+02  0.00000000000E+00 0.  1.
         13    1    4    4    0    0 -0.42478056205E+02 -0.32113962998E+02 -0.48180310244E+02  0.71812493159E+02  0.00000000000E+00 0. -1.
         21    1    1    2  503  502  0.12865439923E+02  0.19729400303E+02  0.20181780293E+02  0.31017302212E+02  0.00000000000E+00 0.  1.
          1    1    1    2  501    0  0.15798046293E+02 -0.14165310822E+02  0.16546111009E+03  0.16681610609E+03  0.00000000000E+00 0. -1.
<scales pt_clust_5="13000.00000" pt_clust_6="13000.00000" pt_clust_7="13000.00000" pt_clust_8="13000.00000" pt_clust_9="23.58225" pt_clust_10="21.21873"></scales>
<clustering>
<clus scale="   21.219">  1 10  2 -1</clus>
<clus scale="   23.582">  1  9  2 -1</clus>
<clus scale="   90.724">  5  6 -1 -1</clus>
<clus scale="   92.922">  7  8 -1 -1</clus>
<clus scale="  101.238">  2  5  1 -1</clus>
<clus scale="   21.219">  1  5  2 -1</clus>
</clustering>
</event>
<event>
10    2  0.3984345E-006  0.9781370E+02  0.7546771E-02  0.1285557E+00
          1   -1    0    0  503    0 -0.00000000000E+00  0.00000000000E+00  0.27488474827E+03  0.27488474827E+03  0.00000000000E+00 0. -1.
         21   -1    0    0  501  502  0.00000000000E+00 -0.00000000000E+00 -0.11181872062E+03  0.11181872062E+03  0.00000000000E+00 0.  1.
         23    2    1    2    0    0 -0.20248883556E+02  0.95082808376E+01  0.13397284516E+03  0.16435971105E+03  0.92547105233E+02 0.  0.
         23    2    1    2    0    0 -0.47081576982E+02 -0.58960546703E+01 -0.69520062511E+01  0.10320914242E+03  0.91391237740E+02 0.  0.
        -11    1    4    4    0    0  0.20186014605E+02  0.19166287249E+02 -0.13855230043E+02  0.31093233220E+02  0.00000000000E+00 0. -1.
         11    1    4    4    0    0 -0.67267591587E+02 -0.25062341919E+02  0.69032237922E+01  0.72115909196E+02  0.00000000000E+00 0.  1.
        -13    1    3    3    0    0 -0.33041775883E+02  0.44866817501E+02  0.63485557494E+02  0.84470150209E+02  0.00000000000E+00 0.  1.
         13    1    3    3    0    0  0.12792892326E+02 -0.35358536663E+02  0.70487287669E+02  0.79889560844E+02  0.00000000000E+00 0. -1.
         21    1    1    2  503  502  0.61678409494E+02  0.17546200576E+02  0.59192567311E+02  0.87268868317E+02  0.00000000000E+00 0. -1.
          1    1    1    2  501    0  0.56520510444E+01 -0.21158426743E+02 -0.23147378579E+02  0.31865747101E+02  0.00000000000E+00 0. -1.
<scales pt_clust_5="13000.00000" pt_clust_6="13000.00000" pt_clust_7="13000.00000" pt_clust_8="13000.00000" pt_clust_9="64.17050" pt_clust_10="21.90034"></scales>
<clustering>
<clus scale="   21.900">  2 10  1 -1</clus>
<clus scale="   64.170">  1  9  2 -1</clus>
<clus scale="   91.391">  5  6 -1 -1</clus>
<clus scale="   92.547">  7  8 -1 -1</clus>
<clus scale="   96.721">  2  5  1 -1</clus>
<clus scale="   21.900">  2  5  1 -1</clus>
</clustering>
</event>
<event>
10    2  0.3984345E-006  0.3066181E+03  0.7546771E-02  0.1082374E+00
         21   -1    0    0  501  502  0.00000000000E+00  0.00000000000E+00  0.17233995779E+03  0.17233995779E+03  0.00000000000E+00 0. -1.
          1   -1    0    0  503    0 -0.00000000000E+00 -0.00000000000E+00 -0.94050762620E+03  0.94050762620E+03  0.00000000000E+00 0. -1.
         23    2    1    2    0    0 -0.91037736180E+02 -0.29295132649E+03 -0.68189152791E+03  0.75449696950E+03  0.10090228958E+03 0.  0.
         23    2    1    2    0    0  0.71821834246E+02  0.26569788325E+03 -0.78560479481E+02  0.30022133545E+03  0.90594482658E+02 0.  0.
        -11    1    3    3    0    0 -0.73705063079E+02 -0.17750375186E+03 -0.31032621093E+03  0.36502380119E+03  0.00000000000E+00 0.  1.
         11    1    3    3    0    0 -0.17332673102E+02 -0.11544757463E+03 -0.37156531699E+03  0.38947316831E+03  0.00000000000E+00 0. -1.
        -11    1    4    4    0    0  0.22828767508E+02  0.14974090095E+02  0.11109332166E+02  0.29475299172E+02  0.00000000000E+00 0.  1.
         11    1    4    4    0    0  0.48993066738E+02  0.25072379315E+03 -0.89669811647E+02  0.27074603628E+03  0.00000000000E+00 0. -1.
         21    1    1    2  503  502 -0.47286980680E+01  0.19844282119E+02 -0.21405694998E+02  0.29569577214E+02  0.00000000000E+00 0.  1.
          1    1    1    2  501    0  0.23944600003E+02  0.74091611271E+01  0.13690033980E+02  0.28559701824E+02  0.00000000000E+00 0. -1.
<scales pt_clust_5="13000.00000" pt_clust_6="13000.00000" pt_clust_7="13000.00000" pt_clust_8="13000.00000" pt_clust_9="20.39990" pt_clust_10="25.07621"></scales>
<clustering>
<clus scale="   20.400">  2  9  1 -1</clus>
<clus scale="   25.076">  1 10  2 -1</clus>
<clus scale="   90.594">  7  8 -1 -1</clus>
<clus scale="  100.902">  5  6 -1 -1</clus>
<clus scale="  303.382">  1  7  2 -1</clus>
<clus scale="   25.076">  1  5  2 -1</clus>
</clustering>
</event>
<event>
10    2  0.3984345E-006  0.9548981E+02  0.7546771E-02  0.1290752E+00
         21   -1    0    0  501  502  0.00000000000E+00  0.00000000000E+00  0.89432222270E+02  0.89432222270E+02  0.00000000000E+00 0.  1.
          4   -1    0    0  503    0 -0.00000000000E+00 -0.00000000000E+00 -0.33745639688E+03  0.33745639688E+03  0.00000000000E+00 0. -1.
         23    2    1    2    0    0  0.19698253572E+02 -0.91831971882E+01 -0.28798212299E+02  0.97867048416E+02  0.90974006340E+02 0.  0.
         23    2    1    2    0    0 -0.12018752922E+01  0.39590732511E+02 -0.16112910062E+02  0.10164864052E+03  0.92216862034E+02 0.  0.
        -11    1    3    3    0    0 -0.21791369336E+02  0.28155431192E+02 -0.12582391625E+01  0.35625485946E+02  0.00000000000E+00 0.  1.
         11    1    3    3    0    0  0.41489622908E+02 -0.37338628380E+02 -0.27539973136E+02  0.62241562470E+02  0.00000000000E+00 0. -1.
        -11    1    4    4    0    0 -0.30683597079E+02  0.48404863204E+02 -0.33421185482E+02  0.66343722767E+02  0.00000000000E+00 0. -1.
         11    1    4    4    0    0  0.29481721787E+02 -0.88141306929E+01  0.17308275420E+02  0.35304917751E+02  0.00000000000E+00 0.  1.
         21    1    1    2  503  502  0.11296506366E+02  0.18502147500E+02 -0.14190201177E+03  0.14354832449E+03  0.00000000000E+00 0.  1.
          4    1    1    2  501    0 -0.29792884647E+02 -0.48909682824E+02 -0.61211040476E+02  0.83824605729E+02  0.00000000000E+00 0. -1.
<scales pt_clust_5="13000.00000" pt_clust_6="13000.00000" pt_clust_7="13000.00000" pt_clust_8="13000.00000" pt_clust_9="21.67811" pt_clust_10="49.19641"></scales>
<clustering>
<clus scale="   21.678">  2  9  1 -1</clus>
<clus scale="   49.196">  1 10  2 -1</clus>
<clus scale="   90.974">  5  6 -1 -1</clus>
<clus scale="   92.217">  7  8 -1 -1</clus>
<clus scale="   94.290">  2  5  1 -1</clus>
<clus scale="   49.196">  1  5  2 -1</clus>
</clustering>
</event>
<event>
10    2  0.3984345E-006  0.1535749E+03  0.7546771E-02  0.1196387E+00
          2   -1    0    0  503    0 -0.00000000000E+00  0.00000000000E+00  0.12058204514E+04  0.12058204514E+04  0.00000000000E+00 0. -1.
         21   -1    0    0  501  502  0.00000000000E+00 -0.00000000000E+00 -0.43881067023E+02  0.43881067023E+02  0.00000000000E+00 0. -1.
         23    2    1    2    0    0 -0.77070315941E+02 -0.75120065322E+02  0.64432995445E+03  0.65948982932E+03  0.90459311113E+02 0.  0.
         23    2    1    2    0    0  0.13461364937E+03  0.89882051390E+02  0.45908423500E+03  0.49536473230E+03  0.91805584883E+02 0.  0.
        -11    1    4    4    0    0  0.87865011146E+02  0.62811015354E+02  0.17095799770E+03  0.20221800318E+03  0.00000000000E+00 0. -1.
         11    1    4    4    0    0  0.46748638226E+02  0.27071036036E+02  0.28812623730E+03  0.29314672911E+03  0.00000000000E+00 0.  1.
        -11    1    3    3    0    0 -0.27994148182E+02  0.19168025402E+02  0.17719851680E+03  0.18041729375E+03  0.00000000000E+00 0.  1.
         11    1    3    3    0    0 -0.49076167759E+02 -0.94288090724E+02  0.46713143765E+03  0.47907253557E+03  0.00000000000E+00 0. -1.
         21    1    1    2  503  502 -0.22480781603E+02  0.97967502882E+01  0.42636199481E+02  0.49185438535E+02  0.00000000000E+00 0. -1.
          2    1    1    2  501    0 -0.35062551829E+02 -0.24558736356E+02  0.15888995408E+02  0.45661518232E+02  0.00000000000E+00 0. -1.
<scales pt_clust_5="13000.00000" pt_clust_6="13000.00000" pt_clust_7="13000.00000" pt_clust_8="13000.00000" pt_clust_9="24.52268" pt_clust_10="48.11299"></scales>
<clustering>
<clus scale="   24.523">  2  9  1 -1</clus>
<clus scale="   48.113">  2 10  1 -1</clus>
<clus scale="   90.459">  7  8 -1 -1</clus>
<clus scale="   91.806">  5  6 -1 -1</clus>
<clus scale="  152.774">  1  7  2 -1</clus>
<clus scale="   24.523">  2  5  1 -1</clus>
</clustering>
</event>
<event>
10    2  0.3984345E-006  0.1008131E+03  0.7546771E-02  0.1280685E+00
         21   -1    0    0  501  502  0.00000000000E+00  0.00000000000E+00  0.93480414683E+03  0.93480414683E+03  0.00000000000E+00 0. -1.
          4   -1    0    0  503    0 -0.00000000000E+00 -0.00000000000E+00 -0.44459644170E+02  0.44459644170E+02  0.00000000000E+00 0. -1.
         23    2    1    2    0    0 -0.36476759699E+02  0.68839718311E+02  0.19533088679E+03  0.23085408611E+03  0.95236510447E+02 0.  0.
         23    2    1    2    0    0  0.87672554005E+01  0.26561278045E+02  0.24584942533E+03  0.26366069568E+03  0.91064022823E+02 0.  0.
        -11    1    4    4    0    0 -0.25507822622E+02 -0.82712093809E+01  0.22430567501E+02  0.34959866675E+02  0.00000000000E+00 0.  1.
         11    1    4    4    0    0  0.34275078022E+02  0.34832487426E+02  0.22341885783E+03  0.22870082901E+03  0.00000000000E+00 0. -1.
        -13    1    3    3    0    0  0.20936972317E+02 -0.11230747132E+02  0.28533947686E+02  0.37130481569E+02  0.00000000000E+00 0.  1.
         13    1    3    3    0    0 -0.57413732016E+02  0.80070465443E+02  0.16679693911E+03  0.19372360454E+03  0.00000000000E+00 0. -1.
         21    1    1    2  503  502 -0.13339918807E+02 -0.33637895101E+02  0.75684957137E+01  0.36969494830E+02  0.00000000000E+00 0.  1.
          4    1    1    2  501    0  0.41049423106E+02 -0.61763101254E+02  0.44159569482E+03  0.44777951438E+03  0.00000000000E+00 0. -1.
<scales pt_clust_5="13000.00000" pt_clust_6="13000.00000" pt_clust_7="13000.00000" pt_clust_8="13000.00000" pt_clust_9="36.18648" pt_clust_10="76.36619"></scales>
<clustering>
<clus scale="   36.186">  2  9  1 -1</clus>
<clus scale="   76.366">  1 10  2 -1</clus>
<clus scale="   91.064">  5  6 -1 -1</clus>
<clus scale="   95.237">  7  8 -1 -1</clus>
<clus scale="   96.881">  1  5  2 -1</clus>
<clus scale="   76.366">  1  5  2 -1</clus>
</clustering>
</event>
<event>
10    2  0.3984345E-006  0.1094477E+03  0.7546771E-02  0.1263981E+00
         21   -1    0    0  501  502  0.00000000000E+00  0.00000000000E+00  0.14770264557E+03  0.14770264557E+03  0.00000000000E+00 0. -1.
          1   -1    0    0  503    0 -0.00000000000E+00 -0.00000000000E+00 -0.39414100213E+03  0.39414100213E+03  0.00000000000E+00 0. -1.
         23    2    1    2    0    0 -0.43280175162E+02  0.17769103978E+02 -0.12916411872E+03  0.16631418361E+03  0.93744991796E+02 0.  0.
         23    2    1    2    0    0  0.36283033907E+02 -0.62202393249E+02 -0.12450778285E+03  0.16854777828E+03  0.87866770161E+02 0.  0.
        -11    1    4    4    0    0  0.79449361516E+01 -0.73122488451E+02 -0.11539072482E+03  0.13683946690E+03  0.00000000000E+00 0. -1.
         11    1    4    4    0    0  0.28338097755E+02  0.10920095201E+02 -0.91170580328E+01  0.31708311383E+02  0.00000000000E+00 0.  1.
        -13    1    3    3    0    0 -0.35467078522E+02  0.51125501072E+02 -0.49214280311E+02  0.79333321531E+02  0.00000000000E+00 0.  1.
         13    1    3    3    0    0 -0.78130966399E+01 -0.33356397093E+02 -0.79949838411E+02  0.86980862080E+02  0.00000000000E+00 0. -1.
         21    1    1    2  503  502 -0.10125012393E+02  0.19028738687E+02 -0.96469410860E+02  0.98848146183E+02  0.00000000000E+00 0. -1.
          1    1    1    2  501    0  0.17122153648E+02  0.25404550584E+02  0.10370295587E+03  0.10813353962E+03  0.00000000000E+00 0. -1.
<scales pt_clust_5="13000.00000" pt_clust_6="13000.00000" pt_clust_7="13000.00000" pt_clust_8="13000.00000" pt_clust_9="21.55479" pt_clust_10="30.71187"></scales>
<clustering>
<clus scale="   21.555">  2  9  1 -1</clus>
<clus scale="   30.712">  1 10  2 -1</clus>
<clus scale="   87.867">  5  6 -1 -1</clus>
<clus scale="   93.745">  7  8 -1 -1</clus>
<clus scale="  104.457">  1  5  2 -1</clus>
<clus scale="   30.712">  1  5  2 -1</clus>
</clustering>
</event>
<event>
10    2  0.3984345E-006  0.1246704E+03  0.7546771E-02  0.1235827E+00
          1   -1    0    0  503    0 -0.00000000000E+00  0.00000000000E+00  0.10100189133E+03  0.10100189133E+03  0.00000000000E+00 0. -1.
         21   -1    0    0  501  502  0.00000000000E+00 -0.00000000000E+00 -0.11994108833E+04  0.11994108833E+04  0.00000000000E+00 0.  1.
         23    2    1    2    0    0 -0.43985887462E+02 -0.45241375898E+02 -0.39236262526E+02  0.11705605001E+03  0.90449401087E+02 0.  0.
         23    2    1    2    0    0  0.11400278888E+03  0.53001293823E+02 -0.87060732918E+02  0.17809957036E+03  0.91291361723E+02 0.  0.
        -11    1    4    4    0    0  0.82558599166E+02 -0.10535165112E+02 -0.58198582583E+02  0.10155780135E+03  0.00000000000E+00 0. -1.
         11    1    4    4    0    0  0.31444189718E+02  0.63536458935E+02 -0.28862150335E+02  0.76541769009E+02  0.00000000000E+00 0.  1.
        -11    1    3    3    0    0 -0.39495116529E+02 -0.72286747844E+02 -0.24542584522E+02  0.85951012784E+02  0.00000000000E+00 0. -1.
         11    1    3    3    0    0 -0.44907709329E+01  0.27045371946E+02 -0.14693678005E+02  0.31105037222E+02  0.00000000000E+00 0.  1.
         21    1    1    2  503  502 -0.15002784563E+03 -0.56518197260E+02 -0.55115865547E+03  0.57400219911E+03  0.00000000000E+00 0.  1.
          1    1    1    2  501    0  0.80010944211E+02  0.48758279335E+02 -0.42095334105E+03  0.43125495515E+03  0.00000000000E+00 0. -1.
<scales pt_clust_5="13000.00000" pt_clust_6="13000.00000" pt_clust_7="13000.00000" pt_clust_8="13000.00000" pt_clust_9="94.20113" pt_clust_10="93.69696"></scales>
<clustering>
<clus scale="   90.449">  7  8 -1 -1</clus>
<clus scale="   91.291">  5  6 -1 -1</clus>
<clus scale="   93.697">  2 10  1 -1</clus>
<clus scale="   94.201">  2  9  1 -1</clus>
<clus scale="  124.055">  1  7  2 -1</clus>
<clus scale="   93.697">  2  5  1 -1</clus>
</clustering>
</event>
<event>
10    2  0.3984345E-006  0.9710299E+02  0.7546771E-02  0.1288159E+00
         21   -1    0    0  501  502  0.00000000000E+00  0.00000000000E+00  0.52939644214E+02  0.52939644214E+02  0.00000000000E+00 0.  1.
          1   -1    0    0  503    0 -0.00000000000E+00 -0.00000000000E+00 -0.47131460279E+03  0.47131460279E+03  0.00000000000E+00 0. -1.
         23    2    1    2    0    0  0.12516903277E+02 -0.12565766582E+02 -0.26971037574E+03  0.28526681934E+03  0.91208004451E+02 0.  0.
         23    2    1    2    0    0 -0.13775011467E+02  0.15823835093E+02 -0.93346223359E+02  0.13431320930E+03  0.94267577030E+02 0.  0.
        -11    1    3    3    0    0  0.49649205684E+02  0.91405464629E+00 -0.10909613349E+03  0.11986594789E+03  0.00000000000E+00 0. -1.
         11    1    3    3    0    0 -0.37132302407E+02 -0.13479821228E+02 -0.16061424225E+03  0.16540087145E+03  0.00000000000E+00 0.  1.
        -13    1    4    4    0    0 -0.45629583047E+02 -0.64640853178E+01 -0.17900363205E+02  0.49439521144E+02  0.00000000000E+00 0.  1.
         13    1    4    4    0    0  0.31854571581E+02  0.22287920411E+02 -0.75445860154E+02  0.84873688156E+02  0.00000000000E+00 0. -1.
         21    1    1    2  503  502 -0.12889576126E+02 -0.21580300698E+02 -0.71921053035E+02  0.76187193285E+02  0.00000000000E+00 0. -1.
          1    1    1    2  501    0  0.14147684315E+02  0.18322232187E+02  0.16602693567E+02  0.28487025073E+02  0.00000000000E+00 0. -1.
<scales pt_clust_5="13000.00000" pt_clust_6="13000.00000" pt_clust_7="13000.00000" pt_clust_8="13000.00000" pt_clust_9="23.52439" pt_clust_10="23.14868"></scales>
<clustering>
<clus scale="   23.149">  1 10  2 -1</clus>
<clus scale="   23.524">  2  9  1 -1</clus>
<clus scale="   91.208">  5  6 -1 -1</clus>
<clus scale="   94.136">  2  5  1 -1</clus>
<clus scale="   94.268">  7  8 -1 -1</clus>
<clus scale="   23.149">  1  5  2 -1</clus>
</clustering>
</event>
<event>
10    2  0.3984345E-006  0.3296002E+03  0.7546771E-02  0.1071501E+00
         21   -1    0    0  501  502  0.00000000000E+00  0.00000000000E+00  0.82184455161E+02  0.82184455161E+02  0.00000000000E+00 0. -1.
          2   -1    0    0  503    0 -0.00000000000E+00 -0.00000000000E+00 -0.17479813235E+04  0.17479813235E+04  0.00000000000E+00 0. -1.
         23    2    1    2    0    0 -0.23647464188E+03 -0.21963707412E+03 -0.10058797706E+04  0.10610292910E+04  0.99137999216E+02 0.  0.
         23    2    1    2    0    0  0.21843699035E+03  0.20360065943E+03 -0.49006424792E+03  0.58142375271E+03  0.93395213202E+02 0.  0.
        -13    1    3    3    0    0 -0.15692847652E+03 -0.14102247888E+03 -0.49564912582E+03  0.53868538333E+03  0.00000000000E+00 0. -1.
         13    1    3    3    0    0 -0.79546165362E+02 -0.78614595238E+02 -0.51023064477E+03  0.52234390766E+03  0.00000000000E+00 0.  1.
        -13    1    4    4    0    0  0.11951572479E+03  0.10563860690E+03 -0.17396296699E+03  0.23602253626E+03  0.00000000000E+00 0. -1.
         13    1    4    4    0    0  0.98921265565E+02  0.97962052526E+02 -0.31610128093E+03  0.34540121644E+03  0.00000000000E+00 0.  1.
         21    1    1    2  503  502 -0.20485709020E+02  0.17453980496E+02 -0.12805363012E+03  0.13085120518E+03  0.00000000000E+00 0. -1.
          2    1    1    2  501    0  0.38523360548E+02 -0.14175658072E+01 -0.41799219704E+02  0.56861529777E+02  0.00000000000E+00 0. -1.
<scales pt_clust_5="13000.00000" pt_clust_6="13000.00000" pt_clust_7="13000.00000" pt_clust_8="13000.00000" pt_clust_9="26.91293" pt_clust_10="37.90933"></scales>
<clustering>
<clus scale="   26.913">  2  9  1 -1</clus>
<clus scale="   37.909">  1 10  2 -1</clus>
<clus scale="   93.395">  7  8 -1 -1</clus>
<clus scale="   99.138">  5  6 -1 -1</clus>
<clus scale="  327.919">  1  7  2 -1</clus>
<clus scale="   37.909">  1  5  2 -1</clus>
</clustering>
</event>
<event>
10    2  0.3984345E-006  0.1058701E+03  0.7546771E-02  0.1268982E+00
         21   -1    0    0  501  502  0.00000000000E+00  0.00000000000E+00  0.82607073665E+02  0.82607073665E+02  0.00000000000E+00 0.  1.
          3   -1    0    0  503    0 -0.00000000000E+00 -0.00000000000E+00 -0.27338041286E+03  0.27338041286E+03  0.00000000000E+00 0. -1.
         23    2    1    2    0    0  0.10432327769E+02 -0.50338848977E+02 -0.10438209708E+03  0.14865536979E+03  0.92520071325E+02 0.  0.
         23    2    1    2    0    0 -0.18527760140E+02  0.43669648106E+02 -0.54826448210E+02  0.11650182328E+03  0.91194404124E+02 0.  0.
        -11    1    3    3    0    0 -0.20852417542E+02 -0.46494750695E+02 -0.10545074641E+03  0.11711722793E+03  0.00000000000E+00 0. -1.
         11    1    3    3    0    0  0.31284745311E+02 -0.38440982822E+01  0.10686493285E+01  0.31538141863E+02  0.00000000000E+00 0.  1.
        -13    1    4    4    0    0  0.36095164584E+02  0.25697015049E+02 -0.31897505257E+02  0.54595314180E+02  0.00000000000E+00 0.  1.
         13    1    4    4    0    0 -0.54622924724E+02  0.17972633058E+02 -0.22928942952E+02  0.61906509104E+02  0.00000000000E+00 0. -1.
         21    1    1    2  503  502  0.22143264410E+02 -0.90985320800E+01 -0.54577175616E+02  0.59596774602E+02  0.00000000000E+00 0. -1.
          3    1    1    2  501    0 -0.14047832039E+02  0.15767732951E+02  0.23012381713E+02  0.31233518846E+02  0.00000000000E+00 0. -1.
<scales pt_clust_5="13000.00000" pt_clust_6="13000.00000" pt_clust_7="13000.00000" pt_clust_8="13000.00000" pt_clust_9="23.08461" pt_clust_10="21.11784"></scales>
<clustering>
<clus scale="   21.118">  1 10  2 -1</clus>
<clus scale="   23.085">  2  9  1 -1</clus>
<clus scale="   91.194">  7  8 -1 -1</clus>
<clus scale="   92.520">  5  6 -1 -1</clus>
<clus scale="  104.714">  1  7  2 -1</clus>
<clus scale="   21.118">  1  5  2 -1</clus>
</clustering>
</event>
<event>
10    2  0.3984345E-006  0.1223897E+03  0.7546771E-02  0.1239708E+00
         -1   -1    0    0    0  501 -0.00000000000E+00  0.00000000000E+00  0.17049260636E+03  0.17049260636E+03  0.00000000000E+00 0.  1.
         21   -1    0    0  503  502  0.00000000000E+00 -0.00000000000E+00 -0.22755897754E+03  0.22755897754E+03  0.00000000000E+00 0. -1.
         23    2    1    2    0    0  0.49876771389E+02 -0.77946462601E+02  0.56359666974E+02  0.14241360957E+03  0.92422295868E+02 0.  0.
         23    2    1    2    0    0 -0.29870867236E+02  0.76068635551E+02 -0.67460918171E+02  0.13953070530E+03  0.90769687758E+02 0.  0.
        -13    1    4    4    0    0 -0.50573197745E+02  0.16059738560E+02 -0.51786763512E+02  0.74144672147E+02  0.00000000000E+00 0.  1.
         13    1    4    4    0    0  0.20702330509E+02  0.60008896991E+02 -0.15674154659E+02  0.65386033149E+02  0.00000000000E+00 0. -1.
        -13    1    3    3    0    0 -0.18340117517E+02 -0.49320662152E+02  0.41358480079E+02  0.66928405778E+02  0.00000000000E+00 0.  1.
         13    1    3    3    0    0  0.68216888906E+02 -0.28625800449E+02  0.15001186895E+02  0.75485203793E+02  0.00000000000E+00 0. -1.
         21    1    1    2  503  501 -0.26022537011E+01  0.21596472694E+02  0.29235443480E+02  0.36440232060E+02  0.00000000000E+00 0.  1.
         -1    1    1    2    0  502 -0.17403650452E+02 -0.19718645645E+02 -0.75200563457E+02  0.79667036968E+02  0.00000000000E+00 0.  1.
<scales pt_clust_5="13000.00000" pt_clust_6="13000.00000" pt_clust_7="13000.00000" pt_clust_8="13000.00000" pt_clust_9="21.75269" pt_clust_10="26.06700"></scales>
<clustering>
<clus scale="   21.753">  1  9  2 -1</clus>
<clus scale="   26.067">  2 10  1 -1</clus>
<clus scale="   90.770">  5  6 -1 -1</clus>
<clus scale="   92.422">  7  8 -1 -1</clus>
<clus scale="  121.147">  2  5  1 -1</clus>
<clus scale="   26.067">  2  5  1 -1</clus>
</clustering>
</event>
<event>
10    2  0.3984345E-006  0.1208619E+03  0.7546771E-02  0.1242076E+00
          1   -1    0    0  503    0 -0.00000000000E+00  0.00000000000E+00  0.27058491617E+03  0.27058491617E+03  0.00000000000E+00 0. -1.
         21   -1    0    0  501  502  0.00000000000E+00 -0.00000000000E+00 -0.16512674876E+03  0.16512674876E+03  0.00000000000E+00 0.  1.
         23    2    1    2    0    0  0.42444637350E+02 -0.55855056306E+02  0.54801052633E+02  0.12599744519E+03  0.89167630172E+02 0.  0.
         23    2    1    2    0    0 -0.79545751789E+02  0.21862440229E+02 -0.58648877346E+02  0.13403179229E+03  0.87859761036E+02 0.  0.
        -11    1    3    3    0    0  0.17631516840E+02 -0.71701283515E+02  0.13161837461E+02  0.75001189384E+02  0.00000000000E+00 0.  1.
         11    1    3    3    0    0  0.24813120510E+02  0.15846227209E+02  0.41639215172E+02  0.50996255807E+02  0.00000000000E+00 0. -1.
        -13    1    4    4    0    0 -0.44538822691E+02  0.51677999042E+02 -0.55490237576E+02  0.87940256868E+02  0.00000000000E+00 0. -1.
         13    1    4    4    0    0 -0.35006929098E+02 -0.29815558812E+02 -0.31586397695E+01  0.46091535420E+02  0.00000000000E+00 0.  1.
         21    1    1    2  503  502  0.46669735682E+02  0.12223366519E+02  0.13338451485E+03  0.14184112140E+03  0.00000000000E+00 0. -1.
          1    1    1    2  501    0 -0.95686212420E+01  0.21769249557E+02 -0.24078522731E+02  0.33841306058E+02  0.00000000000E+00 0. -1.
<scales pt_clust_5="13000.00000" pt_clust_6="13000.00000" pt_clust_7="13000.00000" pt_clust_8="13000.00000" pt_clust_9="48.13327" pt_clust_10="23.77938"></scales>
<clustering>
<clus scale="   23.779">  2 10  1 -1</clus>
<clus scale="   48.133">  1  9  2 -1</clus>
<clus scale="   87.860">  7  8 -1 -1</clus>
<clus scale="   89.168">  5  6 -1 -1</clus>
<clus scale="  119.900">  2  7  1 -1</clus>
<clus scale="   23.779">  2  5  1 -1</clus>
</clustering>
</event>
<event>
10    2  0.3984345E-006  0.1095947E+03  0.7546771E-02  0.1261599E+00
         21   -1    0    0  501  502  0.00000000000E+00  0.00000000000E+00  0.13235308643E+03  0.13235308643E+03  0.00000000000E+00 0. -1.
          2   -1    0    0  503    0 -0.00000000000E+00 -0.00000000000E+00 -0.23521087567E+03  0.23521087567E+03  0.00000000000E+00 0. -1.
         23    2    1    2    0    0 -0.53931834483E+02 -0.87690695592E+02 -0.62085441562E+02  0.15078478370E+03  0.91011801856E+02 0.  0.
         23    2    1    2    0    0  0.21825574111E+02  0.18515592262E+02 -0.12315685989E+02  0.95520505570E+02  0.90295670001E+02 0.  0.
        -11    1    4    4    0    0  0.40065411260E+02 -0.19711311437E+02  0.12580346081E+02  0.46390064513E+02  0.00000000000E+00 0.  1.
         11    1    4    4    0    0 -0.18239837149E+02  0.38226903699E+02 -0.24896032070E+02  0.49130441057E+02  0.00000000000E+00 0. -1.
        -11    1    3    3    0    0 -0.99716421982E+01 -0.55844218430E+02  0.12936185179E+02  0.58183805884E+02  0.00000000000E+00 0.  1.
         11    1    3    3    0    0 -0.43960192285E+02 -0.31846477162E+02 -0.75021626741E+02  0.92600977815E+02  0.00000000000E+00 0. -1.
         21    1    1    2  503  502  0.17083892773E+02  0.38070650104E+02 -0.60929898737E+02  0.73849078205E+02  0.00000000000E+00 0. -1.
          2    1    1    2  501    0  0.15022367599E+02  0.31104453225E+02  0.32473237044E+02  0.47409594628E+02  0.00000000000E+00 0. -1.
<scales pt_clust_5="13000.00000" pt_clust_6="13000.00000" pt_clust_7="13000.00000" pt_clust_8="13000.00000" pt_clust_9="44.14169" pt_clust_10="34.54213"></scales>
<clustering>
<clus scale="   34.542">  1 10  2 -1</clus>
<clus scale="   44.142">  2  9  1 -1</clus>
<clus scale="   90.296">  5  6 -1 -1</clus>
<clus scale="   91.012">  7  8 -1 -1</clus>
<clus scale="  109.001">  1  5  2 -1</clus>
<clus scale="   34.542">  1  5  2 -1</clus>
</clustering>
</event>
<event>
10    2  0.3984345E-006  0.1133555E+03  0.7546771E-02  0.1255155E+00
          2   -1    0    0  503    0 -0.00000000000E+00  0.00000000000E+00  0.76184596906E+03  0.76184596906E+03  0.00000000000E+00 0. -1.
         21   -1    0    0  501  502  0.00000000000E+00 -0.00000000000E+00 -0.12967175758E+03  0.12967175758E+03  0.00000000000E+00 0. -1.
         23    2    1    2    0    0 -0.12036972725E+02  0.69261733773E+02  0.24980474096E+03  0.27549265072E+03  0.92475486036E+02 0.  0.
         23    2    1    2    0    0  0.53929931996E+02 -0.50479554749E+02  0.23918412935E+03  0.26622904505E+03  0.90621375407E+02 0.  0.
        -11    1    3    3    0    0  0.25160674854E+02 -0.38283547690E+01  0.11433002162E+03  0.11712843251E+03  0.00000000000E+00 0.  1.
         11    1    3    3    0    0 -0.37197647579E+02  0.73090088542E+02  0.13547471934E+03  0.15836421821E+03  0.00000000000E+00 0. -1.
        -13    1    4    4    0    0  0.73446991103E+02 -0.35827954894E+02  0.22149105536E+03  0.23608555749E+03  0.00000000000E+00 0. -1.
         13    1    4    4    0    0 -0.19517059108E+02 -0.14651599855E+02  0.17693073994E+02  0.30143487554E+02  0.00000000000E+00 0.  1.
         21    1    1    2  503  502  0.14288683967E+02 -0.26598540159E+02  0.23767663215E+03  0.23958679074E+03  0.00000000000E+00 0. -1.
          2    1    1    2  501    0 -0.56181643238E+02  0.78163611355E+01 -0.94491290980E+02  0.11020924013E+03  0.00000000000E+00 0. -1.
<scales pt_clust_5="13000.00000" pt_clust_6="13000.00000" pt_clust_7="13000.00000" pt_clust_8="13000.00000" pt_clust_9="30.19352" pt_clust_10="56.45633"></scales>
<clustering>
<clus scale="   30.194">  1  9  2 -1</clus>
<clus scale="   56.456">  2 10  1 -1</clus>
<clus scale="   90.621">  7  8 -1 -1</clus>
<clus scale="   92.475">  5  6 -1 -1</clus>
<clus scale="  111.848">  2  7  1 -1</clus>
<clus scale="   56.456">  2  5  1 -1</clus>
</clustering>
</event>
<event>
10    2  0.3984345E-006  0.9818040E+02  0.7546771E-02  0.1285721E+00
         -1   -1    0    0    0  501 -0.00000000000E+00  0.00000000000E+00  0.41518026634E+03  0.41518026634E+03  0.00000000000E+00 0.  1.
         21   -1    0    0  503  502  0.00000000000E+00 -0.00000000000E+00 -0.99103309776E+02  0.99103309776E+02  0.00000000000E+00 0. -1.
         23    2    1    2    0    0  0.11425193870E+02  0.26349533313E+02  0.80441081087E+02  0.12637186520E+03  0.93135642091E+02 0.  0.
         23    2    1    2    0    0 -0.85473724960E+01 -0.33193390067E+02  0.73392896999E+02  0.12119014433E+03  0.90142526210E+02 0.  0.
        -11    1    4    4    0    0 -0.37296997867E+02 -0.49757316258E+02  0.39003953847E+02  0.73404121047E+02  0.00000000000E+00 0. -1.
         11    1    4    4    0    0  0.28749625371E+02  0.16563926191E+02  0.34388943152E+02  0.47786023280E+02  0.00000000000E+00 0.  1.
        -13    1    3    3    0    0 -0.17923641658E+02  0.26013568110E+02 -0.84990869507E+01  0.32713867627E+02  0.00000000000E+00 0. -1.
         13    1    3    3    0    0  0.29348835528E+02  0.33596520324E+00  0.88940168037E+02  0.93657997576E+02  0.00000000000E+00 0.  1.
         21    1    1    2  503  501 -0.36259055652E+02  0.39710973178E+01  0.20734927369E+03  0.21053315660E+03  0.00000000000E+00 0.  1.
         -1    1    1    2    0  502  0.33381234278E+02  0.28727594361E+01 -0.45106295210E+02  0.56188409981E+02  0.00000000000E+00 0.  1.
<scales pt_clust_5="13000.00000" pt_clust_6="13000.00000" pt_clust_7="13000.00000" pt_clust_8="13000.00000" pt_clust_9="35.39661" pt_clust_10="33.50462"></scales>
<clustering>
<clus scale="   33.505">  2 10  1 -1</clus>
<clus scale="   35.397">  1  9  2 -1</clus>
<clus scale="   90.143">  5  6 -1 -1</clus>
<clus scale="   93.136">  7  8 -1 -1</clus>
<clus scale="   95.346">  2  5  1 -1</clus>
<clus scale="   33.505">  2  5  1 -1</clus>
</clustering>
</event>
<event>
10    2  0.3984345E-006  0.1285031E+03  0.7546771E-02  0.1232298E+00
          1   -1    0    0  503    0 -0.00000000000E+00  0.00000000000E+00  0.67667650185E+03  0.67667650185E+03  0.00000000000E+00 0. -1.
         21   -1    0    0  501  502  0.00000000000E+00 -0.00000000000E+00 -0.62613702018E+02  0.62613702018E+02  0.00000000000E+00 0. -1.
         23    2    1    2    0    0  0.75095930129E+02  0.61811706681E+02  0.36833304978E+03  0.38972698111E+03  0.82205829741E+02 0.  0.
         23    2    1    2    0    0 -0.73100570278E+02 -0.39285837920E+02  0.18077751095E+03  0.21910404232E+03  0.91864043358E+02 0.  0.
        -13    1    4    4    0    0 -0.18563325676E+02 -0.53982959034E+02  0.47186018786E+02  0.74062657899E+02  0.00000000000E+00 0. -1.
         13    1    4    4    0    0 -0.54537244602E+02  0.14697121114E+02  0.13359149216E+03  0.14504138442E+03  0.00000000000E+00 0.  1.
        -13    1    3    3    0    0  0.58872640367E+02  0.11897846993E+00  0.12497914860E+03  0.13815132835E+03  0.00000000000E+00 0.  1.
         13    1    3    3    0    0  0.16223289761E+02  0.61692728211E+02  0.24335390118E+03  0.25157565277E+03  0.00000000000E+00 0. -1.
         21    1    1    2  503  502 -0.19058285777E+02  0.13740208378E+02  0.83176277064E+02  0.86430924149E+02  0.00000000000E+00 0. -1.
          1    1    1    2  501    0  0.17062925926E+02 -0.36266077139E+02 -0.18224037955E+02  0.44028256286E+02  0.00000000000E+00 0. -1.
<scales pt_clust_5="13000.00000" pt_clust_6="13000.00000" pt_clust_7="13000.00000" pt_clust_8="13000.00000" pt_clust_9="23.49493" pt_clust_10="39.63246"></scales>
<clustering>
<clus scale="   23.495">  1  9  2 -1</clus>
<clus scale="   39.632">  2 10  1 -1</clus>
<clus scale="   82.206">  7  8 -1 -1</clus>
<clus scale="   91.864">  5  6 -1 -1</clus>
<clus scale="  121.786">  1  7  2 -1</clus>
<clus scale="   39.632">  2  5  1 -1</clus>
</clustering>
</event>
<event>
10    2  0.3984345E-006  0.1347241E+03  0.7546771E-02  0.1220870E+00
          1   -1    0    0  503    0 -0.00000000000E+00  0.00000000000E+00  0.60452344338E+03  0.60452344338E+03  0.00000000000E+00 0. -1.
         21   -1    0    0  501  502  0.00000000000E+00 -0.00000000000E+00 -0.87875234050E+02  0.87875234050E+02  0.00000000000E+00 0.  1.
         23    2    1    2    0    0 -0.89328027894E+01 -0.73058557592E+02  0.23220619017E+03  0.25980752553E+03  0.90348700966E+02 0.  0.
         23    2    1    2    0    0  0.59064715982E+01  0.11241273585E+03  0.38022356994E+02  0.14860374442E+03  0.89251687026E+02 0.  0.
        -11    1    4    4    0    0 -0.41108379278E+02  0.48087158581E+02  0.94784149186E+01  0.63969633551E+02  0.00000000000E+00 0.  1.
         11    1    4    4    0    0  0.47014850876E+02  0.64325577268E+02  0.28543942075E+02  0.84634110871E+02  0.00000000000E+00 0. -1.
        -13    1    3    3    0    0  0.40307618130E+02 -0.25885269820E+02  0.10707641224E+03  0.11730349241E+03  0.00000000000E+00 0. -1.
         13    1    3    3    0    0 -0.49240420919E+02 -0.47173287772E+02  0.12512977793E+03  0.14250403313E+03  0.00000000000E+00 0.  1.
         21    1    1    2  503  502 -0.29506127924E+02 -0.32269171891E+02  0.24684689371E+03  0.25068964872E+03  0.00000000000E+00 0. -1.
          1    1    1    2  501    0  0.32532459116E+02 -0.70850063661E+01 -0.42723154803E+00  0.33297758755E+02  0.00000000000E+00 0. -1.
<scales pt_clust_5="13000.00000" pt_clust_6="13000.00000" pt_clust_7="13000.00000" pt_clust_8="13000.00000" pt_clust_9="43.27991" pt_clust_10="33.29502"></scales>
<clustering>
<clus scale="   33.295">  2 10  1 -1</clus>
<clus scale="   43.280">  1  9  2 -1</clus>
<clus scale="   89.252">  5  6 -1 -1</clus>
<clus scale="   90.349">  7  8 -1 -1</clus>
<clus scale="  133.991">  2  5  1 -1</clus>
<clus scale="   33.295">  2  5  1 -1</clus>
</clustering>
</event>
<event>
10    2  0.3984345E-006  0.1006926E+03  0.7546771E-02  0.1279966E+00
          1   -1    0    0  503    0 -0.00000000000E+00  0.00000000000E+00  0.14013454578E+03  0.14013454578E+03  0.00000000000E+00 0. -1.
         21   -1    0    0  501  502  0.00000000000E+00 -0.00000000000E+00 -0.41733434574E+03  0.41733434574E+03  0.00000000000E+00 0. -1.
         23    2    1    2    0    0  0.23567152055E+01  0.19934523035E+02  0.24857338039E+02  0.95956280743E+02  0.90480833575E+02 0.  0.
         23    2    1    2    0    0 -0.13299856555E+01 -0.16397239249E+02 -0.31755224400E+03  0.33124059175E+03  0.92791506270E+02 0.  0.
        -13    1    4    4    0    0  0.24822148145E+02 -0.42157565839E+02 -0.24604282632E+03  0.25085946620E+03  0.00000000000E+00 0.  1.
         13    1    4    4    0    0 -0.26152133801E+02  0.25760326590E+02 -0.71509417673E+02  0.80381125548E+02  0.00000000000E+00 0. -1.
        -13    1    3    3    0    0 -0.33562433387E+01 -0.26017282148E+02 -0.18832671072E+02  0.32292922435E+02  0.00000000000E+00 0.  1.
         13    1    3    3    0    0  0.57129585441E+01  0.45951805184E+02  0.43690009111E+02  0.63663358308E+02  0.00000000000E+00 0. -1.
         21    1    1    2  503  502 -0.19371831409E+02  0.25031373198E+02  0.63805317305E+02  0.71224686821E+02  0.00000000000E+00 0. -1.
          1    1    1    2  501    0  0.18345101859E+02 -0.28568656984E+02 -0.48310211309E+02  0.59047332208E+02  0.00000000000E+00 0. -1.
<scales pt_clust_5="13000.00000" pt_clust_6="13000.00000" pt_clust_7="13000.00000" pt_clust_8="13000.00000" pt_clust_9="31.65182" pt_clust_10="31.62134"></scales>
<clustering>
<clus scale="   31.652">  1  9  2 -1</clus>
<clus scale="   31.621">  2 10  1 -1</clus>
<clus scale="   90.481">  7  8 -1 -1</clus>
<clus scale="   92.792">  5  6 -1 -1</clus>
<clus scale="   98.567">  1  7  2 -1</clus>
<clus scale="   31.621">  2  5  1 -1</clus>
</clustering>
</event>
<event>
10    2  0.3984345E-006  0.1055832E+03  0.7546771E-02  0.1274176E+00
         21   -1    0    0  501  502  0.00000000000E+00  0.00000000000E+00  0.59130467966E+02  0.59130467966E+02  0.00000000000E+00 0. -1.
          1   -1    0    0  503    0 -0.00000000000E+00 -0.00000000000E+00 -0.89538270135E+03  0.89538270135E+03  0.00000000000E+00 0. -1.
         23    2    1    2    0    0  0.13383088582E+01  0.27027183676E+02 -0.33460059228E+03  0.34796321195E+03  0.91589195807E+02 0.  0.
         23    2    1    2    0    0 -0.71238298059E+01 -0.42175628496E+02 -0.23771664131E+03  0.25712545127E+03  0.88174619621E+02 0.  0.
        -13    1    4    4    0    0  0.34739029253E+02 -0.40633578914E+02 -0.10301572554E+03  0.11606087884E+03  0.00000000000E+00 0.  1.
         13    1    4    4    0    0 -0.41862859059E+02 -0.15420495821E+01 -0.13470091577E+03  0.14106457243E+03  0.00000000000E+00 0. -1.
        -13    1    3    3    0    0 -0.34430024159E+02  0.43124786574E+02 -0.16902136625E+03  0.17780156363E+03  0.00000000000E+00 0. -1.
         13    1    3    3    0    0  0.35768333018E+02 -0.16097602898E+02 -0.16557922604E+03  0.17016164832E+03  0.00000000000E+00 0.  1.
         21    1    1    2  503  502  0.84078674546E+02  0.79269278117E+02 -0.19603202175E+03  0.22755525816E+03  0.00000000000E+00 0. -1.
          1    1    1    2  501    0 -0.78293153599E+02 -0.64120833297E+02 -0.67902978039E+02  0.12186924792E+03  0.00000000000E+00 0. -1.
<scales pt_clust_5="13000.00000" pt_clust_6="13000.00000" pt_clust_7="13000.00000" pt_clust_8="13000.00000" pt_clust_9="105.58324" pt_clust_10="13000.00000"></scales>
<clustering>
<clus scale="   88.175">  5  6 -1 -1</clus>
<clus scale="   91.589">  7  8 -1 -1</clus>
<clus scale="   95.503">  2  7  1 -1</clus>
<clus scale="   93.401">  2  5  1 -1</clus>
<clus scale="  105.583">  2  9  1 -1</clus>
<clus scale="  105.583">  1  5  2 -1</clus>
</clustering>
</event>
<event>
10    2  0.3984345E-006  0.1007561E+03  0.7546771E-02  0.1282124E+00
         21   -1    0    0  503  502  0.00000000000E+00  0.00000000000E+00  0.38749117310E+03  0.38749117310E+03  0.00000000000E+00 0.  1.
         -3   -1    0    0    0  501 -0.00000000000E+00 -0.00000000000E+00 -0.14908817329E+03  0.14908817329E+03  0.00000000000E+00 0.  1.
         23    2    1    2    0    0 -0.36551855732E+02 -0.34835736982E+01 -0.31500139196E+02  0.10190223461E+03  0.89686304445E+02 0.  0.
         23    2    1    2    0    0  0.61999927732E+01 -0.43879154419E+02  0.52102811057E+02  0.11813966058E+03  0.96324744382E+02 0.  0.
        -11    1    3    3    0    0  0.24706058737E+02 -0.20106464674E+02 -0.20219223714E+01  0.31917823079E+02  0.00000000000E+00 0. -1.
         11    1    3    3    0    0 -0.61257914469E+02  0.16622890976E+02 -0.29478216825E+02  0.69984411526E+02  0.00000000000E+00 0.  1.
        -11    1    4    4    0    0  0.15142217201E+02  0.20566814026E+02  0.46225024667E+02  0.52811300745E+02  0.00000000000E+00 0.  1.
         11    1    4    4    0    0 -0.89422244276E+01 -0.64445968445E+02  0.58777863898E+01  0.65328359840E+02  0.00000000000E+00 0. -1.
         21    1    1    2  503  501  0.34519432709E+02  0.11353273822E+03  0.37524626889E+02  0.12445630360E+03  0.00000000000E+00 0.  1.
         -3    1    1    2    0  502 -0.41675697505E+01 -0.66170010100E+02  0.18027570106E+03  0.19208114761E+03  0.00000000000E+00 0.  1.
<scales pt_clust_5="13000.00000" pt_clust_6="13000.00000" pt_clust_7="13000.00000" pt_clust_8="13000.00000" pt_clust_9="92.91019" pt_clust_10="66.30112"></scales>
<clustering>
<clus scale="   66.301">  1 10  2 -1</clus>
<clus scale="   89.686">  5  6 -1 -1</clus>
<clus scale="   92.910">  1  9  2 -1</clus>
<clus scale="   94.430">  2  5  1 -1</clus>
<clus scale="   96.325">  7  8 -1 -1</clus>
<clus scale="   66.301">  1  5  2 -1</clus>
</clustering>
</event>
<event>
10    2  0.3984345E-006  0.1704669E+03  0.7546771E-02  0.1177444E+00
         21   -1    0    0  501  502  0.00000000000E+00  0.00000000000E+00  0.47202183774E+03  0.47202183774E+03  0.00000000000E+00 0. -1.
          1   -1    0    0  503    0 -0.00000000000E+00 -0.00000000000E+00 -0.22546979991E+03  0.22546979991E+03  0.00000000000E+00 0. -1.
         23    2    1    2    0    0  0.57280956071E+02 -0.13238788860E+03  0.20240924873E+02  0.17211649946E+03  0.91688240082E+02 0.  0.
         23    2    1    2    0    0 -0.69019042926E+02  0.11120652312E+03  0.15296041915E+03  0.22145302347E+03  0.92271516226E+02 0.  0.
        -13    1    3    3    0    0  0.48653197395E+02 -0.50332392833E+02 -0.29289026134E+02  0.75883663835E+02  0.00000000000E+00 0. -1.
         13    1    3    3    0    0  0.86277586759E+01 -0.82055495764E+02  0.49529951007E+02  0.96232835621E+02  0.00000000000E+00 0.  1.
        -13    1    4    4    0    0 -0.42178577120E+02  0.12352233258E+03  0.12745324883E+03  0.18243116415E+03  0.00000000000E+00 0. -1.
         13    1    4    4    0    0 -0.26840465807E+02 -0.12315809462E+02  0.25507170323E+02  0.39021859326E+02  0.00000000000E+00 0.  1.
         21    1    1    2  503  502  0.19638016178E+02 -0.56743089703E+01 -0.11332770330E+03  0.11515649264E+03  0.00000000000E+00 0. -1.
          1    1    1    2  501    0 -0.78999293229E+01  0.26855674448E+02  0.18667839711E+03  0.18876562208E+03  0.00000000000E+00 0. -1.
<scales pt_clust_5="13000.00000" pt_clust_6="13000.00000" pt_clust_7="13000.00000" pt_clust_8="13000.00000" pt_clust_9="20.44137" pt_clust_10="27.89090"></scales>
<clustering>
<clus scale="   20.441">  2  9  1 -1</clus>
<clus scale="   27.891">  1 10  2 -1</clus>
<clus scale="   91.688">  5  6 -1 -1</clus>
<clus scale="   92.272">  7  8 -1 -1</clus>
<clus scale="  170.152">  2  5  1 -1</clus>
<clus scale="   27.891">  1  5  2 -1</clus>
</clustering>
</event>
<event>
10    2  0.3984345E-006  0.1751304E+03  0.7546771E-02  0.1176332E+00
         -4   -1    0    0    0  501 -0.00000000000E+00  0.00000000000E+00  0.39302100050E+03  0.39302100050E+03  0.00000000000E+00 0.  1.
         21   -1    0    0  503  502  0.00000000000E+00 -0.00000000000E+00 -0.46102270736E+03  0.46102270736E+03  0.00000000000E+00 0.  1.
         23    2    1    2    0    0 -0.98525592707E+02  0.88637601728E+01  0.11640294111E+03  0.18925960206E+03  0.11173045069E+03 0.  0.
         23    2    1    2    0    0  0.13507534472E+03  0.26727212742E+02 -0.27162687714E+03  0.31693238480E+03  0.87779744233E+02 0.  0.
        -13    1    4    4    0    0  0.74518985972E+02 -0.15190957766E+02 -0.20093748665E+03  0.21484812778E+03  0.00000000000E+00 0. -1.
         13    1    4    4    0    0  0.60556358750E+02  0.41918170509E+02 -0.70689390485E+02  0.10208425702E+03  0.00000000000E+00 0.  1.
        -13    1    3    3    0    0 -0.39139060059E+02 -0.12793595486E+02 -0.14692635486E+02  0.43719739767E+02  0.00000000000E+00 0. -1.
         13    1    3    3    0    0 -0.59386532649E+02  0.21657355659E+02  0.13109557659E+03  0.14553986229E+03  0.00000000000E+00 0.  1.
         21    1    1    2  503  501 -0.43257501282E+02 -0.83683314044E+01  0.21375572454E+03  0.21824928445E+03  0.00000000000E+00 0.  1.
         -4    1    1    2    0  502  0.67077492676E+01 -0.27222641511E+02 -0.12653349537E+03  0.12960243655E+03  0.00000000000E+00 0.  1.
<scales pt_clust_5="13000.00000" pt_clust_6="13000.00000" pt_clust_7="13000.00000" pt_clust_8="13000.00000" pt_clust_9="44.05037" pt_clust_10="28.03687"></scales>
<clustering>
<clus scale="   28.037">  2 10  1 -1</clus>
<clus scale="   44.050">  1  9  2 -1</clus>
<clus scale="   87.780">  5  6 -1 -1</clus>
<clus scale="  111.730">  7  8 -1 -1</clus>
<clus scale="  160.911">  2  5  1 -1</clus>
<clus scale="   28.037">  2  5  1 -1</clus>
</clustering>
</event>
<event>
10    2  0.3984345E-006  0.1402509E+03  0.7546771E-02  0.1215035E+00
          1   -1    0    0  503    0 -0.00000000000E+00  0.00000000000E+00  0.41069886741E+03  0.41069886741E+03  0.00000000000E+00 0. -1.
         21   -1    0    0  501  502  0.00000000000E+00 -0.00000000000E+00 -0.23401927501E+03  0.23401927501E+03  0.00000000000E+00 0. -1.
         23    2    1    2    0    0 -0.37285156436E+01 -0.11064826934E+03  0.21078749906E+03  0.25167290665E+03  0.81553300627E+02 0.  0.
         23    2    1    2    0    0 -0.38979257519E+02  0.78400274898E+02  0.52879357636E+02  0.13691597568E+03  0.91015231206E+02 0.  0.
        -11    1    3    3    0    0 -0.28258323802E+02 -0.46836660957E+01  0.40217311929E+02  0.49375112871E+02  0.00000000000E+00 0.  1.
         11    1    3    3    0    0  0.24529808158E+02 -0.10596460324E+03  0.17057018713E+03  0.20229779377E+03  0.00000000000E+00 0. -1.
        -13    1    4    4    0    0  0.89746163365E+01  0.74965141980E+02  0.18275444877E+02  0.77680809316E+02  0.00000000000E+00 0.  1.
         13    1    4    4    0    0 -0.47953873855E+02  0.34351329182E+01  0.34603912760E+02  0.59235166364E+02  0.00000000000E+00 0. -1.
         21    1    1    2  503  502 -0.25989427526E+02 -0.33963418420E+02  0.64326996678E+02  0.77245884262E+02  0.00000000000E+00 0. -1.
          1    1    1    2  501    0  0.68697200688E+02  0.66211412857E+02 -0.15131426097E+03  0.17888337583E+03  0.00000000000E+00 0. -1.
<scales pt_clust_5="13000.00000" pt_clust_6="13000.00000" pt_clust_7="13000.00000" pt_clust_8="13000.00000" pt_clust_9="42.76639" pt_clust_10="93.69668"></scales>
<clustering>
<clus scale="   42.766">  1  9  2 -1</clus>
<clus scale="   81.553">  5  6 -1 -1</clus>
<clus scale="   91.015">  7  8 -1 -1</clus>
<clus scale="   93.697">  2 10  1 -1</clus>
<clus scale="  134.304">  1  5  2 -1</clus>
<clus scale="   93.697">  2  5  1 -1</clus>
</clustering>
</event>
<event>
10    2  0.3984345E-006  0.9653842E+02  0.7546771E-02  0.1288717E+00
         21   -1    0    0  501  502  0.00000000000E+00  0.00000000000E+00  0.37487318583E+03  0.37487318583E+03  0.00000000000E+00 0. -1.
          2   -1    0    0  503    0 -0.00000000000E+00 -0.00000000000E+00 -0.75089072192E+02  0.75089072192E+02  0.00000000000E+00 0. -1.
         23    2    1    2    0    0 -0.31340228923E+00 -0.30215950241E+01  0.51775643662E+01  0.90991786874E+02  0.90793556204E+02 0.  0.
         23    2    1    2    0    0  0.58593471733E+01  0.48881566939E+02  0.13428868643E+03  0.17039308198E+03  0.92609997006E+02 0.  0.
        -11    1    3    3    0    0  0.36648558703E+02  0.20129850455E+02  0.18013557973E+02  0.45528189127E+02  0.00000000000E+00 0.  1.
         11    1    3    3    0    0 -0.36961960992E+02 -0.23151445479E+02 -0.12835993607E+02  0.45463597746E+02  0.00000000000E+00 0. -1.
        -11    1    4    4    0    0  0.45462809937E+02  0.41627063491E+02  0.60705738460E+02  0.86515121130E+02  0.00000000000E+00 0.  1.
         11    1    4    4    0    0 -0.39603462764E+02  0.72545034484E+01  0.73582947972E+02  0.83877960845E+02  0.00000000000E+00 0. -1.
         21    1    1    2  503  502 -0.80176256776E+01 -0.25166184034E+02 -0.49754598457E+00  0.26417166622E+02  0.00000000000E+00 0. -1.
          2    1    1    2  501    0  0.24716807934E+01 -0.20693787881E+02  0.16081540882E+03  0.16216022255E+03  0.00000000000E+00 0. -1.
<scales pt_clust_5="13000.00000" pt_clust_6="13000.00000" pt_clust_7="13000.00000" pt_clust_8="13000.00000" pt_clust_9="27.56942" pt_clust_10="20.84087"></scales>
<clustering>
<clus scale="   20.841">  1 10  2 -1</clus>
<clus scale="   27.569">  2  9  1 -1</clus>
<clus scale="   90.794">  5  6 -1 -1</clus>
<clus scale="   92.610">  7  8 -1 -1</clus>
<clus scale="   94.797">  2  5  1 -1</clus>
<clus scale="   20.841">  1  5  2 -1</clus>
</clustering>
</event>
<event>
10    2  0.3984345E-006  0.1307008E+03  0.7546771E-02  0.1227032E+00
         21   -1    0    0  501  502  0.00000000000E+00  0.00000000000E+00  0.68185653478E+02  0.68185653478E+02  0.00000000000E+00 0. -1.
          2   -1    0    0  503    0 -0.00000000000E+00 -0.00000000000E+00 -0.10248997900E+04  0.10248997900E+04  0.00000000000E+00 0. -1.
         23    2    1    2    0    0  0.22406064748E+02 -0.11042017109E+03 -0.75971604527E+03  0.77361863675E+03  0.92858385564E+02 0.  0.
         23    2    1    2    0    0 -0.28285731181E+01  0.35048879705E+02 -0.13952718055E+03  0.17249890896E+03  0.95139974170E+02 0.  0.
        -11    1    3    3    0    0  0.26610842243E+02  0.34890703741E+01 -0.79242515870E+02  0.83664131253E+02  0.00000000000E+00 0.  1.
         11    1    3    3    0    0 -0.42047774958E+01 -0.11390924147E+03 -0.68047352940E+03  0.68995450550E+03  0.00000000000E+00 0. -1.
        -13    1    4    4    0    0 -0.43604427534E+02  0.16470443791E+01 -0.36978449031E+02  0.57196717987E+02  0.00000000000E+00 0.  1.
         13    1    4    4    0    0  0.40775854416E+02  0.33401835326E+02 -0.10254873152E+03  0.11530219097E+03  0.00000000000E+00 0. -1.
         21    1    1    2  503  502  0.18677065241E+02 -0.18646879862E+02 -0.33546228801E+02  0.42683584214E+02  0.00000000000E+00 0. -1.
          2    1    1    2  501    0 -0.38254556871E+02  0.94018171252E+02 -0.23924681887E+02  0.10428431354E+03  0.00000000000E+00 0. -1.
<scales pt_clust_5="13000.00000" pt_clust_6="13000.00000" pt_clust_7="13000.00000" pt_clust_8="13000.00000" pt_clust_9="26.39202" pt_clust_10="86.39227"></scales>
<clustering>
<clus scale="   26.392">  1  9  2 -1</clus>
<clus scale="   86.392">  1 10  2 -1</clus>
<clus scale="   92.858">  5  6 -1 -1</clus>
<clus scale="   95.140">  7  8 -1 -1</clus>
<clus scale="  129.049">  2  5  1 -1</clus>
<clus scale="   26.392">  1  5  2 -1</clus>
</clustering>
</event>
<event>
10    2  0.3984345E-006  0.9511125E+02  0.7546771E-02  0.1291154E+00
         -3   -1    0    0    0  501 -0.00000000000E+00  0.00000000000E+00  0.20406776195E+03  0.20406776195E+03  0.00000000000E+00 0.  1.
         21   -1    0    0  501  502  0.00000000000E+00 -0.00000000000E+00 -0.78386413142E+02  0.78386413142E+02  0.00000000000E+00 0. -1.
         23    2    1    2    0    0  0.12636588463E+02 -0.18126881031E+02  0.85808787528E+02  0.12918297486E+03  0.94004392409E+02 0.  0.
         23    2    1    2    0    0 -0.63785730770E+01 -0.51071309322E+01  0.14302247379E+02  0.95032559633E+02  0.93594145807E+02 0.  0.
        -11    1    4    4    0    0 -0.14779612688E+01 -0.30855081764E+02 -0.30318601187E+02  0.43283230218E+02  0.00000000000E+00 0. -1.
         11    1    4    4    0    0 -0.49006118082E+01  0.25747950832E+02  0.44620848566E+02  0.51749329415E+02  0.00000000000E+00 0.  1.
        -13    1    3    3    0    0  0.41239073262E+02 -0.42321066934E+02  0.51486163660E+02  0.78374478744E+02  0.00000000000E+00 0.  1.
         13    1    3    3    0    0 -0.28602484799E+02  0.24194185903E+02  0.34322623869E+02  0.50808496114E+02  0.00000000000E+00 0. -1.
         21    1    1    2  503  502 -0.21868233260E+02 -0.17186473122E+01  0.55028257696E+01  0.22615359072E+02  0.00000000000E+00 0.  1.
         -3    1    1    2    0  503  0.15610217873E+02  0.24952659276E+02  0.20067488128E+02  0.35623281527E+02  0.00000000000E+00 0.  1.
<scales pt_clust_5="13000.00000" pt_clust_6="13000.00000" pt_clust_7="13000.00000" pt_clust_8="13000.00000" pt_clust_9="21.93566" pt_clust_10="28.04792"></scales>
<clustering>
<clus scale="   21.936">  2  9  1 -1</clus>
<clus scale="   28.048">  2 10  1 -1</clus>
<clus scale="   93.594">  5  6 -1 -1</clus>
<clus scale="   94.004">  7  8 -1 -1</clus>
<clus scale="   94.706">  2  5  1 -1</clus>
<clus scale="   21.936">  2  5  1 -1</clus>
</clustering>
</event>
<event>
10    2  0.3984345E-006  0.2170724E+03  0.7546771E-02  0.1136087E+00
         21   -1    0    0  501  502  0.00000000000E+00  0.00000000000E+00  0.29180978094E+03  0.29180978094E+03  0.00000000000E+00 0.  1.
          1   -1    0    0  503    0 -0.00000000000E+00 -0.00000000000E+00 -0.31000542820E+03  0.31000542820E+03  0.00000000000E+00 0. -1.
         23    2    1    2    0    0  0.30752512876E+02 -0.16316910247E+03 -0.92630610378E+02  0.21090840169E+03  0.91280068336E+02 0.  0.
         23    2    1    2    0    0  0.17646505134E+02  0.24211755305E+03  0.66614352574E+02  0.26776272664E+03  0.91252929639E+02 0.  0.
        -11    1    3    3    0    0  0.34814764420E+02 -0.23237890616E+02  0.20476419913E+01  0.41907758466E+02  0.00000000000E+00 0.  1.
         11    1    3    3    0    0 -0.40622515438E+01 -0.13993121186E+03 -0.94678252370E+02  0.16900064323E+03  0.00000000000E+00 0. -1.
        -11    1    4    4    0    0 -0.21168668519E+02  0.11511486526E+02 -0.16504923645E+01  0.24152659770E+02  0.00000000000E+00 0. -1.
         11    1    4    4    0    0  0.38815173653E+02  0.23060606653E+03  0.68264844938E+02  0.24361006687E+03  0.00000000000E+00 0.  1.
         21    1    1    2  503  502 -0.38929477103E+02 -0.29747512467E+02 -0.32531934832E+02  0.58811099883E+02  0.00000000000E+00 0. -1.
          1    1    1    2  501    0 -0.94695409065E+01 -0.49200938115E+02  0.40352545374E+02  0.64332980924E+02  0.00000000000E+00 0. -1.
<scales pt_clust_5="13000.00000" pt_clust_6="13000.00000" pt_clust_7="13000.00000" pt_clust_8="13000.00000" pt_clust_9="48.99407" pt_clust_10="51.78384"></scales>
<clustering>
<clus scale="   48.994">  2  9  1 -1</clus>
<clus scale="   51.784">  1 10  2 -1</clus>
<clus scale="   91.253">  7  8 -1 -1</clus>
<clus scale="   91.280">  5  6 -1 -1</clus>
<clus scale="  217.061">  1  7  2 -1</clus>
<clus scale="   51.784">  1  5  2 -1</clus>
</clustering>
</event>
<event>
10    2  0.3984345E-006  0.1014725E+03  0.7546771E-02  0.1279951E+00
         21   -1    0    0  503  502  0.00000000000E+00  0.00000000000E+00  0.22050550636E+03  0.22050550636E+03  0.00000000000E+00 0.  1.
         -3   -1    0    0    0  501 -0.00000000000E+00 -0.00000000000E+00 -0.14149360443E+03  0.14149360443E+03  0.00000000000E+00 0.  1.
         23    2    1    2    0    0 -0.14853098057E+02  0.20095428683E+01 -0.33274662042E+02  0.10198453938E+03  0.95231246734E+02 0.  0.
         23    2    1    2    0    0  0.45781152745E+02 -0.29954529349E+02  0.57491577905E+02  0.11980056368E+03  0.89742441199E+02 0.  0.
        -11    1    4    4    0    0  0.65637792601E+02 -0.13582216938E+02  0.64610254945E+02  0.93098235636E+02  0.00000000000E+00 0.  1.
         11    1    4    4    0    0 -0.19856639856E+02 -0.16372312411E+02 -0.71186770401E+01  0.26702328042E+02  0.00000000000E+00 0. -1.
        -11    1    3    3    0    0 -0.75836506681E+00  0.32819310072E+02  0.20298622240E+02  0.38596843084E+02  0.00000000000E+00 0. -1.
         11    1    3    3    0    0 -0.14094732990E+02 -0.30809767203E+02 -0.53573284282E+02  0.63387696298E+02  0.00000000000E+00 0.  1.
         21    1    1    2  503  501 -0.22996463865E+02  0.23048913426E+01 -0.37525357391E+02  0.44071559102E+02  0.00000000000E+00 0.  1.
         -3    1    1    2    0  502 -0.79315908232E+01  0.25640095138E+02  0.92320343464E+02  0.96142448632E+02  0.00000000000E+00 0.  1.
<scales pt_clust_5="13000.00000" pt_clust_6="13000.00000" pt_clust_7="13000.00000" pt_clust_8="13000.00000" pt_clust_9="23.11168" pt_clust_10="27.01265"></scales>
<clustering>
<clus scale="   23.112">  2  9  1 -1</clus>
<clus scale="   27.013">  1 10  2 -1</clus>
<clus scale="   89.742">  5  6 -1 -1</clus>
<clus scale="   95.231">  7  8 -1 -1</clus>
<clus scale="   96.340">  1  5  2 -1</clus>
<clus scale="   27.013">  1  5  2 -1</clus>
</clustering>
</event>
<event>
10    2  0.3984345E-006  0.1213528E+03  0.7546771E-02  0.1242198E+00
         -1   -1    0    0    0  501 -0.00000000000E+00  0.00000000000E+00  0.47451145540E+03  0.47451145540E+03  0.00000000000E+00 0.  1.
         21   -1    0    0  503  502  0.00000000000E+00 -0.00000000000E+00 -0.10298121654E+03  0.10298121654E+03  0.00000000000E+00 0.  1.
         23    2    1    2    0    0 -0.51769920263E+02 -0.87899629466E+02  0.11978050513E+03  0.18189035231E+03  0.91270265430E+02 0.  0.
         23    2    1    2    0    0  0.12683914864E+02  0.64570245330E+02  0.59309794499E+02  0.13016461460E+03  0.95367588274E+02 0.  0.
        -11    1    4    4    0    0 -0.14108074214E+02  0.63648387004E+02  0.74784273824E+02  0.99211100879E+02  0.00000000000E+00 0.  1.
         11    1    4    4    0    0  0.26791989078E+02  0.92185832595E+00 -0.15474479325E+02  0.30953513725E+02  0.00000000000E+00 0. -1.
        -11    1    3    3    0    0 -0.22276936777E+02  0.16484092366E+02  0.32149980239E+02  0.42445358317E+02  0.00000000000E+00 0. -1.
         11    1    3    3    0    0 -0.29492983486E+02 -0.10438372183E+03  0.87630524888E+02  0.13944499400E+03  0.00000000000E+00 0.  1.
         21    1    1    2  503  501  0.29487568078E+02  0.43583754586E+02  0.22210708577E+03  0.22825559771E+03  0.00000000000E+00 0. -1.
         -1    1    1    2    0  502  0.95984373204E+01 -0.20254370450E+02 -0.29667146532E+02  0.37182107319E+02  0.00000000000E+00 0.  1.
<scales pt_clust_5="13000.00000" pt_clust_6="13000.00000" pt_clust_7="13000.00000" pt_clust_8="13000.00000" pt_clust_9="52.12512" pt_clust_10="22.41360"></scales>
<clustering>
<clus scale="   22.414">  2 10  1 -1</clus>
<clus scale="   52.125">  1  9  2 -1</clus>
<clus scale="   91.270">  7  8 -1 -1</clus>
<clus scale="   95.368">  5  6 -1 -1</clus>
<clus scale="  118.160">  1  7  2 -1</clus>
<clus scale="   22.414">  2  5  1 -1</clus>
</clustering>
</event>
<event>
10    2  0.3984345E-006  0.1364299E+03  0.7546771E-02  0.1220556E+00
         21   -1    0    0  503  502  0.00000000000E+00  0.00000000000E+00  0.29027917080E+03  0.29027917080E+03  0.00000000000E+00 0.  1.
         -1   -1    0    0    0  501 -0.00000000000E+00 -0.00000000000E+00 -0.12662275450E+03  0.12662275450E+03  0.00000000000E+00 0.  1.
         23    2    1    2    0    0 -0.98825721810E+02  0.12950013272E+02  0.38804792213E+02  0.14286637619E+03  0.94714114106E+02 0.  0.
         23    2    1    2    0    0  0.10861651091E+03 -0.17107666164E+02  0.14700968333E+03  0.20230763752E+03  0.85007732133E+02 0.  0.
        -11    1    3    3    0    0 -0.10523883338E+03 -0.12754502051E+02  0.14652181635E+02  0.10701670805E+03  0.00000000000E+00 0.  1.
         11    1    3    3    0    0  0.64131115725E+01  0.25704515323E+02  0.24152610578E+02  0.35849668140E+02  0.00000000000E+00 0. -1.
        -11    1    4    4    0    0  0.34647801844E+02 -0.70254621142E+01  0.11635316121E+03  0.12160544977E+03  0.00000000000E+00 0. -1.
         11    1    4    4    0    0  0.73968709063E+02 -0.10082204050E+02  0.30656522123E+02  0.80702187749E+02  0.00000000000E+00 0.  1.
         21    1    1    2  503  501  0.22055035314E+02  0.21333216973E+02 -0.17287919073E+02  0.35219353700E+02  0.00000000000E+00 0.  1.
         -1    1    1    2    0  502 -0.31845824411E+02 -0.17175564081E+02 -0.48701401739E+01  0.36508557891E+02  0.00000000000E+00 0.  1.
<scales pt_clust_5="13000.00000" pt_clust_6="13000.00000" pt_clust_7="13000.00000" pt_clust_8="13000.00000" pt_clust_9="30.68437" pt_clust_10="30.14211"></scales>
<clustering>
<clus scale="   30.684">  2  9  1 -1</clus>
<clus scale="   30.142">  1 10  2 -1</clus>
<clus scale="   85.008">  7  8 -1 -1</clus>
<clus scale="   94.714">  5  6 -1 -1</clus>
<clus scale="  129.879">  1  7  2 -1</clus>
<clus scale="   30.142">  1  5  2 -1</clus>
</clustering>
</event>
<event>
10    2  0.3984345E-006  0.2817395E+03  0.7546771E-02  0.1133833E+00
          2   -1    0    0  503    0 -0.00000000000E+00  0.00000000000E+00  0.12028155358E+04  0.12028155358E+04  0.00000000000E+00 0. -1.
         21   -1    0    0  501  502  0.00000000000E+00 -0.00000000000E+00 -0.11344045169E+03  0.11344045169E+03  0.00000000000E+00 0. -1.
         23    2    1    2    0    0  0.34754399499E+02 -0.38754539862E+02  0.14471163134E+03  0.17897917865E+03  0.91554942529E+02 0.  0.
         23    2    1    2    0    0 -0.25497230923E+03  0.97759799333E+02  0.36216434402E+03  0.46261000487E+03  0.90978830960E+02 0.  0.
        -11    1    3    3    0    0  0.26625571189E+02 -0.68092847112E+02  0.11608351804E+03  0.13718943119E+03  0.00000000000E+00 0. -1.
         11    1    3    3    0    0  0.81288283095E+01  0.29338307250E+02  0.28628113296E+02  0.41789747462E+02  0.00000000000E+00 0.  1.
        -13    1    4    4    0    0 -0.11514574393E+03  0.18220713071E+02  0.93390182058E+02  0.14937289859E+03  0.00000000000E+00 0.  1.
         13    1    4    4    0    0 -0.13982656531E+03  0.79539086262E+02  0.26877416196E+03  0.31323710627E+03  0.00000000000E+00 0. -1.
         21    1    1    2  503  502 -0.41719370752E+02 -0.25095458029E+02  0.22485593032E+03  0.23006624548E+03  0.00000000000E+00 0. -1.
          2    1    1    2  501    0  0.26193728049E+03 -0.33909801442E+02  0.35764317846E+03  0.44460055853E+03  0.00000000000E+00 0. -1.
<scales pt_clust_5="13000.00000" pt_clust_6="13000.00000" pt_clust_7="13000.00000" pt_clust_8="13000.00000" pt_clust_9="48.68560" pt_clust_10="266.64600"></scales>
<clustering>
<clus scale="   48.686">  1  9  2 -1</clus>
<clus scale="   90.979">  7  8 -1 -1</clus>
<clus scale="   91.555">  5  6 -1 -1</clus>
<clus scale="  104.876">  1  5  2 -1</clus>
<clus scale="  266.646">  2 10  1 -1</clus>
<clus scale="  266.646">  2  5  1 -1</clus>
</clustering>
</event>
<event>
10    2  0.3984345E-006  0.1177750E+03  0.7546771E-02  0.1247715E+00
         21   -1    0    0  503  502  0.00000000000E+00  0.00000000000E+00  0.54781527134E+02  0.54781527134E+02  0.00000000000E+00 0. -1.
         -4   -1    0    0    0  501 -0.00000000000E+00 -0.00000000000E+00 -0.66906153216E+03  0.66906153216E+03  0.00000000000E+00 0.  1.
         23    2    1    2    0    0 -0.58071632483E+02 -0.40045314374E+02 -0.41737365843E+03  0.43354482840E+03  0.93725160871E+02 0.  0.
         23    2    1    2    0    0  0.89276812457E+02  0.32965383556E+02 -0.70024255973E+02  0.14917040033E+03  0.91056829253E+02 0.  0.
        -11    1    3    3    0    0 -0.43223986765E+02 -0.68742378272E+02 -0.24316182871E+03  0.25636205364E+03  0.00000000000E+00 0.  1.
         11    1    3    3    0    0 -0.14847645718E+02  0.28697063898E+02 -0.17421182972E+03  0.17718277477E+03  0.00000000000E+00 0. -1.
        -13    1    4    4    0    0  0.16151812523E+01  0.37776126425E+02 -0.43114206584E+02  0.57345264386E+02  0.00000000000E+00 0.  1.
         13    1    4    4    0    0  0.87661631205E+02 -0.48107428692E+01 -0.26910049389E+02  0.91825135941E+02  0.00000000000E+00 0. -1.
         21    1    1    2  503  501 -0.41482944185E+01  0.20708516362E+02 -0.94304877022E+02  0.96640885895E+02  0.00000000000E+00 0. -1.
         -4    1    1    2    0  502 -0.27056885556E+02 -0.13628585544E+02 -0.32577213596E+02  0.44486944665E+02  0.00000000000E+00 0.  1.
<scales pt_clust_5="13000.00000" pt_clust_6="13000.00000" pt_clust_7="13000.00000" pt_clust_8="13000.00000" pt_clust_9="21.11992" pt_clust_10="29.94975"></scales>
<clustering>
<clus scale="   21.120">  2  9  1 -1</clus>
<clus scale="   29.950">  1 10  2 -1</clus>
<clus scale="   91.057">  7  8 -1 -1</clus>
<clus scale="   93.725">  5  6 -1 -1</clus>
<clus scale="  115.663">  1  7  2 -1</clus>
<clus scale="   29.950">  1  5  2 -1</clus>
</clustering>
</event>
<event>
10    2  0.3984345E-006  0.1146807E+03  0.7546771E-02  0.1253413E+00
          2   -1    0    0  503    0 -0.00000000000E+00  0.00000000000E+00  0.52849245746E+03  0.52849245746E+03  0.00000000000E+00 0. -1.
         21   -1    0    0  501  502  0.00000000000E+00 -0.00000000000E+00 -0.59075345584E+02  0.59075345584E+02  0.00000000000E+00 0. -1.
         23    2    1    2    0    0 -0.21865614013E+02 -0.80189090355E+02  0.37899467873E+03  0.39768127190E+03  0.87206835914E+02 0.  0.
         23    2    1    2    0    0  0.27008242332E+02  0.59001772912E+02  0.46144205776E+02  0.12080861732E+03  0.90855819473E+02 0.  0.
        -13    1    4    4    0    0  0.53736673872E+02  0.60887208836E+02  0.20582369590E+02  0.83776585372E+02  0.00000000000E+00 0. -1.
         13    1    4    4    0    0 -0.26728431540E+02 -0.18854359237E+01  0.25561836186E+02  0.37032031951E+02  0.00000000000E+00 0.  1.
        -13    1    3    3    0    0 -0.21720548545E+02  0.91503887875E+01  0.34441631092E+02  0.41734132270E+02  0.00000000000E+00 0.  1.
         13    1    3    3    0    0 -0.14506546758E+00 -0.89339479142E+02  0.34455304763E+03  0.35594713963E+03  0.00000000000E+00 0. -1.
         21    1    1    2  503  502  0.17065730835E+02  0.11683220473E+02  0.39305814377E+02  0.44414905757E+02  0.00000000000E+00 0. -1.
          2    1    1    2  501    0 -0.22208359154E+02  0.95040969692E+01  0.49724129938E+01  0.24663008059E+02  0.00000000000E+00 0. -1.
<scales pt_clust_5="13000.00000" pt_clust_6="13000.00000" pt_clust_7="13000.00000" pt_clust_8="13000.00000" pt_clust_9="20.68180" pt_clust_10="23.82471"></scales>
<clustering>
<clus scale="   20.682">  1  9  2 -1</clus>
<clus scale="   23.825">  2 10  1 -1</clus>
<clus scale="   87.207">  7  8 -1 -1</clus>
<clus scale="   90.856">  5  6 -1 -1</clus>
<clus scale="  111.812">  1  7  2 -1</clus>
<clus scale="   23.825">  2  5  1 -1</clus>
</clustering>
</event>
<event>
10    2  0.3984345E-006  0.2242697E+03  0.7546771E-02  0.1152349E+00
         21   -1    0    0  503  502  0.00000000000E+00  0.00000000000E+00  0.21701192213E+03  0.21701192213E+03  0.00000000000E+00 0.  1.
         -1   -1    0    0    0  501 -0.00000000000E+00 -0.00000000000E+00 -0.88204899477E+03  0.88204899477E+03  0.00000000000E+00 0.  1.
         23    2    1    2    0    0 -0.31712099074E+02  0.68330553545E+02 -0.31840826062E+03  0.33936088381E+03  0.90040364545E+02 0.  0.
         23    2    1    2    0    0  0.14308139545E+03 -0.24642058587E+03 -0.62191729938E+02  0.30494234388E+03  0.89031628948E+02 0.  0.
        -11    1    4    4    0    0  0.56160522527E+02 -0.62393974042E+02 -0.56785589605E+02  0.10134897865E+03  0.00000000000E+00 0. -1.
         11    1    4    4    0    0  0.86920872925E+02 -0.18402661183E+03 -0.54061403323E+01  0.20359336522E+03  0.00000000000E+00 0.  1.
        -11    1    3    3    0    0  0.27490778972E+02  0.29006346111E+02 -0.17242310341E+03  0.17699389151E+03  0.00000000000E+00 0.  1.
         11    1    3    3    0    0 -0.59202878046E+02  0.39324207434E+02 -0.14598515722E+03  0.16236699230E+03  0.00000000000E+00 0. -1.
         21    1    1    2  503  501 -0.14268415020E+02  0.39509759644E+02 -0.28242570208E+03  0.28553263556E+03  0.00000000000E+00 0.  1.
         -1    1    1    2    0  502 -0.97100881358E+02  0.13858027268E+03 -0.20113800002E+01  0.16922505366E+03  0.00000000000E+00 0.  1.
<scales pt_clust_5="13000.00000" pt_clust_6="13000.00000" pt_clust_7="13000.00000" pt_clust_8="13000.00000" pt_clust_9="42.00725" pt_clust_10="205.84038"></scales>
<clustering>
<clus scale="   42.007">  2  9  1 -1</clus>
<clus scale="   89.032">  5  6 -1 -1</clus>
<clus scale="   90.040">  7  8 -1 -1</clus>
<clus scale="  133.351">  2  7  1 -1</clus>
<clus scale="  205.840">  1 10  2 -1</clus>
<clus scale="  205.840">  1  5  2 -1</clus>
</clustering>
</event>
<event>
10    2  0.3984345E-006  0.1710080E+03  0.7546771E-02  0.1195709E+00
          1   -1    0    0  503    0 -0.00000000000E+00  0.00000000000E+00  0.48147286038E+03  0.48147286038E+03  0.00000000000E+00 0. -1.
         21   -1    0    0  501  502  0.00000000000E+00 -0.00000000000E+00 -0.24750006812E+03  0.24750006812E+03  0.00000000000E+00 0. -1.
         23    2    1    2    0    0 -0.50691199942E+02  0.32213499075E+02  0.19221054310E+03  0.22087726681E+03  0.90744514107E+02 0.  0.
         23    2    1    2    0    0  0.14972141404E+03  0.46227001152E+02  0.17040930621E+03  0.24875394376E+03  0.91026125013E+02 0.  0.
        -11    1    4    4    0    0  0.10928450454E+03  0.26013201461E+02  0.55557859934E+02  0.12532543789E+03  0.00000000000E+00 0.  1.
         11    1    4    4    0    0  0.40436909495E+02  0.20213799691E+02  0.11485144628E+03  0.12342850586E+03  0.00000000000E+00 0. -1.
        -11    1    3    3    0    0 -0.92380057973E+01  0.40150726432E+02  0.24492633552E+02  0.47930268959E+02  0.00000000000E+00 0.  1.
         11    1    3    3    0    0 -0.41453194145E+02 -0.79372273576E+01  0.16771790954E+03  0.17294699785E+03  0.00000000000E+00 0. -1.
         21    1    1    2  503  502  0.27692991697E+01  0.25363961987E+02  0.33140501306E+02  0.41824543182E+02  0.00000000000E+00 0. -1.
          1    1    1    2  501    0 -0.10179951326E+03 -0.10380446221E+03 -0.16178755835E+03  0.21751717476E+03  0.00000000000E+00 0. -1.
<scales pt_clust_5="13000.00000" pt_clust_6="13000.00000" pt_clust_7="13000.00000" pt_clust_8="13000.00000" pt_clust_9="25.51469" pt_clust_10="144.76877"></scales>
<clustering>
<clus scale="   25.515">  1  9  2 -1</clus>
<clus scale="   90.745">  7  8 -1 -1</clus>
<clus scale="   91.026">  5  6 -1 -1</clus>
<clus scale="  112.305">  1  7  2 -1</clus>
<clus scale="  144.769">  2 10  1 -1</clus>
<clus scale="  144.769">  2  5  1 -1</clus>
</clustering>
</event>
<event>
10    2  0.3984345E-006  0.2487779E+03  0.7546771E-02  0.1114159E+00
         -2   -1    0    0    0  501 -0.00000000000E+00  0.00000000000E+00  0.20138552803E+03  0.20138552803E+03  0.00000000000E+00 0.  1.
         21   -1    0    0  503  502  0.00000000000E+00 -0.00000000000E+00 -0.98189929695E+03  0.98189929695E+03  0.00000000000E+00 0. -1.
         23    2    1    2    0    0  0.82333346344E+02  0.24789676945E+03  0.45204489023E+02  0.28035326711E+03  0.91230040712E+02 0.  0.
         23    2    1    2    0    0 -0.54381081063E+02 -0.10907966703E+03 -0.63148437660E+03  0.64938769564E+03  0.89867600492E+02 0.  0.
        -11    1    3    3    0    0 -0.19244132866E+02  0.60965847539E+02  0.11297041203E+02  0.64921447580E+02  0.00000000000E+00 0. -1.
         11    1    3    3    0    0  0.10157747921E+03  0.18693092191E+03  0.33907447820E+02  0.21543181953E+03  0.00000000000E+00 0.  1.
        -11    1    4    4    0    0  0.21474201826E+02 -0.27570496768E+02 -0.89431080539E+02  0.96016622532E+02  0.00000000000E+00 0.  1.
         11    1    4    4    0    0 -0.75855282889E+02 -0.81509170263E+02 -0.54205329606E+03  0.55337107311E+03  0.00000000000E+00 0. -1.
         21    1    1    2  503  501  0.17582380815E+02 -0.17714110627E+02 -0.69364356736E+01  0.25904516407E+02  0.00000000000E+00 0. -1.
         -2    1    1    2    0  502 -0.45534646095E+02 -0.12110299179E+03 -0.18729744567E+03  0.22763934583E+03  0.00000000000E+00 0.  1.
<scales pt_clust_5="13000.00000" pt_clust_6="13000.00000" pt_clust_7="13000.00000" pt_clust_8="13000.00000" pt_clust_9="24.95856" pt_clust_10="130.49479"></scales>
<clustering>
<clus scale="   24.959">  1  9  2 -1</clus>
<clus scale="   89.868">  7  8 -1 -1</clus>
<clus scale="   91.230">  5  6 -1 -1</clus>
<clus scale="  130.495">  2 10  1 -1</clus>
<clus scale="  248.282">  2  7  1 -1</clus>
<clus scale="  130.495">  2  5  1 -1</clus>
</clustering>
</event>
<event>
10    2  0.3984345E-006  0.1096860E+03  0.7546771E-02  0.1269684E+00
          1   -1    0    0  503    0 -0.00000000000E+00  0.00000000000E+00  0.80169366923E+03  0.80169366923E+03  0.00000000000E+00 0. -1.
         21   -1    0    0  501  502  0.00000000000E+00 -0.00000000000E+00 -0.14254858808E+03  0.14254858808E+03  0.00000000000E+00 0. -1.
         23    2    1    2    0    0  0.27098121863E+02  0.25445620406E+02  0.34708646359E+03  0.36103535055E+03  0.92172248183E+02 0.  0.
         23    2    1    2    0    0  0.87119497639E+01  0.24522552395E+02  0.18022953514E+03  0.21226978236E+03  0.10908034433E+03 0.  0.
        -13    1    4    4    0    0 -0.32276629679E+02  0.62321924042E+01  0.73844556889E+01  0.33692005452E+02  0.00000000000E+00 0.  1.
         13    1    4    4    0    0  0.40988579442E+02  0.18290359991E+02  0.17284507945E+03  0.17857777691E+03  0.00000000000E+00 0. -1.
        -13    1    3    3    0    0  0.74652839443E+01  0.59197295968E+02  0.18878766240E+03  0.19799199930E+03  0.00000000000E+00 0.  1.
         13    1    3    3    0    0  0.19632837918E+02 -0.33751675562E+02  0.15829880119E+03  0.16304335125E+03  0.00000000000E+00 0. -1.
         21    1    1    2  503  502 -0.33677110542E+02  0.18349846671E+01  0.24454963041E+03  0.24686440949E+03  0.00000000000E+00 0. -1.
          1    1    1    2  501    0 -0.21329610847E+01 -0.51803157469E+02 -0.11272054798E+03  0.12407271491E+03  0.00000000000E+00 0. -1.
<scales pt_clust_5="13000.00000" pt_clust_6="13000.00000" pt_clust_7="13000.00000" pt_clust_8="13000.00000" pt_clust_9="33.72707" pt_clust_10="51.84362"></scales>
<clustering>
<clus scale="   33.727">  1  9  2 -1</clus>
<clus scale="   51.844">  2 10  1 -1</clus>
<clus scale="   92.172">  7  8 -1 -1</clus>
<clus scale="   92.888">  1  7  2 -1</clus>
<clus scale="  109.080">  5  6 -1 -1</clus>
<clus scale="   51.844">  2  5  1 -1</clus>
</clustering>
</event>
<event>
10    2  0.3984345E-006  0.1196803E+03  0.7546771E-02  0.1247240E+00
         21   -1    0    0  501  502  0.00000000000E+00  0.00000000000E+00  0.11192078842E+03  0.11192078842E+03  0.00000000000E+00 0.  1.
          2   -1    0    0  503    0 -0.00000000000E+00 -0.00000000000E+00 -0.41844744085E+03  0.41844744085E+03  0.00000000000E+00 0. -1.
         23    2    1    2    0    0  0.26702185925E+02  0.40724986058E+01 -0.23338075262E+03  0.25570156882E+03  0.10093128665E+03 0.  0.
         23    2    1    2    0    0 -0.90173721760E+02 -0.17206709087E+02 -0.16861664723E+01  0.12914257724E+03  0.90816249451E+02 0.  0.
        -11    1    4    4    0    0 -0.37355023958E+02 -0.41832107174E+02  0.29153990996E+02  0.63208213047E+02  0.00000000000E+00 0.  1.
         11    1    4    4    0    0 -0.52818697802E+02  0.24625398088E+02 -0.30840157468E+02  0.65934364190E+02  0.00000000000E+00 0. -1.
        -13    1    3    3    0    0 -0.49935790007E+01  0.33729187762E+02 -0.19437880265E+03  0.19734668190E+03  0.00000000000E+00 0. -1.
         13    1    3    3    0    0  0.31695764926E+02 -0.29656689156E+02 -0.39001949975E+02  0.58354886922E+02  0.00000000000E+00 0.  1.
         21    1    1    2  503  502  0.35833635981E+02  0.23420043481E+02 -0.97308931128E+02  0.10630887066E+03  0.00000000000E+00 0. -1.
          2    1    1    2  501    0  0.27637899854E+02 -0.10285833000E+02  0.25849197796E+02  0.39215212552E+02  0.00000000000E+00 0. -1.
<scales pt_clust_5="13000.00000" pt_clust_6="13000.00000" pt_clust_7="13000.00000" pt_clust_8="13000.00000" pt_clust_9="43.82130" pt_clust_10="29.48986"></scales>
<clustering>
<clus scale="   29.490">  1 10  2 -1</clus>
<clus scale="   43.821">  2  9  1 -1</clus>
<clus scale="   90.816">  5  6 -1 -1</clus>
<clus scale="  100.931">  7  8 -1 -1</clus>
<clus scale="  111.283">  1  5  2 -1</clus>
<clus scale="   29.490">  1  5  2 -1</clus>
</clustering>
</event>
<event>
10    2  0.3984345E-006  0.1098389E+03  0.7546771E-02  0.1261937E+00
         21   -1    0    0  501  502  0.00000000000E+00  0.00000000000E+00  0.21637590953E+03  0.21637590953E+03  0.00000000000E+00 0.  1.
          2   -1    0    0  503    0 -0.00000000000E+00 -0.00000000000E+00 -0.27322675352E+03  0.27322675352E+03  0.00000000000E+00 0. -1.
         23    2    1    2    0    0  0.20711284230E+02  0.58963359065E+02  0.27035215992E+02  0.11360844551E+03  0.90941415097E+02 0.  0.
         23    2    1    2    0    0 -0.80027801469E+01 -0.53915101975E+02  0.22653730804E+02  0.11067692289E+03  0.93623218437E+02 0.  0.
        -11    1    3    3    0    0 -0.28517696825E+02  0.51342981241E+02  0.44120646714E+01  0.58896749228E+02  0.00000000000E+00 0.  1.
         11    1    3    3    0    0  0.49228981056E+02  0.76203778244E+01  0.22623151321E+02  0.54711696279E+02  0.00000000000E+00 0. -1.
        -11    1    4    4    0    0 -0.11942000433E+02 -0.17260349696E+02  0.56721534548E+02  0.60480273871E+02  0.00000000000E+00 0.  1.
         11    1    4    4    0    0  0.39392202857E+01 -0.36654752279E+02 -0.34067803744E+02  0.50196649022E+02  0.00000000000E+00 0. -1.
         21    1    1    2  503  502  0.31361421840E+00 -0.28308666737E+02 -0.18256858478E+03  0.18475055376E+03  0.00000000000E+00 0. -1.
          2    1    1    2  501    0 -0.13022118302E+02  0.23260409647E+02  0.76028793990E+02  0.80566740890E+02  0.00000000000E+00 0. -1.
<scales pt_clust_5="13000.00000" pt_clust_6="13000.00000" pt_clust_7="13000.00000" pt_clust_8="13000.00000" pt_clust_9="28.12567" pt_clust_10="26.65750"></scales>
<clustering>
<clus scale="   26.657">  1 10  2 -1</clus>
<clus scale="   28.126">  2  9  1 -1</clus>
<clus scale="   90.941">  5  6 -1 -1</clus>
<clus scale="   93.623">  7  8 -1 -1</clus>
<clus scale="  107.562">  2  5  1 -1</clus>
<clus scale="   26.657">  1  5  2 -1</clus>
</clustering>
</event>
<event>
10    2  0.3984345E-006  0.1057641E+03  0.7546771E-02  0.1269437E+00
          1   -1    0    0  503    0 -0.00000000000E+00  0.00000000000E+00  0.48352423462E+03  0.48352423462E+03  0.00000000000E+00 0. -1.
         21   -1    0    0  501  502  0.00000000000E+00 -0.00000000000E+00 -0.11881397184E+03  0.11881397184E+03  0.00000000000E+00 0. -1.
         23    2    1    2    0    0  0.42154588048E+02  0.24424652938E+01  0.82386634410E+02  0.13017740863E+03  0.91518442172E+02 0.  0.
         23    2    1    2    0    0 -0.60635052209E+02  0.14216535154E+02  0.11111989018E+03  0.15795560599E+03  0.93400342841E+02 0.  0.
        -11    1    3    3    0    0 -0.17341227143E+02  0.30372259439E+02  0.26012623079E+02  0.43587255725E+02  0.00000000000E+00 0. -1.
         11    1    3    3    0    0  0.59495815191E+02 -0.27929794145E+02  0.56374011331E+02  0.86590152903E+02  0.00000000000E+00 0.  1.
        -11    1    4    4    0    0 -0.70226677423E+02  0.42132686377E+02  0.72726672934E+02  0.10952679325E+03  0.00000000000E+00 0. -1.
         11    1    4    4    0    0  0.95916252144E+01 -0.27916151223E+02  0.38393217244E+02  0.48428812744E+02  0.00000000000E+00 0.  1.
         21    1    1    2  503  502 -0.54134349624E+02 -0.38711780513E+02  0.21604126244E+03  0.22605963115E+03  0.00000000000E+00 0. -1.
          1    1    1    2  501    0  0.72614813784E+02  0.22052780066E+02 -0.44837524247E+02  0.88145560695E+02  0.00000000000E+00 0. -1.
<scales pt_clust_5="13000.00000" pt_clust_6="13000.00000" pt_clust_7="13000.00000" pt_clust_8="13000.00000" pt_clust_9="66.55171" pt_clust_10="70.71008"></scales>
<clustering>
<clus scale="   66.552">  1  9  2 -1</clus>
<clus scale="   70.710">  2 10  1 -1</clus>
<clus scale="   91.518">  5  6 -1 -1</clus>
<clus scale="   93.400">  7  8 -1 -1</clus>
<clus scale="  104.106">  1  5  2 -1</clus>
<clus scale="   70.710">  2  5  1 -1</clus>
</clustering>
</event>
<event>
10    2  0.3984345E-006  0.1417684E+03  0.7546771E-02  0.1211053E+00
          1   -1    0    0  503    0 -0.00000000000E+00  0.00000000000E+00  0.26283056744E+03  0.26283056744E+03  0.00000000000E+00 0. -1.
         21   -1    0    0  501  502  0.00000000000E+00 -0.00000000000E+00 -0.33694679461E+03  0.33694679461E+03  0.00000000000E+00 0.  1.
         23    2    1    2    0    0 -0.38420121365E+02  0.10172576885E+03  0.15482613859E+03  0.20990463801E+03  0.90909768964E+02 0.  0.
         23    2    1    2    0    0  0.13293149154E+03 -0.69258133907E+02 -0.20905096866E+03  0.27295773025E+03  0.91302488737E+02 0.  0.
        -11    1    3    3    0    0 -0.31051514265E+02 -0.17085434118E+01  0.67563665205E+02  0.74377177377E+02  0.00000000000E+00 0.  1.
         11    1    3    3    0    0 -0.73686070998E+01  0.10343431226E+03  0.87262473388E+02  0.13552746063E+03  0.00000000000E+00 0. -1.
        -13    1    4    4    0    0  0.99948942751E+02 -0.88712417793E+02 -0.13713767738E+03  0.19148479518E+03  0.00000000000E+00 0.  1.
         13    1    4    4    0    0  0.32982548784E+02  0.19454283886E+02 -0.71913291276E+02  0.81472935065E+02  0.00000000000E+00 0. -1.
         21    1    1    2  503  502 -0.24391519939E+02 -0.17968976755E+02  0.18672076833E+02  0.35587593678E+02  0.00000000000E+00 0. -1.
          1    1    1    2  501    0 -0.70119850232E+02 -0.14498658192E+02 -0.38563473934E+02  0.81327400105E+02  0.00000000000E+00 0. -1.
<scales pt_clust_5="13000.00000" pt_clust_6="13000.00000" pt_clust_7="13000.00000" pt_clust_8="13000.00000" pt_clust_9="30.29572" pt_clust_10="74.10895"></scales>
<clustering>
<clus scale="   30.296">  1  9  2 -1</clus>
<clus scale="   74.109">  2 10  1 -1</clus>
<clus scale="   90.910">  5  6 -1 -1</clus>
<clus scale="   91.302">  7  8 -1 -1</clus>
<clus scale="  141.516">  1  5  2 -1</clus>
<clus scale="   74.109">  2  5  1 -1</clus>
</clustering>
</event>
<event>
10    2  0.3984345E-006  0.9668195E+02  0.7546771E-02  0.1290112E+00
         -4   -1    0    0    0  501 -0.00000000000E+00  0.00000000000E+00  0.26921894339E+03  0.26921894339E+03  0.00000000000E+00 0.  1.
         21   -1    0    0  503  502  0.00000000000E+00 -0.00000000000E+00 -0.11230919296E+03  0.11230919296E+03  0.00000000000E+00 0. -1.
         23    2    1    2    0    0  0.89139603696E+01 -0.19393988963E+01  0.68835445753E+02  0.11544628759E+03  0.92229641489E+02 0.  0.
         23    2    1    2    0    0 -0.46433006649E+02  0.27528592056E+02  0.80691332197E+02  0.13052550851E+03  0.87246603335E+02 0.  0.
        -13    1    3    3    0    0  0.30891549212E+02 -0.32917967657E+02  0.11353303018E+02  0.46548661601E+02  0.00000000000E+00 0.  1.
         13    1    3    3    0    0 -0.21977588843E+02  0.30978568761E+02  0.57482142736E+02  0.68897625992E+02  0.00000000000E+00 0. -1.
        -13    1    4    4    0    0 -0.59255289383E+02  0.84766508735E+01  0.16118717991E+02  0.61990773504E+02  0.00000000000E+00 0. -1.
         13    1    4    4    0    0  0.12822282734E+02  0.19051941183E+02  0.64572614205E+02  0.68534735008E+02  0.00000000000E+00 0.  1.
         21    1    1    2  503  501 -0.30683037895E+02  0.54996106284E+01  0.42563267481E+02  0.52757239031E+02  0.00000000000E+00 0. -1.
         -4    1    1    2    0  502  0.68202084175E+02 -0.31088803788E+02 -0.35180295002E+02  0.82799101222E+02  0.00000000000E+00 0.  1.
<scales pt_clust_5="13000.00000" pt_clust_6="13000.00000" pt_clust_7="13000.00000" pt_clust_8="13000.00000" pt_clust_9="31.17202" pt_clust_10="71.71295"></scales>
<clustering>
<clus scale="   31.172">  1  9  2 -1</clus>
<clus scale="   71.713">  2 10  1 -1</clus>
<clus scale="   87.247">  7  8 -1 -1</clus>
<clus scale="   91.941">  2  7  1 -1</clus>
<clus scale="   92.230">  5  6 -1 -1</clus>
<clus scale="   71.713">  2  5  1 -1</clus>
</clustering>
</event>
<event>
10    2  0.3984345E-006  0.9500624E+02  0.7546771E-02  0.1292684E+00
         21   -1    0    0  501  502  0.00000000000E+00  0.00000000000E+00  0.49366658143E+03  0.49366658143E+03  0.00000000000E+00 0.  1.
          4   -1    0    0  503    0 -0.00000000000E+00 -0.00000000000E+00 -0.75962810151E+02  0.75962810151E+02  0.00000000000E+00 0. -1.
         23    2    1    2    0    0 -0.38218917566E+02  0.16558800085E+02  0.77169751226E+01  0.10239622669E+03  0.93223151709E+02 0.  0.
         23    2    1    2    0    0 -0.17683349667E+02  0.14504154839E+02  0.21987184152E+03  0.23886949884E+03  0.90509333320E+02 0.  0.
        -13    1    4    4    0    0  0.20325214574E+02 -0.29002721320E+02  0.90598691258E+02  0.97274842838E+02  0.00000000000E+00 0.  1.
         13    1    4    4    0    0 -0.38008564241E+02  0.43506876159E+02  0.12927315026E+03  0.14159465600E+03  0.00000000000E+00 0. -1.
        -13    1    3    3    0    0  0.18685424459E+02  0.20638331405E+02 -0.24319257256E+02  0.36966364223E+02  0.00000000000E+00 0. -1.
         13    1    3    3    0    0 -0.56904342025E+02 -0.40795313204E+01  0.32036232378E+02  0.65429862464E+02  0.00000000000E+00 0.  1.
         21    1    1    2  503  502  0.14260606595E+02 -0.17475729224E+02 -0.91500906819E+01  0.24341121006E+02  0.00000000000E+00 0. -1.
          4    1    1    2  501    0  0.41641660639E+02 -0.13587225700E+02  0.19926504532E+03  0.20402254505E+03  0.00000000000E+00 0. -1.
<scales pt_clust_5="13000.00000" pt_clust_6="13000.00000" pt_clust_7="13000.00000" pt_clust_8="13000.00000" pt_clust_9="22.55584" pt_clust_10="44.56733"></scales>
<clustering>
<clus scale="   22.556">  2  9  1 -1</clus>
<clus scale="   44.567">  1 10  2 -1</clus>
<clus scale="   90.509">  5  6 -1 -1</clus>
<clus scale="   92.345">  1  5  2 -1</clus>
<clus scale="   93.223">  7  8 -1 -1</clus>
<clus scale="   44.567">  1  5  2 -1</clus>
</clustering>
</event>
<event>
10    2  0.3984345E-006  0.3047829E+03  0.7546771E-02  0.1082891E+00
          1   -1    0    0  503    0 -0.00000000000E+00  0.00000000000E+00  0.25502015816E+04  0.25502015816E+04  0.00000000000E+00 0. -1.
         21   -1    0    0  501  502  0.00000000000E+00 -0.00000000000E+00 -0.51178881734E+02  0.51178881734E+02  0.00000000000E+00 0. -1.
         23    2    1    2    0    0 -0.19231654614E+03  0.23746337630E+03  0.14698624320E+04  0.15040696856E+04  0.91408649903E+02 0.  0.
         23    2    1    2    0    0  0.18523598262E+03 -0.22311445128E+03  0.74024589057E+03  0.80030990863E+03  0.91866989277E+02 0.  0.
        -11    1    3    3    0    0 -0.85612374766E+02  0.17619611543E+03  0.89574745529E+03  0.91691769176E+03  0.00000000000E+00 0.  1.
         11    1    3    3    0    0 -0.10670417137E+03  0.61267260874E+02  0.57411497666E+03  0.58715199384E+03  0.00000000000E+00 0. -1.
        -13    1    4    4    0    0  0.14880007442E+03 -0.17511783349E+03  0.66691513048E+03  0.70539599447E+03  0.00000000000E+00 0. -1.
         13    1    4    4    0    0  0.36435908197E+02 -0.47996617793E+02  0.73330760096E+02  0.94913914164E+02  0.00000000000E+00 0.  1.
         21    1    1    2  503  502  0.11599629128E+01 -0.40962676182E+02  0.15398591923E+03  0.15934537858E+03  0.00000000000E+00 0. -1.
          1    1    1    2  501    0  0.59206006100E+01  0.26613751158E+02  0.13492845814E+03  0.13765549055E+03  0.00000000000E+00 0. -1.
<scales pt_clust_5="13000.00000" pt_clust_6="13000.00000" pt_clust_7="13000.00000" pt_clust_8="13000.00000" pt_clust_9="39.55867" pt_clust_10="27.26437"></scales>
<clustering>
<clus scale="   27.264">  2 10  1 -1</clus>
<clus scale="   39.559">  1  9  2 -1</clus>
<clus scale="   91.409">  5  6 -1 -1</clus>
<clus scale="   91.867">  7  8 -1 -1</clus>
<clus scale="  304.645">  1  5  2 -1</clus>
<clus scale="   27.264">  2  5  1 -1</clus>
</clustering>
</event>
<event>
10    2  0.3984345E-006  0.1351235E+03  0.7546771E-02  0.1220584E+00
          1   -1    0    0  503    0 -0.00000000000E+00  0.00000000000E+00  0.72729704526E+03  0.72729704526E+03  0.00000000000E+00 0. -1.
         21   -1    0    0  501  502  0.00000000000E+00 -0.00000000000E+00 -0.42367521986E+02  0.42367521986E+02  0.00000000000E+00 0.  1.
         23    2    1    2    0    0 -0.20358496092E+01  0.10363481813E+03  0.31742638851E+03  0.34683112833E+03  0.93744329154E+02 0.  0.
         23    2    1    2    0    0 -0.23650471084E+02 -0.82801850444E+02  0.15481751826E+03  0.19940959255E+03  0.91543598477E+02 0.  0.
        -11    1    3    3    0    0 -0.27342960986E+02  0.77673951283E+02  0.11652597001E+03  0.14268560513E+03  0.00000000000E+00 0.  1.
         11    1    3    3    0    0  0.25307111377E+02  0.25960866845E+02  0.20090041850E+03  0.20414552321E+03  0.00000000000E+00 0. -1.
        -13    1    4    4    0    0  0.17942684526E+02 -0.82141426100E+02  0.10278904002E+03  0.13279586047E+03  0.00000000000E+00 0. -1.
         13    1    4    4    0    0 -0.41593155610E+02 -0.66042434424E+00  0.52028478237E+02  0.66613732080E+02  0.00000000000E+00 0.  1.
         21    1    1    2  503  502  0.29001714149E+02  0.10871252502E+02  0.60859015119E+02  0.68286918776E+02  0.00000000000E+00 0. -1.
          1    1    1    2  501    0 -0.33153934566E+01 -0.31704220185E+02  0.15182660139E+03  0.15513692759E+03  0.00000000000E+00 0. -1.
<scales pt_clust_5="13000.00000" pt_clust_6="13000.00000" pt_clust_7="13000.00000" pt_clust_8="13000.00000" pt_clust_9="30.97230" pt_clust_10="29.38404"></scales>
<clustering>
<clus scale="   30.972">  1  9  2 -1</clus>
<clus scale="   29.384">  2 10  1 -1</clus>
<clus scale="   91.544">  7  8 -1 -1</clus>
<clus scale="   93.744">  5  6 -1 -1</clus>
<clus scale="  133.606">  2  7  1 -1</clus>
<clus scale="   29.384">  2  5  1 -1</clus>
</clustering>
</event>
<event>
10    2  0.3984345E-006  0.1368551E+03  0.7546771E-02  0.1236784E+00
         21   -1    0    0  501  502  0.00000000000E+00  0.00000000000E+00  0.23304942044E+03  0.23304942044E+03  0.00000000000E+00 0.  1.
          1   -1    0    0  503    0 -0.00000000000E+00 -0.00000000000E+00 -0.33957239867E+03  0.33957239867E+03  0.00000000000E+00 0. -1.
         23    2    1    2    0    0 -0.26440733626E+02 -0.93035938336E+01 -0.21644799569E+03  0.23524806290E+03  0.87785232301E+02 0.  0.
         23    2    1    2    0    0  0.59087494185E+02 -0.59395875523E+02  0.12925683432E+03  0.18144856858E+03  0.95901260794E+02 0.  0.
        -11    1    4    4    0    0  0.67637894321E+02 -0.44130501067E+01  0.92827918562E+02  0.11494077703E+03  0.00000000000E+00 0.  1.
         11    1    4    4    0    0 -0.85504001362E+01 -0.54982825416E+02  0.36428915756E+02  0.66507791546E+02  0.00000000000E+00 0. -1.
        -13    1    3    3    0    0 -0.12125506266E+01  0.29202433688E+02 -0.25368770905E+02  0.38701769333E+02  0.00000000000E+00 0.  1.
         13    1    3    3    0    0 -0.25228183000E+02 -0.38506027521E+02 -0.19107922478E+03  0.19654629357E+03  0.00000000000E+00 0. -1.
         21    1    1    2  503  502 -0.50411073739E+02  0.80611642331E+02 -0.58261039898E+02  0.11150722849E+03  0.00000000000E+00 0.  1.
          1    1    1    2  501    0  0.17764313180E+02 -0.11912172974E+02  0.38929223037E+02  0.44417959138E+02  0.00000000000E+00 0. -1.
<scales pt_clust_5="13000.00000" pt_clust_6="13000.00000" pt_clust_7="13000.00000" pt_clust_8="13000.00000" pt_clust_9="97.63328" pt_clust_10="21.38856"></scales>
<clustering>
<clus scale="   21.389">  1 10  2 -1</clus>
<clus scale="   87.785">  7  8 -1 -1</clus>
<clus scale="   91.966">  2  7  1 -1</clus>
<clus scale="   95.901">  5  6 -1 -1</clus>
<clus scale="   97.633">  2  9  1 -1</clus>
<clus scale="   21.389">  1  5  2 -1</clus>
</clustering>
</event>
<event>
10    2  0.3984345E-006  0.2925708E+03  0.7546771E-02  0.1089080E+00
         21   -1    0    0  501  502  0.00000000000E+00  0.00000000000E+00  0.73740595982E+03  0.73740595982E+03  0.00000000000E+00 0. -1.
          1   -1    0    0  503    0 -0.00000000000E+00 -0.00000000000E+00 -0.55711960061E+03  0.55711960061E+03  0.00000000000E+00 0. -1.
         23    2    1    2    0    0  0.64790532824E+02  0.28317642142E+03 -0.38306023607E+03  0.48935938674E+03  0.91382526436E+02 0.  0.
         23    2    1    2    0    0 -0.21402171820E+02 -0.22777072095E+03  0.50823082698E+03  0.56505312099E+03  0.92999471819E+02 0.  0.
        -11    1    3    3    0    0  0.49556519696E+02  0.56928754164E+02 -0.12310006963E+03  0.14439653333E+03  0.00000000000E+00 0.  1.
         11    1    3    3    0    0  0.15234013128E+02  0.22624766726E+03 -0.25996016644E+03  0.34496285341E+03  0.00000000000E+00 0. -1.
        -11    1    4    4    0    0 -0.54262243534E+02 -0.93696238983E+02  0.20342774864E+03  0.23044787955E+03  0.00000000000E+00 0.  1.
         11    1    4    4    0    0  0.32860071714E+02 -0.13407448197E+03  0.30480307835E+03  0.33460524144E+03  0.00000000000E+00 0. -1.
         21    1    1    2  503  502 -0.21558078131E+02 -0.50350021979E+01 -0.85942782227E+02  0.88748317149E+02  0.00000000000E+00 0. -1.
          1    1    1    2  501    0 -0.21830282873E+02 -0.50370698271E+02  0.14105855052E+03  0.15136473555E+03  0.00000000000E+00 0. -1.
<scales pt_clust_5="13000.00000" pt_clust_6="13000.00000" pt_clust_7="13000.00000" pt_clust_8="13000.00000" pt_clust_9="22.13825" pt_clust_10="55.04286"></scales>
<clustering>
<clus scale="   22.138">  2  9  1 -1</clus>
<clus scale="   55.043">  1 10  2 -1</clus>
<clus scale="   91.383">  5  6 -1 -1</clus>
<clus scale="   92.999">  7  8 -1 -1</clus>
<clus scale="  292.061">  2  5  1 -1</clus>
<clus scale="   55.043">  1  5  2 -1</clus>
</clustering>
</event>
<event>
10    2  0.3984345E-006  0.1091522E+03  0.7546771E-02  0.1262736E+00
         21   -1    0    0  501  502  0.00000000000E+00  0.00000000000E+00  0.25993764581E+03  0.25993764581E+03  0.00000000000E+00 0.  1.
          2   -1    0    0  503    0 -0.00000000000E+00 -0.00000000000E+00 -0.10477053754E+03  0.10477053754E+03  0.00000000000E+00 0. -1.
         23    2    1    2    0    0 -0.43609875139E+02  0.34773059273E+02  0.59564102672E+02  0.12285674417E+03  0.91841768280E+02 0.  0.
         23    2    1    2    0    0  0.32565382948E+02 -0.45985283245E+02  0.88489536155E+02  0.14039777388E+03  0.93305875813E+02 0.  0.
        -11    1    3    3    0    0 -0.19637085635E+02 -0.31012751247E+02  0.27394977241E+02  0.45802736274E+02  0.00000000000E+00 0.  1.
         11    1    3    3    0    0 -0.23972789504E+02  0.65785810519E+02  0.32169125430E+02  0.77054007898E+02  0.00000000000E+00 0. -1.
        -13    1    4    4    0    0 -0.59260212611E+01 -0.45006523904E+02  0.16728945865E+01  0.45425802119E+02  0.00000000000E+00 0.  1.
         13    1    4    4    0    0  0.38491404209E+02 -0.97875934117E+00  0.86816641568E+02  0.94971971765E+02  0.00000000000E+00 0. -1.
         21    1    1    2  503  502 -0.18225950931E+02  0.98551656034E+01 -0.40530885061E+02  0.45519910152E+02  0.00000000000E+00 0. -1.
          2    1    1    2  501    0  0.29270443122E+02  0.13570583690E+01  0.47644354501E+02  0.55933755138E+02  0.00000000000E+00 0. -1.
<scales pt_clust_5="13000.00000" pt_clust_6="13000.00000" pt_clust_7="13000.00000" pt_clust_8="13000.00000" pt_clust_9="20.71979" pt_clust_10="28.11956"></scales>
<clustering>
<clus scale="   20.720">  2  9  1 -1</clus>
<clus scale="   28.120">  1 10  2 -1</clus>
<clus scale="   91.842">  5  6 -1 -1</clus>
<clus scale="   93.306">  7  8 -1 -1</clus>
<clus scale="  107.903">  2  5  1 -1</clus>
<clus scale="   28.120">  1  5  2 -1</clus>
</clustering>
</event>
<event>
10    2  0.3984345E-006  0.1113804E+03  0.7546771E-02  0.1258406E+00
         21   -1    0    0  501  502  0.00000000000E+00  0.00000000000E+00  0.26764546301E+03  0.26764546301E+03  0.00000000000E+00 0. -1.
          1   -1    0    0  503    0 -0.00000000000E+00 -0.00000000000E+00 -0.12543943237E+03  0.12543943237E+03  0.00000000000E+00 0. -1.
         23    2    1    2    0    0 -0.15441316443E+02  0.58184133629E+02 -0.57296423197E+01  0.11106264546E+03  0.93157150856E+02 0.  0.
         23    2    1    2    0    0  0.53079627957E+01 -0.62383816206E+02  0.16052634451E+02  0.11258566571E+03  0.92184218046E+02 0.  0.
        -13    1    3    3    0    0 -0.26233715942E+02 -0.17017337594E+02 -0.14718900741E+02  0.34560724384E+02  0.00000000000E+00 0.  1.
         13    1    3    3    0    0  0.10792399500E+02  0.75201471224E+02  0.89892584213E+01  0.76501921075E+02  0.00000000000E+00 0. -1.
        -13    1    4    4    0    0 -0.30054600362E+02 -0.65818507959E+02 -0.27105456619E+01  0.72406505582E+02  0.00000000000E+00 0. -1.
         13    1    4    4    0    0  0.35362563158E+02  0.34346917530E+01  0.18763180113E+02  0.40179160127E+02  0.00000000000E+00 0.  1.
         21    1    1    2  503  502 -0.30837861175E+02  0.37790023268E+02  0.38774897839E+02  0.62310129537E+02  0.00000000000E+00 0.  1.
          1    1    1    2  501    0  0.40971214822E+02 -0.33590340692E+02  0.93108140672E+02  0.10712645468E+03  0.00000000000E+00 0. -1.
<scales pt_clust_5="13000.00000" pt_clust_6="13000.00000" pt_clust_7="13000.00000" pt_clust_8="13000.00000" pt_clust_9="48.77560" pt_clust_10="31.25435"></scales>
<clustering>
<clus scale="   48.776">  1  9  2 -1</clus>
<clus scale="   31.254">  1 10  2 -1</clus>
<clus scale="   92.184">  7  8 -1 -1</clus>
<clus scale="   93.157">  5  6 -1 -1</clus>
<clus scale="  110.568">  1  7  2 -1</clus>
<clus scale="   48.776">  1  5  2 -1</clus>
</clustering>
</event>
<event>
10    2  0.3984345E-006  0.1425596E+03  0.7546771E-02  0.1210883E+00
          2   -1    0    0  503    0 -0.00000000000E+00  0.00000000000E+00  0.12740553740E+04  0.12740553740E+04  0.00000000000E+00 0. -1.
         21   -1    0    0  501  502  0.00000000000E+00 -0.00000000000E+00 -0.50009286936E+02  0.50009286936E+02  0.00000000000E+00 0.  1.
         23    2    1    2    0    0  0.76033417429E+02  0.90308333764E+01  0.44254197936E+03  0.45913309119E+03  0.95379009296E+02 0.  0.
         23    2    1    2    0    0 -0.11793113112E+03  0.89759007770E+02  0.38130646430E+03  0.41909787877E+03  0.91016378269E+02 0.  0.
        -11    1    3    3    0    0  0.84210420783E+01  0.44882695201E+02  0.15586929151E+03  0.16242107718E+03  0.00000000000E+00 0.  1.
         11    1    3    3    0    0  0.67612375350E+02 -0.35851861825E+02  0.28667268785E+03  0.29671201401E+03  0.00000000000E+00 0. -1.
        -11    1    4    4    0    0 -0.75649147417E+02  0.10422182330E+03  0.26940121193E+03  0.29860005851E+03  0.00000000000E+00 0.  1.
         11    1    4    4    0    0 -0.42281983699E+02 -0.14462815530E+02  0.11190525237E+03  0.12049782026E+03  0.00000000000E+00 0. -1.
         21    1    1    2  503  502  0.36012264932E+02 -0.67208913872E+02  0.40607856742E+03  0.41317517381E+03  0.00000000000E+00 0. -1.
          2    1    1    2  501    0  0.58854487546E+01 -0.31580927274E+02 -0.58809240389E+01  0.32658517144E+02  0.00000000000E+00 0. -1.
<scales pt_clust_5="13000.00000" pt_clust_6="13000.00000" pt_clust_7="13000.00000" pt_clust_8="13000.00000" pt_clust_9="79.79106" pt_clust_10="32.12466"></scales>
<clustering>
<clus scale="   32.125">  2 10  1 -1</clus>
<clus scale="   79.791">  1  9  2 -1</clus>
<clus scale="   91.016">  7  8 -1 -1</clus>
<clus scale="   95.379">  5  6 -1 -1</clus>
<clus scale="  139.678">  2  7  1 -1</clus>
<clus scale="   32.125">  2  5  1 -1</clus>
</clustering>
</event>
<event>
10    2  0.3984345E-006  0.1126556E+03  0.7546771E-02  0.1257353E+00
         -2   -1    0    0    0  501 -0.00000000000E+00  0.00000000000E+00  0.10924369991E+03  0.10924369991E+03  0.00000000000E+00 0.  1.
         21   -1    0    0  503  502  0.00000000000E+00 -0.00000000000E+00 -0.64340401892E+03  0.64340401892E+03  0.00000000000E+00 0.  1.
         23    2    1    2    0    0  0.24829529386E+02  0.29223907782E+02 -0.10242231463E+03  0.14546841201E+03  0.95917600281E+02 0.  0.
         23    2    1    2    0    0 -0.77312849735E+02 -0.23818974879E+02 -0.75770393977E+02  0.14386522009E+03  0.91713841107E+02 0.  0.
        -13    1    3    3    0    0  0.15419497305E+02 -0.33002903261E+02 -0.19346827352E+02  0.41246239215E+02  0.00000000000E+00 0.  1.
         13    1    3    3    0    0  0.94100320813E+01  0.62226811042E+02 -0.83075487277E+02  0.10422217280E+03  0.00000000000E+00 0. -1.
        -13    1    4    4    0    0  0.14708118545E+02  0.14893766905E+02 -0.22416015370E+02  0.30669704740E+02  0.00000000000E+00 0. -1.
         13    1    4    4    0    0 -0.92020968280E+02 -0.38712741784E+02 -0.53354378607E+02  0.11319551535E+03  0.00000000000E+00 0.  1.
         21    1    1    2  503  501 -0.16257150337E+01 -0.24779645402E+02  0.48657248084E+02  0.54627846075E+02  0.00000000000E+00 0.  1.
         -2    1    1    2    0  502  0.54109035383E+02  0.19374712499E+02 -0.40462485848E+03  0.40868624065E+03  0.00000000000E+00 0.  1.
<scales pt_clust_5="13000.00000" pt_clust_6="13000.00000" pt_clust_7="13000.00000" pt_clust_8="13000.00000" pt_clust_9="24.83292" pt_clust_10="57.13038"></scales>
<clustering>
<clus scale="   24.833">  1  9  2 -1</clus>
<clus scale="   57.130">  2 10  1 -1</clus>
<clus scale="   91.714">  7  8 -1 -1</clus>
<clus scale="   95.918">  5  6 -1 -1</clus>
<clus scale="  109.099">  2  7  1 -1</clus>
<clus scale="   57.130">  2  5  1 -1</clus>
</clustering>
</event>
<event>
10    2  0.3984345E-006  0.1342865E+03  0.7546771E-02  0.1229390E+00
         21   -1    0    0  501  502  0.00000000000E+00  0.00000000000E+00  0.42121848008E+03  0.42121848008E+03  0.00000000000E+00 0.  1.
          1   -1    0    0  503    0 -0.00000000000E+00 -0.00000000000E+00 -0.26311289758E+03  0.26311289758E+03  0.00000000000E+00 0. -1.
         23    2    1    2    0    0 -0.29906277246E+02 -0.30653903967E+02 -0.75148876154E+02  0.12624158061E+03  0.91953987634E+02 0.  0.
         23    2    1    2    0    0  0.15074568178E+02  0.52574414044E+02  0.29257637397E+03  0.31975034520E+03  0.11682481342E+03 0.  0.
        -11    1    4    4    0    0  0.62279856069E+02  0.12960642255E+02  0.18676780323E+03  0.19730426008E+03  0.00000000000E+00 0.  1.
         11    1    4    4    0    0 -0.47205287891E+02  0.39613771789E+02  0.10580857074E+03  0.12244608512E+03  0.00000000000E+00 0. -1.
        -11    1    3    3    0    0 -0.18400435014E+01  0.20461554829E+02 -0.63546298643E+02  0.66784676816E+02  0.00000000000E+00 0.  1.
         11    1    3    3    0    0 -0.28066233744E+02 -0.51115458796E+02 -0.11602577510E+02  0.59456903799E+02  0.00000000000E+00 0. -1.
         21    1    1    2  503  502  0.32588390886E+02 -0.44137137331E+02 -0.14129486612E+03  0.15157285148E+03  0.00000000000E+00 0. -1.
          1    1    1    2  501    0 -0.17756681818E+02  0.22216627255E+02  0.81972950809E+02  0.86766600371E+02  0.00000000000E+00 0. -1.
<scales pt_clust_5="13000.00000" pt_clust_6="13000.00000" pt_clust_7="13000.00000" pt_clust_8="13000.00000" pt_clust_9="54.43071" pt_clust_10="28.44079"></scales>
<clustering>
<clus scale="   28.441">  1 10  2 -1</clus>
<clus scale="   54.431">  2  9  1 -1</clus>
<clus scale="   91.954">  7  8 -1 -1</clus>
<clus scale="  113.315">  2  7  1 -1</clus>
<clus scale="  116.825">  5  6 -1 -1</clus>
<clus scale="   28.441">  1  5  2 -1</clus>
</clustering>
</event>
<event>
10    2  0.3984345E-006  0.9696469E+02  0.7546771E-02  0.1286884E+00
          3   -1    0    0  503    0 -0.00000000000E+00  0.00000000000E+00  0.17088062118E+03  0.17088062118E+03  0.00000000000E+00 0. -1.
         21   -1    0    0  501  502  0.00000000000E+00 -0.00000000000E+00 -0.30639320406E+03  0.30639320406E+03  0.00000000000E+00 0.  1.
         23    2    1    2    0    0  0.36125217221E+02  0.52024709889E+02  0.92527515614E+01  0.11295550954E+03  0.93068426257E+02 0.  0.
         23    2    1    2    0    0 -0.30555593785E+02  0.48434822018E+01 -0.94628670751E+02  0.13637804825E+03  0.93205595779E+02 0.  0.
        -11    1    4    4    0    0  0.29027283629E+02  0.15063173584E+02 -0.55337328073E+02  0.64278318830E+02  0.00000000000E+00 0.  1.
         11    1    4    4    0    0 -0.59582877414E+02 -0.10219691382E+02 -0.39291342678E+02  0.72099729419E+02  0.00000000000E+00 0. -1.
        -13    1    3    3    0    0  0.47332681009E+02  0.73222263599E+02  0.14562811783E+02  0.88396595325E+02  0.00000000000E+00 0.  1.
         13    1    3    3    0    0 -0.11207463789E+02 -0.21197553710E+02 -0.53100602217E+01  0.24558914215E+02  0.00000000000E+00 0. -1.
         21    1    1    2  503  502 -0.33316713680E+02 -0.39147098109E+02  0.79232624977E+02  0.94447379855E+02  0.00000000000E+00 0. -1.
          3    1    1    2  501    0  0.27747090244E+02 -0.17721093981E+02 -0.12936928866E+03  0.13349288759E+03  0.00000000000E+00 0. -1.
<scales pt_clust_5="13000.00000" pt_clust_6="13000.00000" pt_clust_7="13000.00000" pt_clust_8="13000.00000" pt_clust_9="51.22973" pt_clust_10="32.92322"></scales>
<clustering>
<clus scale="   32.923">  2 10  1 -1</clus>
<clus scale="   51.230">  1  9  2 -1</clus>
<clus scale="   93.068">  7  8 -1 -1</clus>
<clus scale="   93.206">  5  6 -1 -1</clus>
<clus scale="   96.833">  1  7  2 -1</clus>
<clus scale="   32.923">  2  5  1 -1</clus>
</clustering>
</event>
<event>
10    2  0.3984345E-006  0.1170919E+03  0.7546771E-02  0.1248147E+00
          2   -1    0    0  503    0 -0.00000000000E+00  0.00000000000E+00  0.10668888439E+03  0.10668888439E+03  0.00000000000E+00 0. -1.
         21   -1    0    0  501  502  0.00000000000E+00 -0.00000000000E+00 -0.28937047826E+03  0.28937047826E+03  0.00000000000E+00 0. -1.
         23    2    1    2    0    0 -0.54294836655E+02  0.65572161259E+02 -0.11931673794E+02  0.12552462632E+03  0.91468187657E+02 0.  0.
         23    2    1    2    0    0  0.25028124321E+02 -0.54625702783E+02 -0.45589051493E+02  0.11895675419E+03  0.91988984885E+02 0.  0.
        -13    1    3    3    0    0 -0.31825558374E+02 -0.19133584890E+02 -0.66952784883E+01  0.37733102053E+02  0.00000000000E+00 0.  1.
         13    1    3    3    0    0 -0.22469278282E+02  0.84705746148E+02 -0.52363953053E+01  0.87791524265E+02  0.00000000000E+00 0. -1.
        -13    1    4    4    0    0  0.54138278411E+02 -0.47659344243E+02 -0.51266718531E+02  0.88490918811E+02  0.00000000000E+00 0.  1.
         13    1    4    4    0    0 -0.29110154090E+02 -0.69663585398E+01  0.56776670381E+01  0.30465835381E+02  0.00000000000E+00 0. -1.
         21    1    1    2  503  502 -0.15392385015E+02 -0.17137015961E+02 -0.54677092179E+01  0.23674853254E+02  0.00000000000E+00 0.  1.
          2    1    1    2  501    0  0.44659097349E+02  0.61905574851E+01 -0.11969315937E+03  0.12790312888E+03  0.00000000000E+00 0. -1.
<scales pt_clust_5="13000.00000" pt_clust_6="13000.00000" pt_clust_7="13000.00000" pt_clust_8="13000.00000" pt_clust_9="23.03482" pt_clust_10="44.35019"></scales>
<clustering>
<clus scale="   23.035">  1  9  2 -1</clus>
<clus scale="   44.350">  2 10  1 -1</clus>
<clus scale="   91.468">  5  6 -1 -1</clus>
<clus scale="   91.989">  7  8 -1 -1</clus>
<clus scale="  116.683">  1  5  2 -1</clus>
<clus scale="   44.350">  2  5  1 -1</clus>
</clustering>
</event>
<event>
10    2  0.3984345E-006  0.2839324E+03  0.7546771E-02  0.1119566E+00
         21   -1    0    0  501  502  0.00000000000E+00  0.00000000000E+00  0.87421221738E+02  0.87421221738E+02  0.00000000000E+00 0. -1.
          2   -1    0    0  503    0 -0.00000000000E+00 -0.00000000000E+00 -0.16758486838E+04  0.16758486838E+04  0.00000000000E+00 0. -1.
         23    2    1    2    0    0 -0.92439702618E+02  0.57231172333E+02 -0.31414852735E+03  0.34494377634E+03  0.92067398650E+02 0.  0.
         23    2    1    2    0    0  0.29280872458E+03  0.77687872950E+02 -0.77647212319E+03  0.83839872279E+03  0.90725440132E+02 0.  0.
        -11    1    3    3    0    0 -0.21035772947E+02 -0.17927154667E+02 -0.23224873642E+02  0.36100988541E+02  0.00000000000E+00 0.  1.
         11    1    3    3    0    0 -0.71403929671E+02  0.75158327000E+02 -0.29092365371E+03  0.30884278780E+03  0.00000000000E+00 0. -1.
        -13    1    4    4    0    0  0.10765098235E+03  0.80828468982E+01 -0.38414337699E+03  0.39902406005E+03  0.00000000000E+00 0. -1.
         13    1    4    4    0    0  0.18515774223E+03  0.69605026052E+02 -0.39232874620E+03  0.43937466274E+03  0.00000000000E+00 0.  1.
         21    1    1    2  503  502 -0.23096760870E+01  0.34151700025E+02 -0.87536743807E+02  0.93991248181E+02  0.00000000000E+00 0.  1.
          2    1    1    2  501    0 -0.19805934588E+03 -0.16907074531E+03 -0.41027006770E+03  0.48593615821E+03  0.00000000000E+00 0. -1.
<scales pt_clust_5="13000.00000" pt_clust_6="13000.00000" pt_clust_7="13000.00000" pt_clust_8="13000.00000" pt_clust_9="34.22971" pt_clust_10="269.04742"></scales>
<clustering>
<clus scale="   34.230">  2  9  1 -1</clus>
<clus scale="   90.725">  7  8 -1 -1</clus>
<clus scale="   92.067">  5  6 -1 -1</clus>
<clus scale="  145.771">  2  5  1 -1</clus>
<clus scale="  269.047">  1 10  2 -1</clus>
<clus scale="  269.047">  1  5  2 -1</clus>
</clustering>
</event>
<event>
10    2  0.3984345E-006  0.1572536E+03  0.7546771E-02  0.1192033E+00
         -2   -1    0    0    0  501 -0.00000000000E+00  0.00000000000E+00  0.43412129292E+03  0.43412129292E+03  0.00000000000E+00 0.  1.
         21   -1    0    0  503  502  0.00000000000E+00 -0.00000000000E+00 -0.17234391327E+03  0.17234391327E+03  0.00000000000E+00 0. -1.
         23    2    1    2    0    0 -0.65257211148E+02  0.10545600055E+03  0.17591928787E+03  0.23400427014E+03  0.91820100978E+02 0.  0.
         23    2    1    2    0    0  0.45077647836E+02 -0.13794479588E+03  0.29831503763E+01  0.17112486930E+03  0.90631455144E+02 0.  0.
        -11    1    3    3    0    0 -0.39147571817E+02  0.92344955529E+01  0.11700155947E+02  0.41889162518E+02  0.00000000000E+00 0. -1.
         11    1    3    3    0    0 -0.26109639331E+02  0.96221504993E+02  0.16421913192E+03  0.19211510763E+03  0.00000000000E+00 0.  1.
        -13    1    4    4    0    0  0.29677458515E+02 -0.31822949577E+02  0.38563297177E+02  0.58142751508E+02  0.00000000000E+00 0.  1.
         13    1    4    4    0    0  0.15400189321E+02 -0.10612184631E+03 -0.35580146801E+02  0.11298211779E+03  0.00000000000E+00 0. -1.
         21    1    1    2  503  501  0.28667923032E+02  0.10401680954E+02  0.13800930277E+03  0.14133864450E+03  0.00000000000E+00 0.  1.
         -2    1    1    2    0  502 -0.84883597204E+01  0.22087114384E+02 -0.55134361369E+02  0.59997422246E+02  0.00000000000E+00 0.  1.
<scales pt_clust_5="13000.00000" pt_clust_6="13000.00000" pt_clust_7="13000.00000" pt_clust_8="13000.00000" pt_clust_9="30.49210" pt_clust_10="23.66206"></scales>
<clustering>
<clus scale="   23.662">  2 10  1 -1</clus>
<clus scale="   30.492">  1  9  2 -1</clus>
<clus scale="   90.631">  7  8 -1 -1</clus>
<clus scale="   91.820">  5  6 -1 -1</clus>
<clus scale="  156.563">  2  7  1 -1</clus>
<clus scale="   23.662">  2  5  1 -1</clus>
</clustering>
</event>
<event>
10    2  0.3984345E-006  0.1498549E+03  0.7546771E-02  0.1223105E+00
         21   -1    0    0  503  502  0.00000000000E+00  0.00000000000E+00  0.60617563569E+02  0.60617563569E+02  0.00000000000E+00 0. -1.
         -2   -1    0    0    0  501 -0.00000000000E+00 -0.00000000000E+00 -0.87988107275E+03  0.87988107275E+03  0.00000000000E+00 0. -1.
         23    2    1    2    0    0  0.89429962048E+01  0.82504154338E+01 -0.35052665513E+03  0.36278589982E+03  0.92717995109E+02 0.  0.
         23    2    1    2    0    0  0.11409568075E+03  0.58007856194E+02 -0.30675978731E+03  0.34529614476E+03  0.93515371634E+02 0.  0.
        -11    1    4    4    0    0  0.76945201397E+02 -0.13069877652E+02 -0.16135904908E+03  0.17924321030E+03  0.00000000000E+00 0.  1.
         11    1    4    4    0    0  0.37150479352E+02  0.71077733846E+02 -0.14540073823E+03  0.16605293446E+03  0.00000000000E+00 0. -1.
        -11    1    3    3    0    0 -0.31745294513E+02 -0.17288351018E+02 -0.76873317561E+02  0.84947970885E+02  0.00000000000E+00 0.  1.
         11    1    3    3    0    0  0.40688290717E+02  0.25538766452E+02 -0.27365333757E+03  0.27783792893E+03  0.00000000000E+00 0. -1.
         21    1    1    2  503  501 -0.26004555298E+02 -0.65293085205E+01 -0.98292075190E+02  0.10188327052E+03  0.00000000000E+00 0.  1.
         -2    1    1    2    0  502 -0.97034121656E+02 -0.59728963107E+02 -0.63684991551E+02  0.13053332122E+03  0.00000000000E+00 0. -1.
<scales pt_clust_5="13000.00000" pt_clust_6="13000.00000" pt_clust_7="13000.00000" pt_clust_8="13000.00000" pt_clust_9="26.81173" pt_clust_10="117.09554"></scales>
<clustering>
<clus scale="   26.812">  2  9  1 -1</clus>
<clus scale="   92.718">  7  8 -1 -1</clus>
<clus scale="   92.914">  2  7  1 -1</clus>
<clus scale="   93.515">  5  6 -1 -1</clus>
<clus scale="  117.096">  1 10  2 -1</clus>
<clus scale="  117.096">  1  5  2 -1</clus>
</clustering>
</event>
<event>
10    2  0.3984345E-006  0.9972318E+02  0.7546771E-02  0.1283367E+00
          2   -1    0    0  503    0 -0.00000000000E+00  0.00000000000E+00  0.17698649078E+03  0.17698649078E+03  0.00000000000E+00 0. -1.
         21   -1    0    0  501  502  0.00000000000E+00 -0.00000000000E+00 -0.18369530532E+03  0.18369530532E+03  0.00000000000E+00 0. -1.
         23    2    1    2    0    0 -0.43894263020E+02  0.17138225227E+02  0.70773483503E+02  0.12257796726E+03  0.88295226368E+02 0.  0.
         23    2    1    2    0    0  0.24679875559E+02  0.40000473275E+02  0.13660912145E+02  0.10529715444E+03  0.93229480813E+02 0.  0.
        -11    1    3    3    0    0 -0.65598894253E+02  0.26940196035E+02  0.33703006646E+02  0.78516760927E+02  0.00000000000E+00 0. -1.
         11    1    3    3    0    0  0.21704631233E+02 -0.98019708075E+01  0.37070476857E+02  0.44061206328E+02  0.00000000000E+00 0.  1.
        -13    1    4    4    0    0  0.39370985151E+02 -0.30869768631E+01 -0.24002076517E+02  0.46213673031E+02  0.00000000000E+00 0.  1.
         13    1    4    4    0    0 -0.14691109592E+02  0.43087450138E+02  0.37662988662E+02  0.59083481408E+02  0.00000000000E+00 0. -1.
         21    1    1    2  503  502  0.11378674017E+02 -0.23422689868E+02  0.84441151175E+01  0.27375165811E+02  0.00000000000E+00 0.  1.
          2    1    1    2  501    0  0.78357134436E+01 -0.33716008634E+02 -0.99587325304E+02  0.10543150859E+03  0.00000000000E+00 0. -1.
<scales pt_clust_5="13000.00000" pt_clust_6="13000.00000" pt_clust_7="13000.00000" pt_clust_8="13000.00000" pt_clust_9="26.04029" pt_clust_10="35.08112"></scales>
<clustering>
<clus scale="   26.040">  1  9  2 -1</clus>
<clus scale="   35.081">  2 10  1 -1</clus>
<clus scale="   88.295">  5  6 -1 -1</clus>
<clus scale="   93.229">  7  8 -1 -1</clus>
<clus scale="   95.126">  1  5  2 -1</clus>
<clus scale="   35.081">  2  5  1 -1</clus>
</clustering>
</event>
<event>
10    2  0.3984345E-006  0.9684746E+02  0.7546771E-02  0.1287547E+00
         21   -1    0    0  503  502  0.00000000000E+00  0.00000000000E+00  0.27232251348E+03  0.27232251348E+03  0.00000000000E+00 0.  1.
         -2   -1    0    0    0  501 -0.00000000000E+00 -0.00000000000E+00 -0.17741843827E+03  0.17741843827E+03  0.00000000000E+00 0.  1.
         23    2    1    2    0    0 -0.37397271106E+02  0.21433913359E+02 -0.11813056946E+03  0.15500008271E+03  0.90621331211E+02 0.  0.
         23    2    1    2    0    0 -0.17303662304E+02 -0.93465702972E+01  0.32562977731E+02  0.99129572251E+02  0.91539879126E+02 0.  0.
        -11    1    4    4    0    0 -0.47883842253E+02 -0.25918847900E+02  0.48631537944E+01  0.54665339020E+02  0.00000000000E+00 0.  1.
         11    1    4    4    0    0  0.30580179949E+02  0.16572277603E+02  0.27699823937E+02  0.44464233231E+02  0.00000000000E+00 0. -1.
        -13    1    3    3    0    0 -0.62447214824E+02 -0.58343724319E+01 -0.65893015632E+02  0.90970237166E+02  0.00000000000E+00 0.  1.
         13    1    3    3    0    0  0.25049943718E+02  0.27268285791E+02 -0.52237553830E+02  0.64029845544E+02  0.00000000000E+00 0. -1.
         21    1    1    2  503  501  0.22309863480E+02 -0.25470976105E+02  0.49086964744E+02  0.59632463810E+02  0.00000000000E+00 0.  1.
         -2    1    1    2    0  502  0.32391069930E+02  0.13383633043E+02  0.13138470220E+03  0.13597883298E+03  0.00000000000E+00 0.  1.
<scales pt_clust_5="13000.00000" pt_clust_6="13000.00000" pt_clust_7="13000.00000" pt_clust_8="13000.00000" pt_clust_9="33.86002" pt_clust_10="46.12858"></scales>
<clustering>
<clus scale="   33.860">  1  9  2 -1</clus>
<clus scale="   46.129">  1 10  2 -1</clus>
<clus scale="   90.621">  7  8 -1 -1</clus>
<clus scale="   91.540">  5  6 -1 -1</clus>
<clus scale="   95.980">  2  7  1 -1</clus>
<clus scale="   33.860">  1  5  2 -1</clus>
</clustering>
</event>
<event>
10    2  0.3984345E-006  0.1308402E+03  0.7546771E-02  0.1230058E+00
          1   -1    0    0  503    0 -0.00000000000E+00  0.00000000000E+00  0.37129131602E+03  0.37129131602E+03  0.00000000000E+00 0. -1.
         21   -1    0    0  501  502  0.00000000000E+00 -0.00000000000E+00 -0.31808880491E+03  0.31808880491E+03  0.00000000000E+00 0.  1.
         23    2    1    2    0    0  0.84040021312E+02  0.15769257908E+02  0.13432192956E+03  0.18346732700E+03  0.91139917928E+02 0.  0.
         23    2    1    2    0    0 -0.64239092214E+02 -0.65485357934E+02 -0.57003034743E+02  0.14996839280E+03  0.10404892982E+03 0.  0.
        -13    1    3    3    0    0  0.84122644062E+02  0.44944366295E+02  0.96244076171E+02  0.13549737084E+03  0.00000000000E+00 0. -1.
         13    1    3    3    0    0 -0.82622749907E-01 -0.29175108387E+02  0.38077853391E+02  0.47969956168E+02  0.00000000000E+00 0.  1.
        -13    1    4    4    0    0 -0.90220615899E+02 -0.67201247284E+02 -0.49201632528E+02  0.12278667604E+03  0.00000000000E+00 0.  1.
         13    1    4    4    0    0  0.25981523685E+02  0.17158893504E+01 -0.78014022144E+01  0.27181716755E+02  0.00000000000E+00 0. -1.
         21    1    1    2  503  502 -0.17607164740E+02  0.20735710420E+02  0.16367359626E+03  0.16591873929E+03  0.00000000000E+00 0. -1.
          1    1    1    2  501    0 -0.21937643578E+01  0.28980389605E+02 -0.18778997996E+03  0.19002566184E+03  0.00000000000E+00 0. -1.
<scales pt_clust_5="13000.00000" pt_clust_6="13000.00000" pt_clust_7="13000.00000" pt_clust_8="13000.00000" pt_clust_9="27.20261" pt_clust_10="29.18256"></scales>
<clustering>
<clus scale="   27.203">  1  9  2 -1</clus>
<clus scale="   29.183">  2 10  1 -1</clus>
<clus scale="   91.140">  5  6 -1 -1</clus>
<clus scale="  104.049">  7  8 -1 -1</clus>
<clus scale="  120.828">  1  5  2 -1</clus>
<clus scale="   29.183">  2  5  1 -1</clus>
</clustering>
</event>
<event>
10    2  0.3984345E-006  0.2558152E+03  0.7546771E-02  0.1109939E+00
         -3   -1    0    0    0  501 -0.00000000000E+00  0.00000000000E+00  0.68026087188E+03  0.68026087188E+03  0.00000000000E+00 0.  1.
         21   -1    0    0  503  502  0.00000000000E+00 -0.00000000000E+00 -0.18448890570E+03  0.18448890570E+03  0.00000000000E+00 0.  1.
         23    2    1    2    0    0 -0.67893254630E+02  0.22102693781E+03  0.28627098602E+03  0.37954849266E+03  0.92970853406E+02 0.  0.
         23    2    1    2    0    0  0.37529724673E+02 -0.28619659466E+03  0.90623219666E+02  0.31516323662E+03  0.88308135241E+02 0.  0.
        -11    1    4    4    0    0  0.29260276868E+02 -0.10439241387E+03  0.76370773852E+02  0.13261385665E+03  0.00000000000E+00 0. -1.
         11    1    4    4    0    0  0.82694478049E+01 -0.18180418079E+03  0.14252445814E+02  0.18254937998E+03  0.00000000000E+00 0.  1.
        -11    1    3    3    0    0  0.12209502146E+02  0.10169576555E+03  0.90463232288E+02  0.13665539532E+03  0.00000000000E+00 0.  1.
         11    1    3    3    0    0 -0.80102756776E+02  0.11933117226E+03  0.19580775373E+03  0.24289309734E+03  0.00000000000E+00 0. -1.
         21    1    1    2  503  501  0.81660139746E+01 -0.25134107653E+02  0.40817764346E+02  0.48626094208E+02  0.00000000000E+00 0.  1.
         -3    1    1    2    0  502  0.22197515982E+02  0.90303764503E+02  0.78059996151E+02  0.12141195410E+03  0.00000000000E+00 0.  1.
<scales pt_clust_5="13000.00000" pt_clust_6="13000.00000" pt_clust_7="13000.00000" pt_clust_8="13000.00000" pt_clust_9="26.42739" pt_clust_10="89.49427"></scales>
<clustering>
<clus scale="   26.427">  1  9  2 -1</clus>
<clus scale="   88.308">  5  6 -1 -1</clus>
<clus scale="   89.494">  2 10  1 -1</clus>
<clus scale="   92.971">  7  8 -1 -1</clus>
<clus scale="  254.158">  2  5  1 -1</clus>
<clus scale="   89.494">  2  5  1 -1</clus>
</clustering>
</event>
<event>
10    2  0.3984345E-006  0.1190022E+03  0.7546771E-02  0.1256005E+00
         21   -1    0    0  503  502  0.00000000000E+00  0.00000000000E+00  0.35124764688E+02  0.35124764688E+02  0.00000000000E+00 0. -1.
         -3   -1    0    0    0  501 -0.00000000000E+00 -0.00000000000E+00 -0.88852017578E+03  0.88852017578E+03  0.00000000000E+00 0.  1.
         23    2    1    2    0    0  0.93896218864E+01 -0.39046891849E+02 -0.53956322978E+03  0.55364597636E+03  0.11739916288E+03 0.  0.
         23    2    1    2    0    0  0.20863303282E+02 -0.75496203901E+01 -0.23276358265E+03  0.25165056572E+03  0.93042181972E+02 0.  0.
        -11    1    3    3    0    0 -0.34925650376E+02  0.23393648011E+02 -0.11991076721E+03  0.12706555754E+03  0.00000000000E+00 0. -1.
         11    1    3    3    0    0  0.44315272263E+02 -0.62440539859E+02 -0.41965246257E+03  0.42658041882E+03  0.00000000000E+00 0.  1.
        -11    1    4    4    0    0  0.26348737558E+02  0.36266131658E+02 -0.16328805313E+03  0.16932949115E+03  0.00000000000E+00 0.  1.
         11    1    4    4    0    0 -0.54854342763E+01 -0.43815752048E+02 -0.69475529517E+02  0.82321074570E+02  0.00000000000E+00 0. -1.
         21    1    1    2  503  501 -0.31285691607E+02  0.83905533045E+01 -0.72170852700E+02  0.79106433769E+02  0.00000000000E+00 0. -1.
         -3    1    1    2    0  502  0.10327664386E+01  0.38205958934E+02 -0.88977459660E+01  0.39241964628E+02  0.00000000000E+00 0.  1.
<scales pt_clust_5="13000.00000" pt_clust_6="13000.00000" pt_clust_7="13000.00000" pt_clust_8="13000.00000" pt_clust_9="32.39129" pt_clust_10="44.47542"></scales>
<clustering>
<clus scale="   32.391">  1  9  2 -1</clus>
<clus scale="   44.475">  1 10  2 -1</clus>
<clus scale="   93.042">  7  8 -1 -1</clus>
<clus scale="   95.057">  1  7  2 -1</clus>
<clus scale="  117.399">  5  6 -1 -1</clus>
<clus scale="   32.391">  1  5  2 -1</clus>
</clustering>
</event>
<event>
10    2  0.3984345E-006  0.2408030E+03  0.7546771E-02  0.1121553E+00
         21   -1    0    0  503  502  0.00000000000E+00  0.00000000000E+00  0.15639043032E+03  0.15639043032E+03  0.00000000000E+00 0.  1.
         -1   -1    0    0    0  501 -0.00000000000E+00 -0.00000000000E+00 -0.66250799441E+03  0.66250799441E+03  0.00000000000E+00 0.  1.
         23    2    1    2    0    0 -0.90592857130E+02  0.16934604494E+03 -0.15597321541E+03  0.26382854546E+03  0.91611728362E+02 0.  0.
         23    2    1    2    0    0  0.78767278597E+01 -0.25080475082E+03 -0.15057314358E+03  0.31671810764E+03  0.12113225113E+03 0.  0.
        -11    1    3    3    0    0 -0.95445644549E+02  0.14564687395E+03 -0.95291755105E+02  0.19850290060E+03  0.00000000000E+00 0.  1.
         11    1    3    3    0    0  0.48527874185E+01  0.23699170983E+02 -0.60681460306E+02  0.65325644856E+02  0.00000000000E+00 0. -1.
        -13    1    4    4    0    0 -0.10682806480E+02 -0.56719227051E+02 -0.99729945725E+02  0.11522697230E+03  0.00000000000E+00 0.  1.
         13    1    4    4    0    0  0.18559534340E+02 -0.19408552377E+03 -0.50843197860E+02  0.20149113534E+03  0.00000000000E+00 0. -1.
         21    1    1    2  503  501  0.19783396070E+02 -0.76263845780E+01 -0.30237239175E+02  0.36930138569E+02  0.00000000000E+00 0.  1.
         -1    1    1    2    0  502  0.62932733200E+02  0.89085090462E+02 -0.16933396592E+03  0.20142163306E+03  0.00000000000E+00 0.  1.
<scales pt_clust_5="13000.00000" pt_clust_6="13000.00000" pt_clust_7="13000.00000" pt_clust_8="13000.00000" pt_clust_9="21.20246" pt_clust_10="110.76638"></scales>
<clustering>
<clus scale="   21.202">  2  9  1 -1</clus>
<clus scale="   91.612">  5  6 -1 -1</clus>
<clus scale="  110.766">  1 10  2 -1</clus>
<clus scale="  121.132">  7  8 -1 -1</clus>
<clus scale="  227.389">  2  5  1 -1</clus>
<clus scale="  110.766">  1  5  2 -1</clus>
</clustering>
</event>
<event>
10    2  0.3984345E-006  0.9710579E+02  0.7546771E-02  0.1288175E+00
          2   -1    0    0  503    0 -0.00000000000E+00  0.00000000000E+00  0.13988975216E+03  0.13988975216E+03  0.00000000000E+00 0. -1.
         21   -1    0    0  501  502  0.00000000000E+00 -0.00000000000E+00 -0.32182201236E+03  0.32182201236E+03  0.00000000000E+00 0.  1.
         23    2    1    2    0    0  0.12707957692E+02  0.10049896188E+02  0.65940263552E+02  0.11315758207E+03  0.90520867318E+02 0.  0.
         23    2    1    2    0    0 -0.27996121565E+02 -0.68875255040E+02 -0.75838964244E+02  0.14159202879E+03  0.93643849452E+02 0.  0.
        -13    1    3    3    0    0 -0.14889237653E+00  0.43769693902E+02  0.63319124735E+02  0.76974799970E+02  0.00000000000E+00 0. -1.
         13    1    3    3    0    0  0.12856850068E+02 -0.33719797715E+02  0.26211388169E+01  0.36182782097E+02  0.00000000000E+00 0.  1.
        -13    1    4    4    0    0 -0.22826928980E+02 -0.25183843730E+02 -0.89326706778E+02  0.95574867070E+02  0.00000000000E+00 0.  1.
         13    1    4    4    0    0 -0.51691925841E+01 -0.43691411310E+02  0.13487742534E+02  0.46017161721E+02  0.00000000000E+00 0. -1.
         21    1    1    2  503  502 -0.67767521205E+01  0.49017129034E+02 -0.20574302141E+02  0.53590159699E+02  0.00000000000E+00 0.  1.
          2    1    1    2  501    0  0.22064915994E+02  0.98082298189E+01 -0.15145925736E+03  0.15337199396E+03  0.00000000000E+00 0. -1.
<scales pt_clust_5="13000.00000" pt_clust_6="13000.00000" pt_clust_7="13000.00000" pt_clust_8="13000.00000" pt_clust_9="51.20113" pt_clust_10="24.14667"></scales>
<clustering>
<clus scale="   24.147">  2 10  1 -1</clus>
<clus scale="   51.201">  2  9  1 -1</clus>
<clus scale="   90.521">  5  6 -1 -1</clus>
<clus scale="   93.644">  7  8 -1 -1</clus>
<clus scale="   94.098">  1  5  2 -1</clus>
<clus scale="   24.147">  2  5  1 -1</clus>
</clustering>
</event>
<event>
10    2  0.3984345E-006  0.1893838E+03  0.7546771E-02  0.1159077E+00
          4   -1    0    0  503    0 -0.00000000000E+00  0.00000000000E+00  0.24249683085E+03  0.24249683085E+03  0.00000000000E+00 0. -1.
         21   -1    0    0  501  502  0.00000000000E+00 -0.00000000000E+00 -0.26660949598E+03  0.26660949598E+03  0.00000000000E+00 0.  1.
         23    2    1    2    0    0 -0.16918409136E+03  0.84210928808E+02 -0.58264211876E+02  0.21803902927E+03  0.91823540555E+02 0.  0.
         23    2    1    2    0    0  0.12656207704E+03 -0.74038650617E+02 -0.40911095552E+02  0.17805535629E+03  0.92359682958E+02 0.  0.
        -13    1    3    3    0    0 -0.96566287602E+02  0.23629824905E+02 -0.71625596474E+02  0.12253017015E+03  0.00000000000E+00 0.  1.
         13    1    3    3    0    0 -0.72617803762E+02  0.60581103902E+02  0.13361384598E+02  0.95508859126E+02  0.00000000000E+00 0. -1.
        -13    1    4    4    0    0  0.16130469577E+02  0.21239107730E+02 -0.12531143241E+02  0.29467291984E+02  0.00000000000E+00 0.  1.
         13    1    4    4    0    0  0.11043160746E+03 -0.95277758347E+02 -0.28379952311E+02  0.14858806431E+03  0.00000000000E+00 0. -1.
         21    1    1    2  503  502  0.61964493206E+02 -0.36082438003E+01  0.66196840227E+02  0.90744914445E+02  0.00000000000E+00 0. -1.
          4    1    1    2  501    0 -0.19342478881E+02 -0.65640343903E+01  0.88658020677E+01  0.22267026812E+02  0.00000000000E+00 0. -1.
<scales pt_clust_5="13000.00000" pt_clust_6="13000.00000" pt_clust_7="13000.00000" pt_clust_8="13000.00000" pt_clust_9="61.17666" pt_clust_10="20.42593"></scales>
<clustering>
<clus scale="   20.426">  2 10  1 -1</clus>
<clus scale="   61.177">  1  9  2 -1</clus>
<clus scale="   91.824">  5  6 -1 -1</clus>
<clus scale="   92.360">  7  8 -1 -1</clus>
<clus scale="  189.123">  1  5  2 -1</clus>
<clus scale="   20.426">  2  5  1 -1</clus>
</clustering>
</event>
<event>
10    2  0.3984345E-006  0.9452363E+02  0.7546771E-02  0.1293282E+00
          2   -1    0    0  503    0 -0.00000000000E+00  0.00000000000E+00  0.64016875186E+03  0.64016875186E+03  0.00000000000E+00 0. -1.
         21   -1    0    0  501  502  0.00000000000E+00 -0.00000000000E+00 -0.36042860142E+02  0.36042860142E+02  0.00000000000E+00 0. -1.
         23    2    1    2    0    0  0.10797486238E+02 -0.85914529977E+00  0.26358443949E+03  0.27983620536E+03  0.93349993292E+02 0.  0.
         23    2    1    2    0    0 -0.15198865902E+02  0.13236556755E+02  0.20980639408E+03  0.22978798388E+03  0.91529135148E+02 0.  0.
        -11    1    4    4    0    0  0.12853170140E+02  0.34260900710E+02  0.32161980402E+02  0.48717617793E+02  0.00000000000E+00 0. -1.
         11    1    4    4    0    0 -0.28052036042E+02 -0.21024343955E+02  0.17764441368E+03  0.18107036609E+03  0.00000000000E+00 0.  1.
        -11    1    3    3    0    0 -0.11272357911E+02 -0.43880282240E+02  0.11601260044E+03  0.12454504680E+03  0.00000000000E+00 0.  1.
         11    1    3    3    0    0  0.22069844149E+02  0.43021136940E+02  0.14757183906E+03  0.15529115856E+03  0.00000000000E+00 0. -1.
         21    1    1    2  503  502  0.12866936433E+02  0.17127074734E+02  0.13401629790E+03  0.13571758488E+03  0.00000000000E+00 0.  1.
          2    1    1    2  501    0 -0.84655567689E+01 -0.29504486189E+02 -0.32812397519E+01  0.30869837884E+02  0.00000000000E+00 0. -1.
<scales pt_clust_5="13000.00000" pt_clust_6="13000.00000" pt_clust_7="13000.00000" pt_clust_8="13000.00000" pt_clust_9="21.42183" pt_clust_10="30.14938"></scales>
<clustering>
<clus scale="   21.422">  1  9  2 -1</clus>
<clus scale="   30.149">  2 10  1 -1</clus>
<clus scale="   91.529">  5  6 -1 -1</clus>
<clus scale="   92.726">  2  5  1 -1</clus>
<clus scale="   93.350">  7  8 -1 -1</clus>
<clus scale="   30.149">  2  5  1 -1</clus>
</clustering>
</event>
<event>
10    2  0.3984345E-006  0.1473221E+03  0.7546771E-02  0.1204106E+00
          3   -1    0    0  503    0 -0.00000000000E+00  0.00000000000E+00  0.66388695597E+03  0.66388695597E+03  0.00000000000E+00 0. -1.
         21   -1    0    0  501  502  0.00000000000E+00 -0.00000000000E+00 -0.71320750726E+02  0.71320750726E+02  0.00000000000E+00 0.  1.
         23    2    1    2    0    0 -0.85220375890E+02  0.10722640874E+03  0.42045633660E+03  0.45165001449E+03  0.91892270632E+02 0.  0.
         23    2    1    2    0    0  0.84132578360E+02 -0.70881516465E+02  0.13074881784E+03  0.19328759451E+03  0.90345784127E+02 0.  0.
        -13    1    4    4    0    0  0.97506788031E+02 -0.34262753357E+02  0.93537233897E+02  0.13939413225E+03  0.00000000000E+00 0. -1.
         13    1    4    4    0    0 -0.13374209671E+02 -0.36618763108E+02  0.37211583940E+02  0.53893462268E+02  0.00000000000E+00 0.  1.
        -13    1    3    3    0    0 -0.44248473862E+02  0.34646545429E+02  0.62206891950E+02  0.83833215108E+02  0.00000000000E+00 0.  1.
         13    1    3    3    0    0 -0.40971902028E+02  0.72579863310E+02  0.35824944465E+03  0.36781679938E+03  0.00000000000E+00 0. -1.
         21    1    1    2  503  502  0.22795183623E+02 -0.21723433192E+02  0.52982582385E+02  0.61633448567E+02  0.00000000000E+00 0.  1.
          3    1    1    2  501    0 -0.21707386093E+02 -0.14621459083E+02 -0.11621531581E+02  0.28636649123E+02  0.00000000000E+00 0. -1.
<scales pt_clust_5="13000.00000" pt_clust_6="13000.00000" pt_clust_7="13000.00000" pt_clust_8="13000.00000" pt_clust_9="31.08817" pt_clust_10="26.17246"></scales>
<clustering>
<clus scale="   26.172">  2 10  1 -1</clus>
<clus scale="   31.088">  1  9  2 -1</clus>
<clus scale="   90.346">  5  6 -1 -1</clus>
<clus scale="   91.892">  7  8 -1 -1</clus>
<clus scale="  146.363">  2  5  1 -1</clus>
<clus scale="   26.172">  2  5  1 -1</clus>
</clustering>
</event>
<event>
10    2  0.4945137E-006  0.1016192E+03  0.7546771E-02  0.1277327E+00
          2   -1    0    0  503    0 -0.00000000000E+00  0.00000000000E+00  0.43978686331E+03  0.43978686331E+03  0.00000000000E+00 0. -1.
         21   -1    0    0  501  502  0.00000000000E+00 -0.00000000000E+00 -0.54522442146E+03  0.54522442146E+03  0.00000000000E+00 0. -1.
         23    2    1    2    0    0 -0.31480311172E+02 -0.21944523959E+02  0.30605135017E+03  0.32194809873E+03  0.92252789713E+02 0.  0.
         23    2    1    2    0    0 -0.12403475101E+02  0.10649917899E+03  0.64107311507E+02  0.15478902415E+03  0.91400072689E+02 0.  0.
        -13    1    3    3    0    0 -0.43585792146E+02 -0.49321683229E+02  0.24860209742E+03  0.25716794620E+03  0.00000000000E+00 0.  1.
         13    1    3    3    0    0  0.12105480974E+02  0.27377159271E+02  0.57449252756E+02  0.64780152528E+02  0.00000000000E+00 0. -1.
        -13    1    4    4    0    0  0.20124991903E+01  0.77903310339E+02  0.85954723719E+02  0.11602237045E+03  0.00000000000E+00 0. -1.
         13    1    4    4    0    0 -0.14415974291E+02  0.28595868655E+02 -0.21847412211E+02  0.38766653702E+02  0.00000000000E+00 0.  1.
         21    1    1    2  503  502 -0.18770951037E+02 -0.23836861926E+02 -0.63656312174E+01  0.31001062080E+02  0.00000000000E+00 0.  1.
          2    1    1    2  501    0  0.62654737310E+02 -0.60717793109E+02 -0.46923058861E+03  0.47727309980E+03  0.00000000000E+00 0. -1.
<scales pt_clust_5="13000.00000" pt_clust_6="13000.00000" pt_clust_7="13000.00000" pt_clust_8="13000.00000" pt_clust_9="30.34048" pt_clust_10="94.03975"></scales>
<clustering>
<clus scale="   30.340">  2  9  1 -1</clus>
<clus scale="   91.400">  7  8 -1 -1</clus>
<clus scale="   92.253">  5  6 -1 -1</clus>
<clus scale="   94.040">  2 10  1 -1</clus>
<clus scale="  100.846">  2  7  1 -1</clus>
<clus scale="   30.340">  2  5  1 -1</clus>
</clustering>
</event>
<event>
10    2  0.3984345E-006  0.1301941E+03  0.7546771E-02  0.1227202E+00
         21   -1    0    0  503  502  0.00000000000E+00  0.00000000000E+00  0.54182336479E+02  0.54182336479E+02  0.00000000000E+00 0. -1.
         -3   -1    0    0    0  501 -0.00000000000E+00 -0.00000000000E+00 -0.65857959141E+03  0.65857959141E+03  0.00000000000E+00 0.  1.
         23    2    1    2    0    0 -0.72521842152E+02 -0.79593328638E+02 -0.34520875261E+03  0.37332744493E+03  0.92788914765E+02 0.  0.
         23    2    1    2    0    0  0.81851644564E+02  0.30682124349E+02 -0.13302431896E+03  0.18430946753E+03  0.92916230619E+02 0.  0.
        -11    1    3    3    0    0 -0.54304295478E+02 -0.28012936709E+02 -0.28706305410E+03  0.29349425576E+03  0.00000000000E+00 0.  1.
         11    1    3    3    0    0 -0.18217546674E+02 -0.51580391928E+02 -0.58145698510E+02  0.79833189173E+02  0.00000000000E+00 0. -1.
        -13    1    4    4    0    0  0.77199169831E+02  0.59101095970E+02 -0.11384046477E+03  0.14970739056E+03  0.00000000000E+00 0.  1.
         13    1    4    4    0    0  0.46524747331E+01 -0.28418971621E+02 -0.19183854188E+02  0.34602076970E+02  0.00000000000E+00 0. -1.
         21    1    1    2  503  501  0.48316821357E+01  0.28154864539E+02 -0.12681181311E+03  0.12998952840E+03  0.00000000000E+00 0.  1.
         -3    1    1    2    0  502 -0.14161484548E+02  0.20756339750E+02  0.64762974859E+00  0.25135487039E+02  0.00000000000E+00 0.  1.
<scales pt_clust_5="13000.00000" pt_clust_6="13000.00000" pt_clust_7="13000.00000" pt_clust_8="13000.00000" pt_clust_9="29.26918" pt_clust_10="25.12714"></scales>
<clustering>
<clus scale="   25.127">  1 10  2 -1</clus>
<clus scale="   29.269">  2  9  1 -1</clus>
<clus scale="   92.789">  5  6 -1 -1</clus>
<clus scale="   92.916">  7  8 -1 -1</clus>
<clus scale="  130.103">  2  5  1 -1</clus>
<clus scale="   25.127">  1  5  2 -1</clus>
</clustering>
</event>
<event>
10    2  0.3984345E-006  0.1425860E+03  0.7546771E-02  0.1210152E+00
         21   -1    0    0  503  502  0.00000000000E+00  0.00000000000E+00  0.70798110622E+02  0.70798110622E+02  0.00000000000E+00 0. -1.
         -3   -1    0    0    0  501 -0.00000000000E+00 -0.00000000000E+00 -0.75262097098E+03  0.75262097098E+03  0.00000000000E+00 0.  1.
         23    2    1    2    0    0  0.85906922158E+02 -0.89858132680E+02 -0.31802706643E+03  0.35339914449E+03  0.91078301820E+02 0.  0.
         23    2    1    2    0    0 -0.77082099269E+02  0.76303594832E+02 -0.24679279560E+03  0.28494054481E+03  0.92306779292E+02 0.  0.
        -13    1    3    3    0    0  0.50295841972E+02 -0.10123846637E+03 -0.26865707433E+03  0.29147130627E+03  0.00000000000E+00 0.  1.
         13    1    3    3    0    0  0.35611080186E+02  0.11380333686E+02 -0.49369992101E+02  0.61927838222E+02  0.00000000000E+00 0. -1.
        -13    1    4    4    0    0 -0.27964858721E+02  0.11307172472E+02 -0.60210483991E+01  0.30759364370E+02  0.00000000000E+00 0. -1.
         13    1    4    4    0    0 -0.49117240548E+02  0.64996422360E+02 -0.24077174720E+03  0.25418118044E+03  0.00000000000E+00 0.  1.
         21    1    1    2  503  501 -0.35574815992E+02  0.45101811917E+02 -0.12966791743E+03  0.14182210611E+03  0.00000000000E+00 0.  1.
         -3    1    1    2    0  502  0.26749993103E+02 -0.31547274069E+02  0.12664919108E+02  0.43257286186E+02  0.00000000000E+00 0.  1.
<scales pt_clust_5="13000.00000" pt_clust_6="13000.00000" pt_clust_7="13000.00000" pt_clust_8="13000.00000" pt_clust_9="51.57967" pt_clust_10="41.36173"></scales>
<clustering>
<clus scale="   41.362">  1 10  2 -1</clus>
<clus scale="   51.580">  2  9  1 -1</clus>
<clus scale="   91.078">  5  6 -1 -1</clus>
<clus scale="   92.307">  7  8 -1 -1</clus>
<clus scale="  141.794">  2  5  1 -1</clus>
<clus scale="   41.362">  1  5  2 -1</clus>
</clustering>
</event>
<event>
10    2  0.3984345E-006  0.9339906E+02  0.7546771E-02  0.1296052E+00
         21   -1    0    0  503  502  0.00000000000E+00  0.00000000000E+00  0.73228938939E+02  0.73228938939E+02  0.00000000000E+00 0. -1.
         -3   -1    0    0    0  501 -0.00000000000E+00 -0.00000000000E+00 -0.33249316806E+03  0.33249316806E+03  0.00000000000E+00 0.  1.
         23    2    1    2    0    0  0.20914912068E+02 -0.77491969329E+01 -0.19444064508E+03  0.21511863080E+03  0.89282569730E+02 0.  0.
         23    2    1    2    0    0 -0.11598390334E+01 -0.41242139614E+02  0.33569208358E+01  0.10037033700E+03  0.91436734001E+02 0.  0.
        -11    1    4    4    0    0  0.38428670571E+02 -0.32673199660E+02  0.22901143120E+02  0.55396417339E+02  0.00000000000E+00 0.  1.
         11    1    4    4    0    0 -0.39588509604E+02 -0.85689399544E+01 -0.19544222284E+02  0.44973919657E+02  0.00000000000E+00 0. -1.
        -13    1    3    3    0    0 -0.31713848072E+02  0.72452464624E+01 -0.41812787191E+02  0.52977079275E+02  0.00000000000E+00 0. -1.
         13    1    3    3    0    0  0.52628760140E+02 -0.14994443395E+02 -0.15262785789E+03  0.16214155153E+03  0.00000000000E+00 0.  1.
         21    1    1    2  503  501 -0.93939934368E+01  0.23291506019E+02 -0.52972201597E+02  0.58624188757E+02  0.00000000000E+00 0. -1.
         -3    1    1    2    0  502 -0.10361079597E+02  0.25699830527E+02 -0.15208303276E+02  0.31608950443E+02  0.00000000000E+00 0.  1.
<scales pt_clust_5="13000.00000" pt_clust_6="13000.00000" pt_clust_7="13000.00000" pt_clust_8="13000.00000" pt_clust_9="25.11456" pt_clust_10="29.83452"></scales>
<clustering>
<clus scale="   25.115">  2  9  1 -1</clus>
<clus scale="   29.835">  1 10  2 -1</clus>
<clus scale="   89.283">  7  8 -1 -1</clus>
<clus scale="   91.291">  2  7  1 -1</clus>
<clus scale="   91.437">  5  6 -1 -1</clus>
<clus scale="   29.835">  1  5  2 -1</clus>
</clustering>
</event>
<event>
10    2  0.3984345E-006  0.1137904E+03  0.7546771E-02  0.1253852E+00
          3   -1    0    0  503    0 -0.00000000000E+00  0.00000000000E+00  0.77858667799E+03  0.77858667799E+03  0.00000000000E+00 0. -1.
         21   -1    0    0  501  502  0.00000000000E+00 -0.00000000000E+00 -0.12629229400E+03  0.12629229400E+03  0.00000000000E+00 0.  1.
         23    2    1    2    0    0 -0.75132426869E+01  0.45709246267E+02  0.25442753535E+03  0.27388810299E+03  0.90197218413E+02 0.  0.
         23    2    1    2    0    0 -0.78211346503E+02 -0.11163917787E+03 -0.35076187875E+02  0.16694939664E+03  0.89785529608E+02 0.  0.
        -11    1    3    3    0    0 -0.11113794448E+02 -0.22399641381E+02  0.28618905563E+02  0.38003975011E+02  0.00000000000E+00 0.  1.
         11    1    3    3    0    0  0.36005517613E+01  0.68108887649E+02  0.22580862978E+03  0.23588412798E+03  0.00000000000E+00 0. -1.
        -11    1    4    4    0    0 -0.44257213943E+02 -0.78048758364E+02 -0.64815180350E+02  0.11068566877E+03  0.00000000000E+00 0.  1.
         11    1    4    4    0    0 -0.33954132560E+02 -0.33590419503E+02  0.29738992475E+02  0.56263727869E+02  0.00000000000E+00 0. -1.
         21    1    1    2  503  502  0.61007434141E+02  0.78669975843E+01  0.36940260573E+03  0.37448909436E+03  0.00000000000E+00 0. -1.
          3    1    1    2  501    0  0.24717155049E+02  0.58062934016E+02  0.63540430788E+02  0.89552377997E+02  0.00000000000E+00 0. -1.
<scales pt_clust_5="13000.00000" pt_clust_6="13000.00000" pt_clust_7="13000.00000" pt_clust_8="13000.00000" pt_clust_9="61.51257" pt_clust_10="69.68502"></scales>
<clustering>
<clus scale="   61.513">  1  9  2 -1</clus>
<clus scale="   69.685">  2 10  1 -1</clus>
<clus scale="   89.786">  7  8 -1 -1</clus>
<clus scale="   90.197">  5  6 -1 -1</clus>
<clus scale="  113.464">  2  7  1 -1</clus>
<clus scale="   69.685">  2  5  1 -1</clus>
</clustering>
</event>
<event>
10    2  0.3984345E-006  0.1213155E+03  0.7546771E-02  0.1252517E+00
         21   -1    0    0  501  502  0.00000000000E+00  0.00000000000E+00  0.71588322520E+02  0.71588322520E+02  0.00000000000E+00 0. -1.
          2   -1    0    0  503    0 -0.00000000000E+00 -0.00000000000E+00 -0.49701704351E+03  0.49701704351E+03  0.00000000000E+00 0. -1.
         23    2    1    2    0    0 -0.25739550496E+02 -0.17410967282E+01 -0.15329100331E+03  0.18016657605E+03  0.91084068581E+02 0.  0.
         23    2    1    2    0    0 -0.51178883199E+02 -0.67588767488E+01 -0.50152088619E+02  0.11725876889E+03  0.92571196317E+02 0.  0.
        -11    1    4    4    0    0 -0.28168774946E+02  0.33579664409E+02  0.61674278359E+01  0.44261844854E+02  0.00000000000E+00 0. -1.
         11    1    4    4    0    0 -0.23010108253E+02 -0.40338541158E+02 -0.56319516455E+02  0.72996924033E+02  0.00000000000E+00 0.  1.
        -11    1    3    3    0    0 -0.17199691257E+02  0.38309439769E+02 -0.33966874749E+02  0.54011027902E+02  0.00000000000E+00 0.  1.
         11    1    3    3    0    0 -0.85398592384E+01 -0.40050536498E+02 -0.11932412856E+03  0.12615554814E+03  0.00000000000E+00 0. -1.
         21    1    1    2  503  502  0.90177604634E+02  0.50593179786E+02 -0.19120815682E+03  0.21737577936E+03  0.00000000000E+00 0. -1.
          2    1    1    2  501    0 -0.13259170939E+02 -0.42093206309E+02 -0.30777472235E+02  0.53804241734E+02  0.00000000000E+00 0. -1.
<scales pt_clust_5="13000.00000" pt_clust_6="13000.00000" pt_clust_7="13000.00000" pt_clust_8="13000.00000" pt_clust_9="78.40934" pt_clust_10="44.13212"></scales>
<clustering>
<clus scale="   44.132">  1 10  2 -1</clus>
<clus scale="   91.084">  7  8 -1 -1</clus>
<clus scale="   92.571">  5  6 -1 -1</clus>
<clus scale="   96.150">  2  7  1 -1</clus>
<clus scale="   78.409">  2  9  1 -1</clus>
<clus scale="   44.132">  1  5  2 -1</clus>
</clustering>
</event>
<event>
10    2  0.3984345E-006  0.1080657E+03  0.7546771E-02  0.1264857E+00
         21   -1    0    0  501  502  0.00000000000E+00  0.00000000000E+00  0.50081183991E+02  0.50081183991E+02  0.00000000000E+00 0. -1.
          2   -1    0    0  503    0 -0.00000000000E+00 -0.00000000000E+00 -0.61718359591E+03  0.61718359591E+03  0.00000000000E+00 0. -1.
         23    2    1    2    0    0 -0.46053632260E+02 -0.71935979238E+02 -0.39737864377E+03  0.41653823950E+03  0.91096631605E+02 0.  0.
         23    2    1    2    0    0  0.73296387658E+01  0.37883439116E+02 -0.12828018283E+03  0.16107527906E+03  0.89445858784E+02 0.  0.
        -11    1    4    4    0    0 -0.24700371012E+02  0.55561829052E+02 -0.78346257130E+02  0.99173389485E+02  0.00000000000E+00 0. -1.
         11    1    4    4    0    0  0.32030009778E+02 -0.17678389936E+02 -0.49933925701E+02  0.61901889576E+02  0.00000000000E+00 0.  1.
        -13    1    3    3    0    0 -0.50048117013E+02 -0.10197369555E+02 -0.27167511818E+03  0.27643474854E+03  0.00000000000E+00 0.  1.
         13    1    3    3    0    0  0.39944847528E+01 -0.61738609683E+02 -0.12570352560E+03  0.14010349097E+03  0.00000000000E+00 0. -1.
         21    1    1    2  503  502  0.20430087492E+02  0.18699316572E+02 -0.55437430519E+02  0.61970651261E+02  0.00000000000E+00 0.  1.
          2    1    1    2  501    0  0.18293906003E+02  0.15353223550E+02  0.13993845207E+02  0.27680610071E+02  0.00000000000E+00 0. -1.
<scales pt_clust_5="13000.00000" pt_clust_6="13000.00000" pt_clust_7="13000.00000" pt_clust_8="13000.00000" pt_clust_9="30.36123" pt_clust_10="23.88281"></scales>
<clustering>
<clus scale="   23.883">  1 10  2 -1</clus>
<clus scale="   30.361">  2  9  1 -1</clus>
<clus scale="   89.446">  5  6 -1 -1</clus>
<clus scale="   91.097">  7  8 -1 -1</clus>
<clus scale="  106.678">  1  5  2 -1</clus>
<clus scale="   23.883">  1  5  2 -1</clus>
</clustering>
</event>
<event>
10    2  0.3984345E-006  0.2513233E+03  0.7546771E-02  0.1112489E+00
          2   -1    0    0  503    0 -0.00000000000E+00  0.00000000000E+00  0.29596889280E+03  0.29596889280E+03  0.00000000000E+00 0. -1.
         21   -1    0    0  501  502  0.00000000000E+00 -0.00000000000E+00 -0.33311879928E+03  0.33311879928E+03  0.00000000000E+00 0.  1.
         23    2    1    2    0    0 -0.17897128080E+03  0.83653448623E+02  0.14875389739E+02  0.21866632318E+03  0.92547635584E+02 0.  0.
         23    2    1    2    0    0  0.24625103420E+03 -0.11813907184E+03 -0.30115131084E+02  0.29004175772E+03  0.92848736989E+02 0.  0.
        -11    1    3    3    0    0 -0.34476683930E+02  0.59842460724E+02 -0.11062006899E+02  0.69943761959E+02  0.00000000000E+00 0.  1.
         11    1    3    3    0    0 -0.14449459687E+03  0.23810987899E+02  0.25937396638E+02  0.14872256122E+03  0.00000000000E+00 0. -1.
        -11    1    4    4    0    0  0.14980951363E+02 -0.27648648130E+02  0.19206908788E+02  0.36848093470E+02  0.00000000000E+00 0. -1.
         11    1    4    4    0    0  0.23127008284E+03 -0.90490423713E+02 -0.49322039872E+02  0.25319366425E+03  0.00000000000E+00 0.  1.
         21    1    1    2  503  502 -0.41168962195E+02  0.32093450083E+02  0.31437977076E+02  0.60936191128E+02  0.00000000000E+00 0. -1.
          2    1    1    2  501    0 -0.26110791204E+02  0.23921731364E+01 -0.53348142217E+02  0.59443420053E+02  0.00000000000E+00 0. -1.
<scales pt_clust_5="13000.00000" pt_clust_6="13000.00000" pt_clust_7="13000.00000" pt_clust_8="13000.00000" pt_clust_9="53.38163" pt_clust_10="26.22014"></scales>
<clustering>
<clus scale="   26.220">  2 10  1 -1</clus>
<clus scale="   53.382">  1  9  2 -1</clus>
<clus scale="   92.548">  5  6 -1 -1</clus>
<clus scale="   92.849">  7  8 -1 -1</clus>
<clus scale="  251.212">  1  5  2 -1</clus>
<clus scale="   26.220">  2  5  1 -1</clus>
</clustering>
</event>
<event>
10    2  0.3984345E-006  0.1464867E+03  0.7546771E-02  0.1205307E+00
          1   -1    0    0  503    0 -0.00000000000E+00  0.00000000000E+00  0.56499921394E+03  0.56499921394E+03  0.00000000000E+00 0. -1.
         21   -1    0    0  501  502  0.00000000000E+00 -0.00000000000E+00 -0.21389678866E+03  0.21389678866E+03  0.00000000000E+00 0.  1.
         23    2    1    2    0    0  0.12923931738E+02  0.12086825592E+03  0.35170482919E+03  0.38155872763E+03  0.84348162107E+02 0.  0.
         23    2    1    2    0    0  0.11238032105E+02 -0.10970340568E+03  0.81265091912E+02  0.16214505236E+03  0.86751785323E+02 0.  0.
        -11    1    4    4    0    0  0.30390308092E+02 -0.11615434608E+03  0.68239209429E+02  0.13810138537E+03  0.00000000000E+00 0.  1.
         11    1    4    4    0    0 -0.19152275987E+02  0.64509403977E+01  0.13025882483E+02  0.24043666982E+02  0.00000000000E+00 0. -1.
        -13    1    3    3    0    0  0.20387528233E+02  0.59313236998E+02  0.73943266254E+02  0.96960394053E+02  0.00000000000E+00 0.  1.
         13    1    3    3    0    0 -0.74635964951E+01  0.61555018919E+02  0.27776156294E+03  0.28459833357E+03  0.00000000000E+00 0. -1.
         21    1    1    2  503  502  0.40100869838E+02 -0.32702713995E+01  0.64002760281E+02  0.75598464008E+02  0.00000000000E+00 0. -1.
          1    1    1    2  501    0 -0.64262833681E+02 -0.78945788368E+01 -0.14587025611E+03  0.15959375860E+03  0.00000000000E+00 0. -1.
<scales pt_clust_5="13000.00000" pt_clust_6="13000.00000" pt_clust_7="13000.00000" pt_clust_8="13000.00000" pt_clust_9="40.23400" pt_clust_10="64.20005"></scales>
<clustering>
<clus scale="   40.234">  1  9  2 -1</clus>
<clus scale="   64.200">  2 10  1 -1</clus>
<clus scale="   84.348">  7  8 -1 -1</clus>
<clus scale="   86.752">  5  6 -1 -1</clus>
<clus scale="  145.076">  1  7  2 -1</clus>
<clus scale="   64.200">  2  5  1 -1</clus>
</clustering>
</event>
<event>
10    2  0.3984345E-006  0.9693462E+02  0.7546771E-02  0.1289064E+00
         21   -1    0    0  501  502  0.00000000000E+00  0.00000000000E+00  0.12643445862E+03  0.12643445862E+03  0.00000000000E+00 0. -1.
          2   -1    0    0  503    0 -0.00000000000E+00 -0.00000000000E+00 -0.34719225144E+03  0.34719225144E+03  0.00000000000E+00 0. -1.
         23    2    1    2    0    0  0.30646064099E+02 -0.20485360333E+02 -0.13715363032E+03  0.17105961491E+03  0.95349055108E+02 0.  0.
         23    2    1    2    0    0 -0.21126949710E+01 -0.34899646344E+01 -0.10769474280E+03  0.14129798227E+03  0.91380078975E+02 0.  0.
        -11    1    3    3    0    0  0.26524956692E+02 -0.57039553519E+02 -0.10396651156E+03  0.12151592291E+03  0.00000000000E+00 0. -1.
         11    1    3    3    0    0  0.41211074075E+01  0.36554193186E+02 -0.33187118755E+02  0.49543692000E+02  0.00000000000E+00 0.  1.
        -13    1    4    4    0    0 -0.42826668993E+02  0.16718513408E+02 -0.51976368458E+02  0.69391463060E+02  0.00000000000E+00 0.  1.
         13    1    4    4    0    0  0.40713974022E+02 -0.20208478043E+02 -0.55718374339E+02  0.71906519207E+02  0.00000000000E+00 0. -1.
         21    1    1    2  503  502 -0.91803514957E+01  0.31678197090E+02 -0.63328733612E+02  0.71402489630E+02  0.00000000000E+00 0.  1.
          2    1    1    2  501    0 -0.19353017632E+02 -0.77028721227E+01  0.87419313907E+02  0.89866623250E+02  0.00000000000E+00 0. -1.
<scales pt_clust_5="13000.00000" pt_clust_6="13000.00000" pt_clust_7="13000.00000" pt_clust_8="13000.00000" pt_clust_9="32.84149" pt_clust_10="20.82963"></scales>
<clustering>
<clus scale="   20.830">  1 10  2 -1</clus>
<clus scale="   32.841">  2  9  1 -1</clus>
<clus scale="   91.380">  7  8 -1 -1</clus>
<clus scale="   93.033">  1  7  2 -1</clus>
<clus scale="   95.349">  5  6 -1 -1</clus>
<clus scale="   20.830">  1  5  2 -1</clus>
</clustering>
</event>
<event>
10    2  0.3984345E-006  0.1008983E+03  0.7546771E-02  0.1279742E+00
          2   -1    0    0  503    0 -0.00000000000E+00  0.00000000000E+00  0.91526221017E+02  0.91526221017E+02  0.00000000000E+00 0. -1.
         21   -1    0    0  501  502  0.00000000000E+00 -0.00000000000E+00 -0.56434263709E+03  0.56434263709E+03  0.00000000000E+00 0. -1.
         23    2    1    2    0    0 -0.36921773603E+02 -0.80400379010E+01  0.69434389320E+01  0.10018106007E+03  0.92521207712E+02 0.  0.
         23    2    1    2    0    0 -0.15035704519E+02  0.65569681867E+01 -0.17313251152E+03  0.19571203654E+03  0.89773428460E+02 0.  0.
        -13    1    4    4    0    0  0.28849366469E+02  0.25973277598E+02 -0.10833235657E+03  0.11507735040E+03  0.00000000000E+00 0.  1.
         13    1    4    4    0    0 -0.43885070987E+02 -0.19416309412E+02 -0.64800154949E+02  0.80634686135E+02  0.00000000000E+00 0. -1.
        -13    1    3    3    0    0 -0.49748372479E+02  0.26517220193E+02  0.21794945181E+02  0.60440740949E+02  0.00000000000E+00 0. -1.
         13    1    3    3    0    0  0.12826598876E+02 -0.34557258094E+02 -0.14851506249E+02  0.39740319117E+02  0.00000000000E+00 0.  1.
         21    1    1    2  503  502 -0.14704815591E+02 -0.38427907878E+02  0.25122080827E+01  0.41221922504E+02  0.00000000000E+00 0.  1.
          2    1    1    2  501    0  0.66662293712E+02  0.39910977592E+02 -0.30913955157E+03  0.31875383900E+03  0.00000000000E+00 0. -1.
<scales pt_clust_5="13000.00000" pt_clust_6="13000.00000" pt_clust_7="13000.00000" pt_clust_8="13000.00000" pt_clust_9="41.14530" pt_clust_10="75.48402"></scales>
<clustering>
<clus scale="   41.145">  1  9  2 -1</clus>
<clus scale="   75.484">  2 10  1 -1</clus>
<clus scale="   89.773">  5  6 -1 -1</clus>
<clus scale="   92.521">  7  8 -1 -1</clus>
<clus scale="   98.385">  2  5  1 -1</clus>
<clus scale="   75.484">  2  5  1 -1</clus>
</clustering>
</event>
<event>
10    2  0.3984345E-006  0.1078959E+03  0.7546771E-02  0.1264887E+00
         21   -1    0    0  501  502  0.00000000000E+00  0.00000000000E+00  0.56044659806E+03  0.56044659806E+03  0.00000000000E+00 0. -1.
          2   -1    0    0  503    0 -0.00000000000E+00 -0.00000000000E+00 -0.27421391686E+03  0.27421391686E+03  0.00000000000E+00 0. -1.
         23    2    1    2    0    0  0.73209357250E+02 -0.38988508791E+02 -0.17278286271E+03  0.21202712280E+03  0.90674524261E+02 0.  0.
         23    2    1    2    0    0 -0.25184640203E+00  0.14760600015E+02  0.70084062487E+01  0.91223826891E+02  0.89748148143E+02 0.  0.
        -11    1    4    4    0    0  0.39065592551E+02 -0.10509479403E+02 -0.96787047441E+01  0.41596237861E+02  0.00000000000E+00 0. -1.
         11    1    4    4    0    0 -0.39317438953E+02  0.25270079418E+02  0.16687110993E+02  0.49627589030E+02  0.00000000000E+00 0.  1.
        -13    1    3    3    0    0  0.13601248567E+01 -0.40451084550E+02 -0.24667949324E+02  0.47398817546E+02  0.00000000000E+00 0.  1.
         13    1    3    3    0    0  0.71849232393E+02  0.14625757591E+01 -0.14811491339E+03  0.16462830526E+03  0.00000000000E+00 0. -1.
         21    1    1    2  503  502 -0.20942221033E+02 -0.27723723526E+02 -0.28729685560E+02  0.45084102523E+02  0.00000000000E+00 0. -1.
          2    1    1    2  501    0 -0.52015289815E+02  0.51951632303E+02  0.48073682322E+03  0.48632546270E+03  0.00000000000E+00 0. -1.
<scales pt_clust_5="13000.00000" pt_clust_6="13000.00000" pt_clust_7="13000.00000" pt_clust_8="13000.00000" pt_clust_9="34.74452" pt_clust_10="73.46063"></scales>
<clustering>
<clus scale="   34.745">  2  9  1 -1</clus>
<clus scale="   73.461">  1 10  2 -1</clus>
<clus scale="   89.748">  5  6 -1 -1</clus>
<clus scale="   90.675">  7  8 -1 -1</clus>
<clus scale="  107.119">  1  5  2 -1</clus>
<clus scale="   73.461">  1  5  2 -1</clus>
</clustering>
</event>
<event>
10    2  0.3984345E-006  0.1151560E+03  0.7546771E-02  0.1253502E+00
         -2   -1    0    0    0  501 -0.00000000000E+00  0.00000000000E+00  0.39696972435E+03  0.39696972435E+03  0.00000000000E+00 0.  1.
         21   -1    0    0  503  502  0.00000000000E+00 -0.00000000000E+00 -0.86878464998E+02  0.86878464998E+02  0.00000000000E+00 0.  1.
         23    2    1    2    0    0  0.47701265024E+01  0.80006470062E+02  0.27358259816E+03  0.30005223676E+03  0.93595498875E+02 0.  0.
         23    2    1    2    0    0 -0.32800337045E+01 -0.42863336092E+02  0.22399536702E+02  0.10000821725E+03  0.87475025414E+02 0.  0.
        -11    1    3    3    0    0  0.34063082977E+02  0.27043727951E+02  0.41170726886E+02  0.59888943852E+02  0.00000000000E+00 0. -1.
         11    1    3    3    0    0 -0.29292956474E+02  0.52962742111E+02  0.23241187128E+03  0.24016329291E+03  0.00000000000E+00 0.  1.
        -13    1    4    4    0    0 -0.26923085647E+02 -0.22873120317E+01 -0.22405664461E+02  0.35101255491E+02  0.00000000000E+00 0.  1.
         13    1    4    4    0    0  0.23643051943E+02 -0.40576024061E+02  0.44805201163E+02  0.64906961760E+02  0.00000000000E+00 0. -1.
         21    1    1    2  503  501  0.26638182749E+02 -0.82815918194E+01  0.29543182409E+02  0.40632218375E+02  0.00000000000E+00 0.  1.
         -2    1    1    2    0  502 -0.28128275547E+02 -0.28861542150E+02 -0.15434057919E+02  0.43155516964E+02  0.00000000000E+00 0.  1.
<scales pt_clust_5="13000.00000" pt_clust_6="13000.00000" pt_clust_7="13000.00000" pt_clust_8="13000.00000" pt_clust_9="27.89583" pt_clust_10="39.82765"></scales>
<clustering>
<clus scale="   27.896">  1  9  2 -1</clus>
<clus scale="   39.828">  2 10  1 -1</clus>
<clus scale="   87.475">  7  8 -1 -1</clus>
<clus scale="   93.595">  5  6 -1 -1</clus>
<clus scale="  110.239">  2  7  1 -1</clus>
<clus scale="   39.828">  2  5  1 -1</clus>
</clustering>
</event>
<event>
10    2  0.3984345E-006  0.9776297E+02  0.7546771E-02  0.1286570E+00
          4   -1    0    0  503    0 -0.00000000000E+00  0.00000000000E+00  0.71992247487E+03  0.71992247487E+03  0.00000000000E+00 0. -1.
         21   -1    0    0  501  502  0.00000000000E+00 -0.00000000000E+00 -0.14083234150E+03  0.14083234150E+03  0.00000000000E+00 0. -1.
         23    2    1    2    0    0  0.35350036359E+02 -0.20832609977E+02  0.11271907955E+03  0.15150371067E+03  0.92542750893E+02 0.  0.
         23    2    1    2    0    0  0.10559503691E+03  0.60507713666E+01  0.65720812711E+02  0.15344474718E+03  0.89661260080E+02 0.  0.
        -11    1    3    3    0    0 -0.20712606406E+02 -0.86346153981E+00 -0.34139034950E+01  0.21009815968E+02  0.00000000000E+00 0.  1.
         11    1    3    3    0    0  0.56062642765E+02 -0.19969148437E+02  0.11613298305E+03  0.13049389470E+03  0.00000000000E+00 0. -1.
        -11    1    4    4    0    0  0.64093678473E+02  0.47421878728E+02  0.32639096320E+02  0.86151870618E+02  0.00000000000E+00 0. -1.
         11    1    4    4    0    0  0.41501358438E+02 -0.41371107362E+02  0.33081716391E+02  0.67292876562E+02  0.00000000000E+00 0.  1.
         21    1    1    2  503  502 -0.71048251148E+02  0.22900064729E+02  0.45860832800E+03  0.46464380494E+03  0.00000000000E+00 0.  1.
          4    1    1    2  501    0 -0.69896822123E+02 -0.81182261181E+01 -0.57958086897E+02  0.91162553578E+02  0.00000000000E+00 0. -1.
<scales pt_clust_5="13000.00000" pt_clust_6="13000.00000" pt_clust_7="13000.00000" pt_clust_8="13000.00000" pt_clust_9="77.57491" pt_clust_10="70.36669"></scales>
<clustering>
<clus scale="   70.367">  2 10  1 -1</clus>
<clus scale="   77.575">  1  9  2 -1</clus>
<clus scale="   89.661">  7  8 -1 -1</clus>
<clus scale="   92.543">  5  6 -1 -1</clus>
<clus scale="   95.040">  2  7  1 -1</clus>
<clus scale="   70.367">  2  5  1 -1</clus>
</clustering>
</event>
<event>
10    2  0.3984345E-006  0.1528532E+03  0.7546771E-02  0.1207366E+00
          2   -1    0    0  503    0 -0.00000000000E+00  0.00000000000E+00  0.77324381448E+02  0.77324381448E+02  0.00000000000E+00 0. -1.
         21   -1    0    0  501  502  0.00000000000E+00 -0.00000000000E+00 -0.11845796421E+04  0.11845796421E+04  0.00000000000E+00 0. -1.
         23    2    1    2    0    0  0.57326894042E+02  0.69217690144E+02 -0.86831267111E+02  0.15507225441E+03  0.91816522096E+02 0.  0.
         23    2    1    2    0    0  0.66414968551E+02 -0.46742279318E+01 -0.25058475266E+03  0.27775855062E+03  0.99620769545E+02 0.  0.
        -11    1    3    3    0    0  0.31125809910E+02  0.74900246645E+02 -0.20695379561E+02  0.83708791207E+02  0.00000000000E+00 0. -1.
         11    1    3    3    0    0  0.26201084132E+02 -0.56825565019E+01 -0.66135887550E+02  0.71363463201E+02  0.00000000000E+00 0.  1.
        -13    1    4    4    0    0  0.20758368458E+02 -0.49513341088E+02 -0.14074144062E+03  0.15063410608E+03  0.00000000000E+00 0.  1.
         13    1    4    4    0    0  0.45656600093E+02  0.44839113157E+02 -0.10984331204E+03  0.12712444454E+03  0.00000000000E+00 0. -1.
         21    1    1    2  503  502  0.12432075164E+02 -0.34515931559E+02  0.90610782286E+01  0.37789008493E+02  0.00000000000E+00 0. -1.
          2    1    1    2  501    0 -0.13617393776E+03 -0.30027530653E+02 -0.77890031909E+03  0.79128421000E+03  0.00000000000E+00 0. -1.
<scales pt_clust_5="13000.00000" pt_clust_6="13000.00000" pt_clust_7="13000.00000" pt_clust_8="13000.00000" pt_clust_9="36.68659" pt_clust_10="115.93017"></scales>
<clustering>
<clus scale="   36.687">  1  9  2 -1</clus>
<clus scale="   91.817">  5  6 -1 -1</clus>
<clus scale="   99.621">  7  8 -1 -1</clus>
<clus scale="  122.166">  1  5  2 -1</clus>
<clus scale="  115.930">  2 10  1 -1</clus>
<clus scale="  115.930">  2  5  1 -1</clus>
</clustering>
</event>
<event>
10    2  0.3984345E-006  0.9957025E+02  0.7546771E-02  0.1281534E+00
         -1   -1    0    0    0  501 -0.00000000000E+00  0.00000000000E+00  0.11340135380E+03  0.11340135380E+03  0.00000000000E+00 0.  1.
         21   -1    0    0  503  502  0.00000000000E+00 -0.00000000000E+00 -0.60270228517E+03  0.60270228517E+03  0.00000000000E+00 0.  1.
         23    2    1    2    0    0  0.42774922791E+02  0.42044511605E+02  0.29061055845E+02  0.11329555446E+03  0.91618244454E+02 0.  0.
         23    2    1    2    0    0  0.40802392267E+01 -0.68119378014E+02 -0.19297770007E+03  0.22397994712E+03  0.90938033689E+02 0.  0.
        -11    1    3    3    0    0  0.57782239234E+02  0.59145743761E+02  0.34987765587E+02  0.89783906780E+02  0.00000000000E+00 0. -1.
         11    1    3    3    0    0 -0.15007316443E+02 -0.17101232156E+02 -0.59267097411E+01  0.23511647676E+02  0.00000000000E+00 0.  1.
        -13    1    4    4    0    0  0.40670591832E+02 -0.20515675809E+02 -0.12624816654E+03  0.13421471436E+03  0.00000000000E+00 0. -1.
         13    1    4    4    0    0 -0.36590352605E+02 -0.47603702205E+02 -0.66729533530E+02  0.89765232761E+02  0.00000000000E+00 0.  1.
         21    1    1    2  503  501 -0.98440646209E+01 -0.32092400870E+02  0.11098051081E+02  0.35355261838E+02  0.00000000000E+00 0.  1.
         -1    1    1    2    0  502 -0.37011097397E+02  0.58167267279E+02 -0.33648233822E+03  0.34347287556E+03  0.00000000000E+00 0.  1.
<scales pt_clust_5="13000.00000" pt_clust_6="13000.00000" pt_clust_7="13000.00000" pt_clust_8="13000.00000" pt_clust_9="33.56826" pt_clust_10="68.10636"></scales>
<clustering>
<clus scale="   33.568">  1  9  2 -1</clus>
<clus scale="   68.106">  2 10  1 -1</clus>
<clus scale="   90.938">  7  8 -1 -1</clus>
<clus scale="   91.618">  5  6 -1 -1</clus>
<clus scale="   98.945">  2  7  1 -1</clus>
<clus scale="   68.106">  2  5  1 -1</clus>
</clustering>
</event>
<event>
10    2  0.3984345E-006  0.1548676E+03  0.7546771E-02  0.1197803E+00
         21   -1    0    0  501  502  0.00000000000E+00  0.00000000000E+00  0.22514675938E+03  0.22514675938E+03  0.00000000000E+00 0. -1.
          2   -1    0    0  503    0 -0.00000000000E+00 -0.00000000000E+00 -0.62659091251E+03  0.62659091251E+03  0.00000000000E+00 0. -1.
         23    2    1    2    0    0 -0.12413549830E+02 -0.68901279951E+02 -0.46180251132E+03  0.47584383622E+03  0.90908274704E+02 0.  0.
         23    2    1    2    0    0  0.81353999700E+02  0.12807632134E+03  0.64532542144E+02  0.19639259061E+03  0.10669387655E+03 0.  0.
        -11    1    4    4    0    0  0.16302367765E+02 -0.14592546489E+02  0.27747295129E+02  0.35335845748E+02  0.00000000000E+00 0.  1.
         11    1    4    4    0    0  0.65051631935E+02  0.14266886783E+03  0.36785247015E+02  0.16105674486E+03  0.00000000000E+00 0. -1.
        -13    1    3    3    0    0  0.14143895187E+02 -0.82351408261E+02 -0.37071989496E+03  0.38001979519E+03  0.00000000000E+00 0. -1.
         13    1    3    3    0    0 -0.26557445017E+02  0.13450128310E+02 -0.91082616359E+02  0.95824041035E+02  0.00000000000E+00 0.  1.
         21    1    1    2  503  502 -0.49805790944E+02 -0.25705043213E+02 -0.78097751663E+02  0.96128168988E+02  0.00000000000E+00 0. -1.
          2    1    1    2  501    0 -0.19134658926E+02 -0.33469998180E+02  0.73923567709E+02  0.83373076069E+02  0.00000000000E+00 0. -1.
<scales pt_clust_5="13000.00000" pt_clust_6="13000.00000" pt_clust_7="13000.00000" pt_clust_8="13000.00000" pt_clust_9="58.05322" pt_clust_10="38.55355"></scales>
<clustering>
<clus scale="   38.554">  1 10  2 -1</clus>
<clus scale="   58.053">  2  9  1 -1</clus>
<clus scale="   90.908">  7  8 -1 -1</clus>
<clus scale="  106.694">  5  6 -1 -1</clus>
<clus scale="  144.446">  2  7  1 -1</clus>
<clus scale="   38.554">  1  5  2 -1</clus>
</clustering>
</event>
<event>
10    2  0.3984345E-006  0.1282518E+03  0.7546771E-02  0.1244229E+00
         21   -1    0    0  501  502  0.00000000000E+00  0.00000000000E+00  0.19702471008E+03  0.19702471008E+03  0.00000000000E+00 0. -1.
          1   -1    0    0  503    0 -0.00000000000E+00 -0.00000000000E+00 -0.39672184807E+03  0.39672184807E+03  0.00000000000E+00 0. -1.
         23    2    1    2    0    0 -0.65534859062E+02  0.51462127003E+02 -0.16680222329E+03  0.22301938313E+03  0.12235806179E+03 0.  0.
         23    2    1    2    0    0  0.22377980023E+02  0.48745873764E+02 -0.78457611487E+02  0.12955971621E+03  0.88052195121E+02 0.  0.
        -11    1    3    3    0    0 -0.22443230515E+02 -0.26104210721E+02 -0.38910800996E+00  0.34427893028E+02  0.00000000000E+00 0.  1.
         11    1    3    3    0    0 -0.43091628547E+02  0.77566337724E+02 -0.16641311528E+03  0.18859149010E+03  0.00000000000E+00 0. -1.
        -11    1    4    4    0    0  0.27517950531E+02 -0.15795811574E+02 -0.58269458630E+01  0.32259859932E+02  0.00000000000E+00 0.  1.
         11    1    4    4    0    0 -0.51399705087E+01  0.64541685337E+02 -0.72630665624E+02  0.97299856279E+02  0.00000000000E+00 0. -1.
         21    1    1    2  503  502  0.38084758784E+02 -0.20424233032E+02 -0.80804741338E+02  0.91635169936E+02  0.00000000000E+00 0.  1.
          1    1    1    2  501    0  0.50721202556E+01 -0.79783767735E+02  0.12636743812E+03  0.14953228887E+03  0.00000000000E+00 0. -1.
<scales pt_clust_5="13000.00000" pt_clust_6="13000.00000" pt_clust_7="13000.00000" pt_clust_8="13000.00000" pt_clust_9="43.21572" pt_clust_10="80.80690"></scales>
<clustering>
<clus scale="   43.216">  2  9  1 -1</clus>
<clus scale="   80.807">  1 10  2 -1</clus>
<clus scale="   88.052">  7  8 -1 -1</clus>
<clus scale="   96.074">  1  7  2 -1</clus>
<clus scale="  122.358">  5  6 -1 -1</clus>
<clus scale="   80.807">  1  5  2 -1</clus>
</clustering>
</event>
<event>
10    2  0.3984345E-006  0.1468037E+03  0.7546771E-02  0.1218518E+00
         21   -1    0    0  503  502  0.00000000000E+00  0.00000000000E+00  0.28699955914E+03  0.28699955914E+03  0.00000000000E+00 0.  1.
         -3   -1    0    0    0  501 -0.00000000000E+00 -0.00000000000E+00 -0.38582825090E+03  0.38582825090E+03  0.00000000000E+00 0.  1.
         23    2    1    2    0    0 -0.47780294456E+02  0.32605071136E+02 -0.14148138772E+03  0.17729906018E+03  0.89843900546E+02 0.  0.
         23    2    1    2    0    0 -0.28762756971E+02  0.81068022992E+02 -0.32312942971E+02  0.12506167424E+03  0.84834990065E+02 0.  0.
        -13    1    4    4    0    0 -0.28669936706E+02 -0.95333455863E+01 -0.79583932256E+01  0.31243974963E+02  0.00000000000E+00 0.  1.
         13    1    4    4    0    0 -0.92820265213E-01  0.90601368579E+02 -0.24354549746E+02  0.93817699275E+02  0.00000000000E+00 0. -1.
        -13    1    3    3    0    0 -0.70635516752E+02  0.52922890822E+01 -0.86665309074E+02  0.11192971164E+03  0.00000000000E+00 0.  1.
         13    1    3    3    0    0  0.22855222297E+02  0.27312782054E+02 -0.54816078648E+02  0.65369348537E+02  0.00000000000E+00 0. -1.
         21    1    1    2  503  501  0.84062608690E+02 -0.14037062483E+03 -0.10103260153E+03  0.19229670061E+03  0.00000000000E+00 0.  1.
         -3    1    1    2    0  502 -0.75195572634E+01  0.26697530696E+02  0.17599824046E+03  0.17817037501E+03  0.00000000000E+00 0.  1.
<scales pt_clust_5="13000.00000" pt_clust_6="13000.00000" pt_clust_7="13000.00000" pt_clust_8="13000.00000" pt_clust_9="119.80958" pt_clust_10="27.73629"></scales>
<clustering>
<clus scale="   27.736">  1 10  2 -1</clus>
<clus scale="   84.835">  5  6 -1 -1</clus>
<clus scale="   89.844">  7  8 -1 -1</clus>
<clus scale="  108.808">  2  7  1 -1</clus>
<clus scale="  119.810">  2  9  1 -1</clus>
<clus scale="   27.736">  1  5  2 -1</clus>
</clustering>
</event>
<event>
10    2  0.3984345E-006  0.1485482E+03  0.7546771E-02  0.1204624E+00
         -1   -1    0    0    0  501 -0.00000000000E+00  0.00000000000E+00  0.33772094817E+03  0.33772094817E+03  0.00000000000E+00 0.  1.
         21   -1    0    0  503  502  0.00000000000E+00 -0.00000000000E+00 -0.26391700339E+03  0.26391700339E+03  0.00000000000E+00 0.  1.
         23    2    1    2    0    0  0.10301921863E+03  0.26099866931E+02  0.17360338966E+03  0.22753983405E+03  0.10169600148E+03 0.  0.
         23    2    1    2    0    0 -0.80467508457E+02 -0.49737712475E+02  0.89709438792E+01  0.13129067056E+03  0.90597474482E+02 0.  0.
        -11    1    4    4    0    0 -0.91240317042E+02 -0.17381075572E+02 -0.79499657815E+01  0.93220701552E+02  0.00000000000E+00 0.  1.
         11    1    4    4    0    0  0.10772808585E+02 -0.32356636904E+02  0.16920909661E+02  0.38069969008E+02  0.00000000000E+00 0. -1.
        -11    1    3    3    0    0  0.65188521577E+02 -0.72351885693E+01  0.24289078680E+02  0.69941766079E+02  0.00000000000E+00 0. -1.
         11    1    3    3    0    0  0.37830697051E+02  0.33335055501E+02  0.14931431098E+03  0.15759806797E+03  0.00000000000E+00 0.  1.
         21    1    1    2  503  501  0.68537671518E+01  0.34923837260E+02  0.60738274178E+02  0.70397347132E+02  0.00000000000E+00 0.  1.
         -1    1    1    2    0  502 -0.29405477324E+02 -0.11285991716E+02 -0.16950866294E+03  0.17241009981E+03  0.00000000000E+00 0.  1.
<scales pt_clust_5="13000.00000" pt_clust_6="13000.00000" pt_clust_7="13000.00000" pt_clust_8="13000.00000" pt_clust_9="34.74808" pt_clust_10="31.49692"></scales>
<clustering>
<clus scale="   31.497">  2 10  1 -1</clus>
<clus scale="   34.748">  1  9  2 -1</clus>
<clus scale="   90.597">  5  6 -1 -1</clus>
<clus scale="  101.696">  7  8 -1 -1</clus>
<clus scale="  141.182">  2  5  1 -1</clus>
<clus scale="   31.497">  2  5  1 -1</clus>
</clustering>
</event>
<event>
10    2  0.3984345E-006  0.9211445E+02  0.7546771E-02  0.1299674E+00
          4   -1    0    0  503    0 -0.00000000000E+00  0.00000000000E+00  0.19232503890E+03  0.19232503890E+03  0.00000000000E+00 0. -1.
         21   -1    0    0  501  502  0.00000000000E+00 -0.00000000000E+00 -0.10125561018E+03  0.10125561018E+03  0.00000000000E+00 0. -1.
         23    2    1    2    0    0 -0.13219328864E+02 -0.16055719154E+02  0.11679982309E+03  0.14843052181E+03  0.89201369700E+02 0.  0.
         23    2    1    2    0    0  0.49148699964E+01  0.33881518669E+02 -0.18618425733E+02  0.94399603351E+02  0.85979800429E+02 0.  0.
        -13    1    3    3    0    0  0.16946981951E+01  0.36484994141E+02  0.54148423432E+02  0.65315224562E+02  0.00000000000E+00 0. -1.
         13    1    3    3    0    0 -0.14914027059E+02 -0.52540713295E+02  0.62651399659E+02  0.83115297244E+02  0.00000000000E+00 0.  1.
        -13    1    4    4    0    0  0.30771204559E+02  0.15792467929E+00  0.20227896375E+02  0.36824716726E+02  0.00000000000E+00 0.  1.
         13    1    4    4    0    0 -0.25856334563E+02  0.33723593989E+02 -0.38846322108E+02  0.57574886625E+02  0.00000000000E+00 0. -1.
         21    1    1    2  503  502 -0.10280352005E+02 -0.25969088085E+02 -0.11130098848E+02  0.30065898850E+02  0.00000000000E+00 0. -1.
          4    1    1    2  501    0  0.18584810872E+02  0.81432885706E+01  0.40181302084E+01  0.20684625070E+02  0.00000000000E+00 0. -1.
<scales pt_clust_5="13000.00000" pt_clust_6="13000.00000" pt_clust_7="13000.00000" pt_clust_8="13000.00000" pt_clust_9="24.93695" pt_clust_10="20.29060"></scales>
<clustering>
<clus scale="   20.291">  2 10  1 -1</clus>
<clus scale="   24.937">  2  9  1 -1</clus>
<clus scale="   85.980">  7  8 -1 -1</clus>
<clus scale="   88.998">  2  7  1 -1</clus>
<clus scale="   89.201">  5  6 -1 -1</clus>
<clus scale="   20.291">  2  5  1 -1</clus>
</clustering>
</event>
<event>
10    2  0.3984345E-006  0.2175054E+03  0.7546771E-02  0.1135945E+00
          1   -1    0    0  503    0 -0.00000000000E+00  0.00000000000E+00  0.33358585481E+03  0.33358585481E+03  0.00000000000E+00 0. -1.
         21   -1    0    0  501  502  0.00000000000E+00 -0.00000000000E+00 -0.27895337401E+03  0.27895337401E+03  0.00000000000E+00 0.  1.
         23    2    1    2    0    0  0.23392961661E+03 -0.15601163288E+02  0.10308734851E+03  0.27261783161E+03  0.93418514580E+02 0.  0.
         23    2    1    2    0    0 -0.16468052376E+03  0.39966021583E+02 -0.28638767173E+02  0.19450878601E+03  0.91085295551E+02 0.  0.
        -11    1    3    3    0    0  0.21654320946E+03  0.15081658915E+02  0.90380964425E+02  0.23513216864E+03  0.00000000000E+00 0.  1.
         11    1    3    3    0    0  0.17386407152E+02 -0.30682822203E+02  0.12706384086E+02  0.37485662974E+02  0.00000000000E+00 0. -1.
        -13    1    4    4    0    0 -0.23402791057E+02  0.31959994591E+02 -0.35002730469E+02  0.52861356621E+02  0.00000000000E+00 0.  1.
         13    1    4    4    0    0 -0.14127773270E+03  0.80060269926E+01  0.63639632960E+01  0.14164742939E+03  0.00000000000E+00 0. -1.
         21    1    1    2  503  502 -0.44237860391E+02 -0.16400167362E+02  0.51246327451E+02  0.69657302982E+02  0.00000000000E+00 0.  1.
          1    1    1    2  501    0 -0.25011232466E+02 -0.79646909335E+01 -0.71062427984E+02  0.75755308211E+02  0.00000000000E+00 0. -1.
<scales pt_clust_5="13000.00000" pt_clust_6="13000.00000" pt_clust_7="13000.00000" pt_clust_8="13000.00000" pt_clust_9="48.35434" pt_clust_10="26.24877"></scales>
<clustering>
<clus scale="   26.249">  2 10  1 -1</clus>
<clus scale="   48.354">  1  9  2 -1</clus>
<clus scale="   91.085">  7  8 -1 -1</clus>
<clus scale="   93.419">  5  6 -1 -1</clus>
<clus scale="  216.514">  2  7  1 -1</clus>
<clus scale="   26.249">  2  5  1 -1</clus>
</clustering>
</event>
<event>
10    2  0.3984345E-006  0.3460666E+03  0.7546771E-02  0.1064350E+00
         21   -1    0    0  503  502  0.00000000000E+00  0.00000000000E+00  0.19557737592E+03  0.19557737592E+03  0.00000000000E+00 0.  1.
         -1   -1    0    0    0  501 -0.00000000000E+00 -0.00000000000E+00 -0.11964437439E+04  0.11964437439E+04  0.00000000000E+00 0.  1.
         23    2    1    2    0    0 -0.15814406712E+03  0.31161850197E+03 -0.53705676396E+03  0.64746735194E+03  0.93104067485E+02 0.  0.
         23    2    1    2    0    0  0.22560191316E+03 -0.24519595290E+03 -0.14791591469E+03  0.37528959781E+03  0.89139698588E+02 0.  0.
        -11    1    4    4    0    0  0.21000169524E+03 -0.23079066046E+03 -0.10821306403E+03  0.33026520886E+03  0.00000000000E+00 0.  1.
         11    1    4    4    0    0  0.15600217923E+02 -0.14405292443E+02 -0.39702850659E+02  0.45024388947E+02  0.00000000000E+00 0. -1.
        -11    1    3    3    0    0 -0.47328829447E+02  0.54953281490E+02 -0.17944959933E+03  0.19355113005E+03  0.00000000000E+00 0. -1.
         11    1    3    3    0    0 -0.11081523768E+03  0.25666522048E+03 -0.35760716463E+03  0.45391622190E+03  0.00000000000E+00 0.  1.
         21    1    1    2  503  501 -0.27257546922E+02 -0.44493983762E+02 -0.31912062090E+03  0.32335840663E+03  0.00000000000E+00 0.  1.
         -1    1    1    2    0  502 -0.40200299118E+02 -0.21928565315E+02  0.32269315920E+01  0.45905763401E+02  0.00000000000E+00 0.  1.
<scales pt_clust_5="13000.00000" pt_clust_6="13000.00000" pt_clust_7="13000.00000" pt_clust_8="13000.00000" pt_clust_9="52.67203" pt_clust_10="45.79220"></scales>
<clustering>
<clus scale="   45.792">  1 10  2 -1</clus>
<clus scale="   52.672">  2  9  1 -1</clus>
<clus scale="   89.140">  5  6 -1 -1</clus>
<clus scale="   93.104">  7  8 -1 -1</clus>
<clus scale="  345.021">  1  5  2 -1</clus>
<clus scale="   45.792">  1  5  2 -1</clus>
</clustering>
</event>
<event>
10    2  0.3984345E-006  0.1576985E+03  0.7546771E-02  0.1191772E+00
         21   -1    0    0  501  502  0.00000000000E+00  0.00000000000E+00  0.94777060621E+02  0.94777060621E+02  0.00000000000E+00 0.  1.
          2   -1    0    0  503    0 -0.00000000000E+00 -0.00000000000E+00 -0.89104878685E+03  0.89104878685E+03  0.00000000000E+00 0. -1.
         23    2    1    2    0    0  0.10220560696E+03  0.18998179867E+02 -0.62349706389E+03  0.63833349788E+03  0.88961502382E+02 0.  0.
         23    2    1    2    0    0 -0.13015172165E+03 -0.41159358373E+02 -0.79596260604E+02  0.18268469991E+03  0.91676449806E+02 0.  0.
        -11    1    3    3    0    0  0.42912913004E+02 -0.35921979213E+02 -0.24738734400E+03  0.25363833437E+03  0.00000000000E+00 0. -1.
         11    1    3    3    0    0  0.59292693956E+02  0.54920159079E+02 -0.37610971989E+03  0.38469516351E+03  0.00000000000E+00 0.  1.
        -11    1    4    4    0    0 -0.10570334388E+03 -0.51124308668E+02 -0.95944317312E+02  0.15163180362E+03  0.00000000000E+00 0. -1.
         11    1    4    4    0    0 -0.24448377767E+02  0.99649502947E+01  0.16348056708E+02  0.31052896289E+02  0.00000000000E+00 0.  1.
         21    1    1    2  503  502  0.16381211242E+02  0.42960619497E+02 -0.12026341892E+03  0.12875266537E+03  0.00000000000E+00 0. -1.
          2    1    1    2  501    0  0.11564903449E+02 -0.20799440991E+02  0.27085017187E+02  0.36054984306E+02  0.00000000000E+00 0. -1.
<scales pt_clust_5="13000.00000" pt_clust_6="13000.00000" pt_clust_7="13000.00000" pt_clust_8="13000.00000" pt_clust_9="44.96604" pt_clust_10="23.79840"></scales>
<clustering>
<clus scale="   23.798">  1 10  2 -1</clus>
<clus scale="   44.966">  2  9  1 -1</clus>
<clus scale="   88.962">  5  6 -1 -1</clus>
<clus scale="   91.676">  7  8 -1 -1</clus>
<clus scale="  156.136">  2  5  1 -1</clus>
<clus scale="   23.798">  1  5  2 -1</clus>
</clustering>
</event>
<event>
10    2  0.3984345E-006  0.2898963E+03  0.7546771E-02  0.1090412E+00
          1   -1    0    0  503    0 -0.00000000000E+00  0.00000000000E+00  0.92923497462E+03  0.92923497462E+03  0.00000000000E+00 0. -1.
         21   -1    0    0  501  502  0.00000000000E+00 -0.00000000000E+00 -0.30845480669E+03  0.30845480669E+03  0.00000000000E+00 0.  1.
         23    2    1    2    0    0 -0.22836632020E+03  0.79669652009E+02  0.27315309294E+03  0.37607862411E+03  0.91236449269E+02 0.  0.
         23    2    1    2    0    0  0.22633925470E+03 -0.12614246519E+03 -0.71878633985E+02  0.28402693375E+03  0.91451524476E+02 0.  0.
        -11    1    3    3    0    0 -0.28687962172E+02 -0.18235243042E+02  0.54305750922E+02  0.64067447628E+02  0.00000000000E+00 0.  1.
         11    1    3    3    0    0 -0.19967835803E+03  0.97904895052E+02  0.21884734202E+03  0.31201117648E+03  0.00000000000E+00 0. -1.
        -13    1    4    4    0    0 -0.56186338503E+00 -0.27242560362E+02 -0.80077032407E+01  0.28400635498E+02  0.00000000000E+00 0. -1.
         13    1    4    4    0    0  0.22690111808E+03 -0.98899904833E+02 -0.63870930744E+02  0.25562629825E+03  0.00000000000E+00 0.  1.
         21    1    1    2  503  502 -0.68172094370E+02  0.14459139329E+02  0.47655844332E+03  0.48162687950E+03  0.00000000000E+00 0. -1.
          1    1    1    2  501    0  0.70199159875E+02  0.32013673856E+02 -0.57052734347E+02  0.95957343947E+02  0.00000000000E+00 0. -1.
<scales pt_clust_5="13000.00000" pt_clust_6="13000.00000" pt_clust_7="13000.00000" pt_clust_8="13000.00000" pt_clust_9="69.68860" pt_clust_10="74.75469"></scales>
<clustering>
<clus scale="   69.689">  1  9  2 -1</clus>
<clus scale="   74.755">  2 10  1 -1</clus>
<clus scale="   91.236">  5  6 -1 -1</clus>
<clus scale="   91.452">  7  8 -1 -1</clus>
<clus scale="  289.829">  1  5  2 -1</clus>
<clus scale="   74.755">  2  5  1 -1</clus>
</clustering>
</event>
<event>
10    2  0.3984345E-006  0.1111671E+03  0.7546771E-02  0.1266839E+00
         21   -1    0    0  501  502  0.00000000000E+00  0.00000000000E+00  0.42791677901E+03  0.42791677901E+03  0.00000000000E+00 0.  1.
          1   -1    0    0  503    0 -0.00000000000E+00 -0.00000000000E+00 -0.95254793171E+02  0.95254793171E+02  0.00000000000E+00 0. -1.
         23    2    1    2    0    0 -0.41635346371E+02 -0.40292521394E+01 -0.33180976885E+02  0.10552110094E+03  0.91016419272E+02 0.  0.
         23    2    1    2    0    0 -0.39602715641E+01 -0.99653097853E+01  0.23531418933E+03  0.25930690824E+03  0.10840808922E+03 0.  0.
        -11    1    4    4    0    0  0.13678011597E+02 -0.55921054863E+02  0.15200944833E+03  0.16254576205E+03  0.00000000000E+00 0.  1.
         11    1    4    4    0    0 -0.17638283161E+02  0.45955745078E+02  0.83304741003E+02  0.96761146190E+02  0.00000000000E+00 0. -1.
        -11    1    3    3    0    0 -0.65067239712E+02 -0.10304360596E+02 -0.18591444822E+01  0.65904339381E+02  0.00000000000E+00 0.  1.
         11    1    3    3    0    0  0.23431893341E+02  0.62751084567E+01 -0.31321832402E+02  0.39616761563E+02  0.00000000000E+00 0. -1.
         21    1    1    2  503  502  0.24030111878E+02  0.29178628239E+02  0.16395623637E+02  0.41202610321E+02  0.00000000000E+00 0.  1.
          1    1    1    2  501    0  0.21565506057E+02 -0.15184066314E+02  0.11413314975E+03  0.11714095268E+03  0.00000000000E+00 0. -1.
<scales pt_clust_5="13000.00000" pt_clust_6="13000.00000" pt_clust_7="13000.00000" pt_clust_8="13000.00000" pt_clust_9="38.06074" pt_clust_10="26.37474"></scales>
<clustering>
<clus scale="   26.375">  1 10  2 -1</clus>
<clus scale="   38.061">  2  9  1 -1</clus>
<clus scale="   91.016">  7  8 -1 -1</clus>
<clus scale="   94.286">  2  7  1 -1</clus>
<clus scale="  108.408">  5  6 -1 -1</clus>
<clus scale="   26.375">  1  5  2 -1</clus>
</clustering>
</event>
<event>
10    2  0.3984345E-006  0.1536735E+03  0.7546771E-02  0.1196276E+00
         21   -1    0    0  503  502  0.00000000000E+00  0.00000000000E+00  0.47570172106E+03  0.47570172106E+03  0.00000000000E+00 0.  1.
         -3   -1    0    0    0  501 -0.00000000000E+00 -0.00000000000E+00 -0.21831012077E+03  0.21831012077E+03  0.00000000000E+00 0.  1.
         23    2    1    2    0    0 -0.20759885741E+02  0.10534145053E+03 -0.36867914938E+02  0.14558312041E+03  0.91144981983E+02 0.  0.
         23    2    1    2    0    0  0.24497224218E+02 -0.10012875004E+03  0.25537616312E+03  0.28965097518E+03  0.89748661022E+02 0.  0.
        -11    1    3    3    0    0 -0.47738644988E+02  0.71648872103E+02 -0.51118963469E+02  0.10012835525E+03  0.00000000000E+00 0.  1.
         11    1    3    3    0    0  0.26978759247E+02  0.33692578426E+02  0.14251048531E+02  0.45454765159E+02  0.00000000000E+00 0. -1.
        -13    1    4    4    0    0 -0.28513083930E+02 -0.62886320789E+02  0.10221227708E+03  0.12334923949E+03  0.00000000000E+00 0.  1.
         13    1    4    4    0    0  0.53010308148E+02 -0.37242429249E+02  0.15316388604E+03  0.16630173569E+03  0.00000000000E+00 0. -1.
         21    1    1    2  503  501  0.42246650944E+01  0.29537805919E+02 -0.10571707944E+03  0.10984730610E+03  0.00000000000E+00 0.  1.
         -3    1    1    2    0  502 -0.79620035716E+01 -0.34750506410E+02  0.14460043155E+03  0.14893044014E+03  0.00000000000E+00 0.  1.
<scales pt_clust_5="13000.00000" pt_clust_6="13000.00000" pt_clust_7="13000.00000" pt_clust_8="13000.00000" pt_clust_9="29.83839" pt_clust_10="35.06855"></scales>
<clustering>
<clus scale="   29.838">  2  9  1 -1</clus>
<clus scale="   35.069">  1 10  2 -1</clus>
<clus scale="   89.749">  7  8 -1 -1</clus>
<clus scale="   91.145">  5  6 -1 -1</clus>
<clus scale="  152.850">  1  7  2 -1</clus>
<clus scale="   35.069">  1  5  2 -1</clus>
</clustering>
</event>
<event>
10    2  0.3984345E-006  0.2235213E+03  0.7546771E-02  0.1164499E+00
         21   -1    0    0  503  502  0.00000000000E+00  0.00000000000E+00  0.50172571662E+03  0.50172571662E+03  0.00000000000E+00 0.  1.
         -1   -1    0    0    0  501 -0.00000000000E+00 -0.00000000000E+00 -0.46333420517E+03  0.46333420517E+03  0.00000000000E+00 0.  1.
         23    2    1    2    0    0  0.41551301705E+02 -0.33179994087E+02 -0.23334694106E+02  0.10863804131E+03  0.91816629160E+02 0.  0.
         23    2    1    2    0    0 -0.21981061042E+03 -0.18699973952E+02  0.26818914722E+03  0.36118438807E+03  0.99309365229E+02 0.  0.
        -13    1    3    3    0    0  0.24209950493E+02 -0.64332707719E+02 -0.24477835634E+02  0.72965631791E+02  0.00000000000E+00 0.  1.
         13    1    3    3    0    0  0.17341351212E+02  0.31152713633E+02  0.11431415280E+01  0.35672409522E+02  0.00000000000E+00 0. -1.
        -13    1    4    4    0    0 -0.11809796095E+03 -0.58497898606E+02  0.16216927142E+03  0.20896890945E+03  0.00000000000E+00 0. -1.
         13    1    4    4    0    0 -0.10171264948E+03  0.39797924654E+02  0.10601987579E+03  0.15221547862E+03  0.00000000000E+00 0.  1.
         21    1    1    2  503  501  0.15308674110E+01  0.61502294748E+02 -0.29217745067E+03  0.29858422345E+03  0.00000000000E+00 0.  1.
         -1    1    1    2    0  502  0.17672844131E+03 -0.96223267090E+01  0.85714509008E+02  0.19665326896E+03  0.00000000000E+00 0.  1.
<scales pt_clust_5="13000.00000" pt_clust_6="13000.00000" pt_clust_7="13000.00000" pt_clust_8="13000.00000" pt_clust_9="61.52134" pt_clust_10="200.24853"></scales>
<clustering>
<clus scale="   61.521">  2  9  1 -1</clus>
<clus scale="   91.817">  5  6 -1 -1</clus>
<clus scale="   99.309">  7  8 -1 -1</clus>
<clus scale="  101.432">  2  5  1 -1</clus>
<clus scale="  200.249">  1 10  2 -1</clus>
<clus scale="  200.249">  1  5  2 -1</clus>
</clustering>
</event>
<event>
10    2  0.3984345E-006  0.1251526E+03  0.7546771E-02  0.1235379E+00
         21   -1    0    0  503  502  0.00000000000E+00  0.00000000000E+00  0.71170396133E+02  0.71170396133E+02  0.00000000000E+00 0.  1.
         -4   -1    0    0    0  501 -0.00000000000E+00 -0.00000000000E+00 -0.12740862954E+04  0.12740862954E+04  0.00000000000E+00 0.  1.
         23    2    1    2    0    0  0.99305940202E+02 -0.35560352491E+02 -0.75629367419E+03  0.76882183411E+03  0.89334666076E+02 0.  0.
         23    2    1    2    0    0 -0.52080692967E+01  0.37604830581E+02 -0.66892359562E+02  0.11934876557E+03  0.91259480636E+02 0.  0.
        -11    1    3    3    0    0  0.98082767542E+02 -0.58808707500E+02 -0.65283841158E+03  0.66277951462E+03  0.00000000000E+00 0.  1.
         11    1    3    3    0    0  0.12231726595E+01  0.23248355008E+02 -0.10345526261E+03  0.10604231949E+03  0.00000000000E+00 0. -1.
        -13    1    4    4    0    0 -0.13303234239E+01  0.58282710640E+02 -0.76532106527E+02  0.96207107064E+02  0.00000000000E+00 0. -1.
         13    1    4    4    0    0 -0.38777458727E+01 -0.20677880059E+02  0.96397469651E+01  0.23141658505E+02  0.00000000000E+00 0.  1.
         21    1    1    2  503  501 -0.27267469318E+02 -0.38386359602E+02 -0.37807481242E+03  0.38099552658E+03  0.00000000000E+00 0.  1.
         -4    1    1    2    0  502 -0.66830401587E+02  0.36341881512E+02 -0.16550531314E+01  0.76090565309E+02  0.00000000000E+00 0.  1.
<scales pt_clust_5="13000.00000" pt_clust_6="13000.00000" pt_clust_7="13000.00000" pt_clust_8="13000.00000" pt_clust_9="47.08532" pt_clust_10="76.34366"></scales>
<clustering>
<clus scale="   47.085">  2  9  1 -1</clus>
<clus scale="   76.344">  1 10  2 -1</clus>
<clus scale="   89.335">  5  6 -1 -1</clus>
<clus scale="   91.259">  7  8 -1 -1</clus>
<clus scale="  123.756">  2  5  1 -1</clus>
<clus scale="   76.344">  1  5  2 -1</clus>
</clustering>
</event>
<event>
10    2  0.3984345E-006  0.2786564E+03  0.7546771E-02  0.1096581E+00
          1   -1    0    0  503    0 -0.00000000000E+00  0.00000000000E+00  0.91362670314E+03  0.91362670314E+03  0.00000000000E+00 0. -1.
         21   -1    0    0  501  502  0.00000000000E+00 -0.00000000000E+00 -0.23389313519E+03  0.23389313519E+03  0.00000000000E+00 0. -1.
         23    2    1    2    0    0 -0.45854276645E+02  0.28575775255E+03  0.38272733162E+03  0.48854043319E+03  0.91822854789E+02 0.  0.
         23    2    1    2    0    0  0.12416754001E+03 -0.22653480245E+03  0.38884435938E+02  0.27576847079E+03  0.88321319124E+02 0.  0.
        -11    1    4    4    0    0  0.10275585173E+03 -0.10597299224E+03  0.41356428812E+02  0.15329512175E+03  0.00000000000E+00 0. -1.
         11    1    4    4    0    0  0.21411688280E+02 -0.12056181021E+03 -0.24719928734E+01  0.12247334904E+03  0.00000000000E+00 0.  1.
        -13    1    3    3    0    0 -0.55493683991E+02  0.19210010566E+03  0.19906103091E+03  0.28214764501E+03  0.00000000000E+00 0.  1.
         13    1    3    3    0    0  0.96394073464E+01  0.93657646887E+02  0.18366630072E+03  0.20639278818E+03  0.00000000000E+00 0. -1.
         21    1    1    2  503  502  0.18913832164E+02 -0.30696260408E+02  0.27768335257E+03  0.28001435275E+03  0.00000000000E+00 0. -1.
          1    1    1    2  501    0 -0.97227095530E+02 -0.28526689688E+02 -0.19561552177E+02  0.10319658160E+03  0.00000000000E+00 0. -1.
<scales pt_clust_5="13000.00000" pt_clust_6="13000.00000" pt_clust_7="13000.00000" pt_clust_8="13000.00000" pt_clust_9="36.05542" pt_clust_10="100.72540"></scales>
<clustering>
<clus scale="   36.055">  1  9  2 -1</clus>
<clus scale="   88.321">  5  6 -1 -1</clus>
<clus scale="   91.823">  7  8 -1 -1</clus>
<clus scale="  100.725">  2 10  1 -1</clus>
<clus scale="  277.522">  2  5  1 -1</clus>
<clus scale="  100.725">  2  5  1 -1</clus>
</clustering>
</event>
<event>
10    2  0.3984345E-006  0.1845167E+03  0.7546771E-02  0.1192570E+00
         -4   -1    0    0    0  501 -0.00000000000E+00  0.00000000000E+00  0.16526587980E+03  0.16526587980E+03  0.00000000000E+00 0.  1.
         21   -1    0    0  503  502  0.00000000000E+00 -0.00000000000E+00 -0.86664115543E+03  0.86664115543E+03  0.00000000000E+00 0.  1.
         23    2    1    2    0    0 -0.15917738888E+02  0.29476090183E+02  0.92632463562E+02  0.13358977950E+03  0.90239911229E+02 0.  0.
         23    2    1    2    0    0 -0.14584361735E+03 -0.44943266874E+02 -0.40250784940E+03  0.44016036366E+03  0.91860323010E+02 0.  0.
        -13    1    3    3    0    0 -0.38341429456E+02  0.39280394735E+02  0.22523987397E+02  0.59332492207E+02  0.00000000000E+00 0.  1.
         13    1    3    3    0    0  0.22423690568E+02 -0.98043045525E+01  0.70108476166E+02  0.74257287297E+02  0.00000000000E+00 0. -1.
        -13    1    4    4    0    0 -0.34454405093E+02  0.22843124380E+02 -0.15484935066E+03  0.16027237991E+03  0.00000000000E+00 0. -1.
         13    1    4    4    0    0 -0.11138921226E+03 -0.67786391254E+02 -0.24765849875E+03  0.27988798375E+03  0.00000000000E+00 0.  1.
         21    1    1    2  503  501  0.15308937495E+03  0.63263802670E+02 -0.19556236190E+03  0.25628753938E+03  0.00000000000E+00 0.  1.
         -4    1    1    2    0  502  0.86719812898E+01 -0.47796625979E+02 -0.19593752789E+03  0.20186935268E+03  0.00000000000E+00 0.  1.
<scales pt_clust_5="13000.00000" pt_clust_6="13000.00000" pt_clust_7="13000.00000" pt_clust_8="13000.00000" pt_clust_9="160.02529" pt_clust_10="48.57696"></scales>
<clustering>
<clus scale="   48.577">  2 10  1 -1</clus>
<clus scale="   90.240">  5  6 -1 -1</clus>
<clus scale="   91.860">  7  8 -1 -1</clus>
<clus scale="   95.775">  1  5  2 -1</clus>
<clus scale="  160.025">  1  9  2 -1</clus>
<clus scale="   48.577">  2  5  1 -1</clus>
</clustering>
</event>
<event>
10    2  0.3984345E-006  0.1009683E+03  0.7546771E-02  0.1278504E+00
         21   -1    0    0  501  502  0.00000000000E+00  0.00000000000E+00  0.75956338271E+03  0.75956338271E+03  0.00000000000E+00 0.  1.
          3   -1    0    0  503    0 -0.00000000000E+00 -0.00000000000E+00 -0.25936043631E+02  0.25936043631E+02  0.00000000000E+00 0. -1.
         23    2    1    2    0    0  0.90103632924E+01  0.23533821857E+02  0.21697250510E+03  0.23615866986E+03  0.89770941642E+02 0.  0.
         23    2    1    2    0    0 -0.25292334695E+02 -0.64194740221E+02  0.29447296226E+03  0.31534765564E+03  0.89270104448E+02 0.  0.
        -13    1    3    3    0    0  0.39618575175E+02  0.36638347116E+02  0.90411065983E+02  0.10529083925E+03  0.00000000000E+00 0. -1.
         13    1    3    3    0    0 -0.30608211882E+02 -0.13104525259E+02  0.12656143911E+03  0.13086783061E+03  0.00000000000E+00 0.  1.
        -13    1    4    4    0    0 -0.49783521108E+01  0.20666638119E+02  0.29389083251E+02  0.36271367981E+02  0.00000000000E+00 0. -1.
         13    1    4    4    0    0 -0.20313982585E+02 -0.84861378340E+02  0.26508387901E+03  0.27907628766E+03  0.00000000000E+00 0.  1.
         21    1    1    2  503  502 -0.13205312348E+02  0.31207335088E+02  0.60235997093E+02  0.69113337231E+02  0.00000000000E+00 0. -1.
          3    1    1    2  501    0  0.29487283751E+02  0.94535832767E+01  0.16194587463E+03  0.16487976362E+03  0.00000000000E+00 0. -1.
<scales pt_clust_5="13000.00000" pt_clust_6="13000.00000" pt_clust_7="13000.00000" pt_clust_8="13000.00000" pt_clust_9="33.75038" pt_clust_10="30.96563"></scales>
<clustering>
<clus scale="   30.966">  1 10  2 -1</clus>
<clus scale="   33.750">  2  9  1 -1</clus>
<clus scale="   89.270">  7  8 -1 -1</clus>
<clus scale="   89.771">  5  6 -1 -1</clus>
<clus scale="  100.523">  1  7  2 -1</clus>
<clus scale="   30.966">  1  5  2 -1</clus>
</clustering>
</event>
<event>
10    2  0.3984345E-006  0.1687401E+03  0.7546771E-02  0.1179301E+00
         21   -1    0    0  503  502  0.00000000000E+00  0.00000000000E+00  0.24735952467E+03  0.24735952467E+03  0.00000000000E+00 0.  1.
         -1   -1    0    0    0  501 -0.00000000000E+00 -0.00000000000E+00 -0.22630007024E+03  0.22630007024E+03  0.00000000000E+00 0.  1.
         23    2    1    2    0    0  0.51425556190E+02 -0.14398707517E+03 -0.29223390989E+02  0.18038503718E+03  0.91147624291E+02 0.  0.
         23    2    1    2    0    0 -0.59720274845E+02  0.11255942840E+03  0.31021586202E+02  0.15917636803E+03  0.90214417798E+02 0.  0.
        -11    1    3    3    0    0  0.77381672382E+02 -0.11917117541E+03 -0.23041057256E+02  0.14394645737E+03  0.00000000000E+00 0.  1.
         11    1    3    3    0    0 -0.25956116192E+02 -0.24815899758E+02 -0.61823337328E+01  0.36438579815E+02  0.00000000000E+00 0. -1.
        -13    1    4    4    0    0  0.13214657686E+02  0.20597746603E+02  0.33849209785E+02  0.41769167408E+02  0.00000000000E+00 0. -1.
         13    1    4    4    0    0 -0.72934932531E+02  0.91961681795E+02 -0.28276235826E+01  0.11740720062E+03  0.00000000000E+00 0.  1.
         21    1    1    2  503  501  0.24570477314E+02  0.13465221928E+01 -0.50626647592E+02  0.56290131674E+02  0.00000000000E+00 0. -1.
         -1    1    1    2    0  502 -0.16275758659E+02  0.30081124576E+02  0.69887906814E+02  0.77808058031E+02  0.00000000000E+00 0.  1.
<scales pt_clust_5="13000.00000" pt_clust_6="13000.00000" pt_clust_7="13000.00000" pt_clust_8="13000.00000" pt_clust_9="24.60735" pt_clust_10="33.96503"></scales>
<clustering>
<clus scale="   24.607">  2  9  1 -1</clus>
<clus scale="   33.965">  1 10  2 -1</clus>
<clus scale="   90.214">  7  8 -1 -1</clus>
<clus scale="   91.148">  5  6 -1 -1</clus>
<clus scale="  168.238">  1  7  2 -1</clus>
<clus scale="   33.965">  1  5  2 -1</clus>
</clustering>
</event>
<event>
10    2  0.3984345E-006  0.3137302E+03  0.7546771E-02  0.1080273E+00
         21   -1    0    0  503  502  0.00000000000E+00  0.00000000000E+00  0.22463675116E+03  0.22463675116E+03  0.00000000000E+00 0. -1.
         -3   -1    0    0    0  501 -0.00000000000E+00 -0.00000000000E+00 -0.60902549332E+03  0.60902549332E+03  0.00000000000E+00 0.  1.
         23    2    1    2    0    0  0.33445465703E+02 -0.30051485554E+03 -0.24316402280E+03  0.39596276427E+03  0.78930292801E+02 0.  0.
         23    2    1    2    0    0  0.10802072768E+02  0.29435961812E+03 -0.64530738856E+02  0.32525183507E+03  0.12190270877E+03 0.  0.
        -13    1    4    4    0    0  0.59800609251E+02  0.10813891064E+03 -0.48941756905E+01  0.12366927596E+03  0.00000000000E+00 0.  1.
         13    1    4    4    0    0 -0.48998536483E+02  0.18622070748E+03 -0.59636563166E+02  0.20158255911E+03  0.00000000000E+00 0. -1.
        -13    1    3    3    0    0  0.46589595883E+02 -0.15959484470E+03 -0.96903280182E+02  0.19243531539E+03  0.00000000000E+00 0. -1.
         13    1    3    3    0    0 -0.13144130180E+02 -0.14092001084E+03 -0.14626074262E+03  0.20352744888E+03  0.00000000000E+00 0.  1.
         21    1    1    2  503  501 -0.30728242067E+02  0.34982043867E+02 -0.61584052203E+02  0.77204687289E+02  0.00000000000E+00 0. -1.
         -3    1    1    2    0  502 -0.13519296404E+02 -0.28826806442E+02 -0.15109928307E+02  0.35242957855E+02  0.00000000000E+00 0.  1.
<scales pt_clust_5="13000.00000" pt_clust_6="13000.00000" pt_clust_7="13000.00000" pt_clust_8="13000.00000" pt_clust_9="46.11010" pt_clust_10="31.83954"></scales>
<clustering>
<clus scale="   31.840">  1 10  2 -1</clus>
<clus scale="   46.110">  2  9  1 -1</clus>
<clus scale="   78.930">  7  8 -1 -1</clus>
<clus scale="  121.903">  5  6 -1 -1</clus>
<clus scale="  299.660">  2  7  1 -1</clus>
<clus scale="   31.840">  1  5  2 -1</clus>
</clustering>
</event>
<event>
10    2  0.3984345E-006  0.1520586E+03  0.7546771E-02  0.1198334E+00
          1   -1    0    0  503    0 -0.00000000000E+00  0.00000000000E+00  0.85949588369E+03  0.85949588369E+03  0.00000000000E+00 0. -1.
         21   -1    0    0  501  502  0.00000000000E+00 -0.00000000000E+00 -0.84359312045E+02  0.84359312045E+02  0.00000000000E+00 0. -1.
         23    2    1    2    0    0 -0.10256906607E+02 -0.74169332318E+02  0.23464414541E+03  0.26237871500E+03  0.90434623435E+02 0.  0.
         23    2    1    2    0    0 -0.82532387797E+02  0.19033516054E+03  0.20130614807E+03  0.30349490011E+03  0.92444149470E+02 0.  0.
        -13    1    3    3    0    0 -0.22928794823E+01 -0.94938208770E+02  0.19586140967E+03  0.21766996250E+03  0.00000000000E+00 0.  1.
         13    1    3    3    0    0 -0.79640271244E+01  0.20768876452E+02  0.38782735750E+02  0.44708752491E+02  0.00000000000E+00 0. -1.
        -13    1    4    4    0    0  0.10487818341E+02  0.21937139380E+02 -0.97977766451E+00  0.24335003226E+02  0.00000000000E+00 0.  1.
         13    1    4    4    0    0 -0.93020206138E+02  0.16839802116E+03  0.20228592573E+03  0.27915989688E+03  0.00000000000E+00 0. -1.
         21    1    1    2  503  502  0.40295380713E+02 -0.48544270006E+02  0.23403788534E+03  0.24239223509E+03  0.00000000000E+00 0. -1.
          1    1    1    2  501    0  0.52493913691E+02 -0.67621558214E+02  0.10514839282E+03  0.13558934553E+03  0.00000000000E+00 0. -1.
<scales pt_clust_5="13000.00000" pt_clust_6="13000.00000" pt_clust_7="13000.00000" pt_clust_8="13000.00000" pt_clust_9="63.08933" pt_clust_10="97.82281"></scales>
<clustering>
<clus scale="   63.089">  1  9  2 -1</clus>
<clus scale="   90.435">  5  6 -1 -1</clus>
<clus scale="   92.444">  7  8 -1 -1</clus>
<clus scale="   97.823">  2 10  1 -1</clus>
<clus scale="  150.845">  1  5  2 -1</clus>
<clus scale="   97.823">  2  5  1 -1</clus>
</clustering>
</event>
<event>
10    2  0.3984345E-006  0.1624505E+03  0.7546771E-02  0.1185979E+00
         21   -1    0    0  501  502  0.00000000000E+00  0.00000000000E+00  0.72734351122E+03  0.72734351122E+03  0.00000000000E+00 0. -1.
          1   -1    0    0  503    0 -0.00000000000E+00 -0.00000000000E+00 -0.25050382972E+03  0.25050382972E+03  0.00000000000E+00 0. -1.
         23    2    1    2    0    0 -0.92985519373E+02  0.35397588543E+02  0.26338417837E+02  0.13765461619E+03  0.91409983131E+02 0.  0.
         23    2    1    2    0    0  0.22124788612E+03 -0.49869502085E+02  0.36217946518E+03  0.43696890015E+03  0.91270259977E+02 0.  0.
        -13    1    4    4    0    0  0.23326642542E+02 -0.17726575116E+02  0.11506841353E+03  0.11873964591E+03  0.00000000000E+00 0.  1.
         13    1    4    4    0    0  0.19792124358E+03 -0.32142926970E+02  0.24711105164E+03  0.31822925424E+03  0.00000000000E+00 0. -1.
        -13    1    3    3    0    0 -0.22353068054E+02 -0.19768684034E+02  0.36850322569E+02  0.47417368056E+02  0.00000000000E+00 0. -1.
         13    1    3    3    0    0 -0.70632451319E+02  0.55166272578E+02 -0.10511904732E+02  0.90237248132E+02  0.00000000000E+00 0.  1.
         21    1    1    2  503  502 -0.29888762702E+02 -0.13845523174E+02 -0.14486179385E+03  0.14855967140E+03  0.00000000000E+00 0. -1.
          1    1    1    2  501    0 -0.98373604043E+02  0.28317436716E+02  0.23318359233E+03  0.25466415320E+03  0.00000000000E+00 0. -1.
<scales pt_clust_5="13000.00000" pt_clust_6="13000.00000" pt_clust_7="13000.00000" pt_clust_8="13000.00000" pt_clust_9="32.93989" pt_clust_10="104.96773"></scales>
<clustering>
<clus scale="   32.940">  2  9  1 -1</clus>
<clus scale="   91.270">  5  6 -1 -1</clus>
<clus scale="   91.410">  7  8 -1 -1</clus>
<clus scale="  104.968">  1 10  2 -1</clus>
<clus scale="  162.372">  1  5  2 -1</clus>
<clus scale="  104.968">  1  5  2 -1</clus>
</clustering>
</event>
<event>
10    2  0.3984345E-006  0.1005580E+03  0.7546771E-02  0.1279429E+00
         21   -1    0    0  501  502  0.00000000000E+00  0.00000000000E+00  0.53428448737E+02  0.53428448737E+02  0.00000000000E+00 0.  1.
          1   -1    0    0  503    0 -0.00000000000E+00 -0.00000000000E+00 -0.47462912440E+03  0.47462912440E+03  0.00000000000E+00 0. -1.
         23    2    1    2    0    0  0.21501448793E+02 -0.37526089275E+02 -0.14743697579E+03  0.17902371724E+03  0.91876601094E+02 0.  0.
         23    2    1    2    0    0 -0.50513439095E+02 -0.91978907797E+00 -0.11973180009E+03  0.15878821351E+03  0.91244393014E+02 0.  0.
        -11    1    3    3    0    0 -0.18841125283E+02 -0.52524401023E+02 -0.10309699915E+03  0.11722965469E+03  0.00000000000E+00 0.  1.
         11    1    3    3    0    0  0.40342574076E+02  0.14998311748E+02 -0.44339976642E+02  0.61794062555E+02  0.00000000000E+00 0. -1.
        -13    1    4    4    0    0  0.91906386374E+01 -0.28395115316E+02 -0.70852257638E+02  0.76881680684E+02  0.00000000000E+00 0.  1.
         13    1    4    4    0    0 -0.59704077732E+02  0.27475326238E+02 -0.48879542455E+02  0.81906532830E+02  0.00000000000E+00 0. -1.
         21    1    1    2  503  502  0.18226230906E+02  0.11815070267E+02 -0.15952180162E+03  0.16099377804E+03  0.00000000000E+00 0. -1.
          1    1    1    2  501    0  0.10785759396E+02  0.26630808086E+02  0.54899018336E+01  0.29251864337E+02  0.00000000000E+00 0. -1.
<scales pt_clust_5="13000.00000" pt_clust_6="13000.00000" pt_clust_7="13000.00000" pt_clust_8="13000.00000" pt_clust_9="21.72076" pt_clust_10="29.40830"></scales>
<clustering>
<clus scale="   21.721">  2  9  1 -1</clus>
<clus scale="   29.408">  1 10  2 -1</clus>
<clus scale="   91.244">  7  8 -1 -1</clus>
<clus scale="   91.877">  5  6 -1 -1</clus>
<clus scale="   99.981">  1  7  2 -1</clus>
<clus scale="   29.408">  1  5  2 -1</clus>
</clustering>
</event>
<event>
10    2  0.3984345E-006  0.1847285E+03  0.7546771E-02  0.1192363E+00
          1   -1    0    0  503    0 -0.00000000000E+00  0.00000000000E+00  0.81526088365E+03  0.81526088365E+03  0.00000000000E+00 0. -1.
         21   -1    0    0  501  502  0.00000000000E+00 -0.00000000000E+00 -0.26499984877E+03  0.26499984877E+03  0.00000000000E+00 0. -1.
         23    2    1    2    0    0 -0.26581162943E+02  0.13948836180E+02  0.33941738825E+03  0.35269991732E+03  0.91060089952E+02 0.  0.
         23    2    1    2    0    0  0.10068701022E+02 -0.11211529600E+03  0.19800442235E+03  0.24592503251E+03  0.92747787091E+02 0.  0.
        -11    1    3    3    0    0  0.80132262217E+01 -0.32889678710E+02  0.17580907559E+03  0.17903847022E+03  0.00000000000E+00 0.  1.
         11    1    3    3    0    0 -0.34594389165E+02  0.46838514890E+02  0.16360831266E+03  0.17366144710E+03  0.00000000000E+00 0. -1.
        -13    1    4    4    0    0 -0.16674646037E+02 -0.11528604785E+03  0.14110441834E+03  0.18297369627E+03  0.00000000000E+00 0. -1.
         13    1    4    4    0    0  0.26743347059E+02  0.31707518561E+01  0.56900004005E+02  0.62951336245E+02  0.00000000000E+00 0.  1.
         21    1    1    2  503  502  0.85426173863E+02 -0.54225684633E+02  0.20395333438E+03  0.22767305212E+03  0.00000000000E+00 0. -1.
          1    1    1    2  501    0 -0.68913711942E+02  0.15239214445E+03 -0.19111411010E+03  0.25396273046E+03  0.00000000000E+00 0. -1.
<scales pt_clust_5="13000.00000" pt_clust_6="13000.00000" pt_clust_7="13000.00000" pt_clust_8="13000.00000" pt_clust_9="87.43004" pt_clust_10="159.75749"></scales>
<clustering>
<clus scale="   91.060">  5  6 -1 -1</clus>
<clus scale="   92.748">  7  8 -1 -1</clus>
<clus scale="   95.880">  1  5  2 -1</clus>
<clus scale="   87.430">  1  9  2 -1</clus>
<clus scale="  159.757">  2 10  1 -1</clus>
<clus scale="  159.757">  2  5  1 -1</clus>
</clustering>
</event>
<event>
10    2  0.3984345E-006  0.1143171E+03  0.7546771E-02  0.1254184E+00
         -1   -1    0    0    0  501 -0.00000000000E+00  0.00000000000E+00  0.95023870843E+02  0.95023870843E+02  0.00000000000E+00 0.  1.
         21   -1    0    0  503  502  0.00000000000E+00 -0.00000000000E+00 -0.65151115268E+03  0.65151115268E+03  0.00000000000E+00 0.  1.
         23    2    1    2    0    0 -0.17215318079E+02 -0.52556989084E+02 -0.54094376465E+02  0.12222814213E+03  0.94630401479E+02 0.  0.
         23    2    1    2    0    0 -0.20265866725E+02  0.78021595871E+02 -0.11423786489E+03  0.16671338146E+03  0.90801910802E+02 0.  0.
        -11    1    4    4    0    0 -0.34219826021E+02  0.52134537988E+02 -0.12136871405E+03  0.13645281710E+03  0.00000000000E+00 0. -1.
         11    1    4    4    0    0  0.13953959296E+02  0.25887057883E+02  0.71308491527E+01  0.30260564362E+02  0.00000000000E+00 0.  1.
        -11    1    3    3    0    0  0.30306115325E+02 -0.53485041781E+02 -0.36809654732E+02  0.71652362152E+02  0.00000000000E+00 0. -1.
         11    1    3    3    0    0 -0.47521433404E+02  0.92805269730E+00 -0.17284721733E+02  0.50575779974E+02  0.00000000000E+00 0.  1.
         21    1    1    2  503  501 -0.20437843805E+02 -0.66436045548E+01  0.28956255842E+02  0.36059779440E+02  0.00000000000E+00 0.  1.
         -1    1    1    2    0  502  0.57919028609E+02 -0.18821002233E+02 -0.41711129632E+03  0.42153372050E+03  0.00000000000E+00 0.  1.
<scales pt_clust_5="13000.00000" pt_clust_6="13000.00000" pt_clust_7="13000.00000" pt_clust_8="13000.00000" pt_clust_9="21.49053" pt_clust_10="60.28705"></scales>
<clustering>
<clus scale="   21.491">  1  9  2 -1</clus>
<clus scale="   60.287">  2 10  1 -1</clus>
<clus scale="   90.802">  5  6 -1 -1</clus>
<clus scale="   94.630">  7  8 -1 -1</clus>
<clus scale="  111.169">  2  5  1 -1</clus>
<clus scale="   60.287">  2  5  1 -1</clus>
</clustering>
</event>
<event>
10    2  0.3984345E-006  0.2423051E+03  0.7546771E-02  0.1120365E+00
         21   -1    0    0  501  502  0.00000000000E+00  0.00000000000E+00  0.37133824213E+03  0.37133824213E+03  0.00000000000E+00 0.  1.
          1   -1    0    0  503    0 -0.00000000000E+00 -0.00000000000E+00 -0.38309631194E+03  0.38309631194E+03  0.00000000000E+00 0. -1.
         23    2    1    2    0    0 -0.15751807547E+03 -0.10734105492E+03 -0.22405912248E+03  0.31735197129E+03  0.11906190466E+03 0.  0.
         23    2    1    2    0    0  0.18328592893E+03  0.10050804939E+03  0.23376188650E+03  0.32658670460E+03  0.91206668119E+02 0.  0.
        -11    1    3    3    0    0 -0.42819412595E+02  0.97129108504E+01 -0.10786137715E+03  0.11645565428E+03  0.00000000000E+00 0. -1.
         11    1    3    3    0    0 -0.11469866288E+03 -0.11705396577E+03 -0.11619774533E+03  0.20089631701E+03  0.00000000000E+00 0.  1.
        -13    1    4    4    0    0  0.97816149236E+02  0.29340192611E+02  0.17019573241E+03  0.19848282869E+03  0.00000000000E+00 0.  1.
         13    1    4    4    0    0  0.85469779694E+02  0.71167856777E+02  0.63566154091E+02  0.12810387592E+03  0.00000000000E+00 0. -1.
         21    1    1    2  503  502 -0.22170212421E+02 -0.13108760563E+02 -0.60918324353E+02  0.66139248289E+02  0.00000000000E+00 0. -1.
          1    1    1    2  501    0 -0.35976410387E+01  0.19941766098E+02  0.39457490525E+02  0.44356629884E+02  0.00000000000E+00 0. -1.
<scales pt_clust_5="13000.00000" pt_clust_6="13000.00000" pt_clust_7="13000.00000" pt_clust_8="13000.00000" pt_clust_9="25.70029" pt_clust_10="20.26369"></scales>
<clustering>
<clus scale="   20.264">  1 10  2 -1</clus>
<clus scale="   25.700">  2  9  1 -1</clus>
<clus scale="   91.207">  7  8 -1 -1</clus>
<clus scale="  119.062">  5  6 -1 -1</clus>
<clus scale="  229.901">  1  7  2 -1</clus>
<clus scale="   20.264">  1  5  2 -1</clus>
</clustering>
</event>
<event>
10    2  0.3984345E-006  0.1770702E+03  0.7546771E-02  0.1170866E+00
         21   -1    0    0  503  502  0.00000000000E+00  0.00000000000E+00  0.37795682006E+03  0.37795682006E+03  0.00000000000E+00 0. -1.
         -1   -1    0    0    0  501 -0.00000000000E+00 -0.00000000000E+00 -0.40176751147E+03  0.40176751147E+03  0.00000000000E+00 0.  1.
         23    2    1    2    0    0  0.36026900682E+02  0.15783863160E+03 -0.27180488092E+03  0.32937501280E+03  0.91646246895E+02 0.  0.
         23    2    1    2    0    0 -0.13083909389E+03 -0.12990843430E+03  0.18298084220E+03  0.27494587567E+03  0.90100922003E+02 0.  0.
        -13    1    3    3    0    0 -0.18781500215E+02  0.96497260440E+02 -0.18677325049E+03  0.21106566069E+03  0.00000000000E+00 0.  1.
         13    1    3    3    0    0  0.54808400897E+02  0.61341371161E+02 -0.85031630424E+02  0.11830935211E+03  0.00000000000E+00 0. -1.
        -13    1    4    4    0    0  0.48205551003E+01 -0.41172531615E+02  0.24029935091E+02  0.47915059131E+02  0.00000000000E+00 0.  1.
         13    1    4    4    0    0 -0.13565964899E+03 -0.88735902688E+02  0.15895090711E+03  0.22703081654E+03  0.00000000000E+00 0. -1.
         21    1    1    2  503  501  0.30743263180E+02 -0.27948990551E+02 -0.36538887253E+02  0.55329780276E+02  0.00000000000E+00 0.  1.
         -1    1    1    2    0  502  0.64068930029E+02  0.18793252516E-01  0.10155223456E+03  0.12007366278E+03  0.00000000000E+00 0.  1.
<scales pt_clust_5="13000.00000" pt_clust_6="13000.00000" pt_clust_7="13000.00000" pt_clust_8="13000.00000" pt_clust_9="41.54870" pt_clust_10="64.87291"></scales>
<clustering>
<clus scale="   41.549">  2  9  1 -1</clus>
<clus scale="   64.873">  1 10  2 -1</clus>
<clus scale="   90.101">  7  8 -1 -1</clus>
<clus scale="   91.646">  5  6 -1 -1</clus>
<clus scale="  176.275">  1  7  2 -1</clus>
<clus scale="   64.873">  1  5  2 -1</clus>
</clustering>
</event>
<event>
10    2  0.3984345E-006  0.1384669E+03  0.7546771E-02  0.1215493E+00
         21   -1    0    0  501  502  0.00000000000E+00  0.00000000000E+00  0.29308260466E+03  0.29308260466E+03  0.00000000000E+00 0. -1.
          1   -1    0    0  503    0 -0.00000000000E+00 -0.00000000000E+00 -0.42727549698E+03  0.42727549698E+03  0.00000000000E+00 0. -1.
         23    2    1    2    0    0 -0.54264456197E+02 -0.92506518779E+02 -0.23692953856E+03  0.27616058097E+03  0.92881499877E+02 0.  0.
         23    2    1    2    0    0  0.29697579798E+02  0.90819612070E+02 -0.11841276459E+03  0.17846217807E+03  0.93257803980E+02 0.  0.
        -13    1    3    3    0    0  0.25017332426E+02 -0.11372397940E+02 -0.59915476233E+02  0.65917089202E+02  0.00000000000E+00 0.  1.
         13    1    3    3    0    0 -0.79281788623E+02 -0.81134120838E+02 -0.17701406232E+03  0.21024349177E+03  0.00000000000E+00 0. -1.
        -13    1    4    4    0    0  0.61123959645E+02  0.38049863245E+02 -0.60450362748E+02  0.94011578500E+02  0.00000000000E+00 0.  1.
         13    1    4    4    0    0 -0.31426379847E+02  0.52769748826E+02 -0.57962401841E+02  0.84450599575E+02  0.00000000000E+00 0. -1.
         21    1    1    2  503  502 -0.25112348823E+02  0.83918379954E+01 -0.10678318899E+02  0.28549597245E+02  0.00000000000E+00 0. -1.
          1    1    1    2  501    0  0.49679225222E+02 -0.67049312869E+01  0.23182772973E+03  0.23718574534E+03  0.00000000000E+00 0. -1.
<scales pt_clust_5="13000.00000" pt_clust_6="13000.00000" pt_clust_7="13000.00000" pt_clust_8="13000.00000" pt_clust_9="26.47741" pt_clust_10="49.95873"></scales>
<clustering>
<clus scale="   26.477">  2  9  1 -1</clus>
<clus scale="   49.959">  1 10  2 -1</clus>
<clus scale="   92.881">  5  6 -1 -1</clus>
<clus scale="   93.258">  7  8 -1 -1</clus>
<clus scale="  138.214">  2  5  1 -1</clus>
<clus scale="   49.959">  1  5  2 -1</clus>
</clustering>
</event>
<event>
10    2  0.3984345E-006  0.1157860E+03  0.7546771E-02  0.1250811E+00
         21   -1    0    0  501  502  0.00000000000E+00  0.00000000000E+00  0.15363908143E+03  0.15363908143E+03  0.00000000000E+00 0.  1.
          2   -1    0    0  503    0 -0.00000000000E+00 -0.00000000000E+00 -0.51525003850E+03  0.51525003850E+03  0.00000000000E+00 0. -1.
         23    2    1    2    0    0 -0.88799833139E+02  0.33089234553E+02 -0.26016771523E+03  0.29140231211E+03  0.90817177047E+02 0.  0.
         23    2    1    2    0    0  0.68470491172E+02  0.44208817177E+01 -0.89758889710E+02  0.14386510975E+03  0.89066038218E+02 0.  0.
        -11    1    3    3    0    0  0.45828139309E+01  0.25569532351E+02 -0.17616490052E+02  0.31387001927E+02  0.00000000000E+00 0.  1.
         11    1    3    3    0    0 -0.93382647069E+02  0.75197022018E+01 -0.24255122517E+03  0.26001531018E+03  0.00000000000E+00 0. -1.
        -13    1    4    4    0    0  0.11620409145E+02  0.24185344030E+02 -0.78070639100E+02  0.82552949457E+02  0.00000000000E+00 0. -1.
         13    1    4    4    0    0  0.56850082027E+02 -0.19764462312E+02 -0.11688250610E+02  0.61312160289E+02  0.00000000000E+00 0.  1.
         21    1    1    2  503  502  0.28787655947E+02 -0.60479311464E+02 -0.11192465450E+03  0.13043620869E+03  0.00000000000E+00 0.  1.
          2    1    1    2  501    0 -0.84583139808E+01  0.22969195193E+02  0.10024030237E+03  0.10318548940E+03  0.00000000000E+00 0. -1.
<scales pt_clust_5="13000.00000" pt_clust_6="13000.00000" pt_clust_7="13000.00000" pt_clust_8="13000.00000" pt_clust_9="62.63764" pt_clust_10="24.47707"></scales>
<clustering>
<clus scale="   24.477">  1 10  2 -1</clus>
<clus scale="   62.638">  2  9  1 -1</clus>
<clus scale="   89.066">  7  8 -1 -1</clus>
<clus scale="   90.817">  5  6 -1 -1</clus>
<clus scale="  114.418">  1  7  2 -1</clus>
<clus scale="   24.477">  1  5  2 -1</clus>
</clustering>
</event>
<event>
10    2  0.3984345E-006  0.1461977E+03  0.7546771E-02  0.1209086E+00
         21   -1    0    0  501  502  0.00000000000E+00  0.00000000000E+00  0.15136750835E+03  0.15136750835E+03  0.00000000000E+00 0.  1.
          2   -1    0    0  503    0 -0.00000000000E+00 -0.00000000000E+00 -0.45003744433E+03  0.45003744433E+03  0.00000000000E+00 0. -1.
         23    2    1    2    0    0  0.62897041060E+02 -0.80867962781E+02 -0.18588290843E+03  0.23159271623E+03  0.92666419952E+02 0.  0.
         23    2    1    2    0    0 -0.10836664822E+03  0.23355395909E+02  0.17909842495E+02  0.15639882583E+03  0.10886241453E+03 0.  0.
        -11    1    4    4    0    0 -0.66882273109E+02 -0.27552401424E+02 -0.26594620452E+02  0.77069106116E+02  0.00000000000E+00 0. -1.
         11    1    4    4    0    0 -0.41484375116E+02  0.50907797333E+02  0.44504462948E+02  0.79329719716E+02  0.00000000000E+00 0.  1.
        -13    1    3    3    0    0  0.30793668077E+02  0.12525260703E+02 -0.80878289708E+02  0.87443867111E+02  0.00000000000E+00 0.  1.
         13    1    3    3    0    0  0.32103372983E+02 -0.93393223484E+02 -0.10500461872E+03  0.14414884912E+03  0.00000000000E+00 0. -1.
         21    1    1    2  503  502 -0.36832648145E+02 -0.25775844775E+02 -0.65352343985E+02  0.79321920095E+02  0.00000000000E+00 0.  1.
          2    1    1    2  501    0  0.82302255310E+02  0.83288411647E+02 -0.65344526067E+02  0.13409149052E+03  0.00000000000E+00 0. -1.
<scales pt_clust_5="13000.00000" pt_clust_6="13000.00000" pt_clust_7="13000.00000" pt_clust_8="13000.00000" pt_clust_9="44.95596" pt_clust_10="105.43839"></scales>
<clustering>
<clus scale="   44.956">  2  9  1 -1</clus>
<clus scale="   92.666">  7  8 -1 -1</clus>
<clus scale="  105.438">  1 10  2 -1</clus>
<clus scale="  108.862">  5  6 -1 -1</clus>
<clus scale="  134.573">  2  7  1 -1</clus>
<clus scale="  105.438">  1  5  2 -1</clus>
</clustering>
</event>
<event>
10    2  0.3984345E-006  0.1239606E+03  0.7546771E-02  0.1238077E+00
         21   -1    0    0  501  502  0.00000000000E+00  0.00000000000E+00  0.26847269570E+03  0.26847269570E+03  0.00000000000E+00 0. -1.
          1   -1    0    0  503    0 -0.00000000000E+00 -0.00000000000E+00 -0.26709531993E+03  0.26709531993E+03  0.00000000000E+00 0. -1.
         23    2    1    2    0    0 -0.10241981046E+03 -0.29711682359E+02 -0.18046854639E+03  0.23065078520E+03  0.96219991875E+02 0.  0.
         23    2    1    2    0    0  0.64019377467E+02 -0.13486437303E+02  0.39626818513E+02  0.11946267736E+03  0.91764273297E+02 0.  0.
        -13    1    4    4    0    0  0.74069192400E+02 -0.39433508724E+02  0.22836850191E+02  0.86964179981E+02  0.00000000000E+00 0.  1.
         13    1    4    4    0    0 -0.10049814933E+02  0.25947071421E+02  0.16789968322E+02  0.32498497377E+02  0.00000000000E+00 0. -1.
        -13    1    3    3    0    0 -0.11026288419E+03 -0.50271581915E+02 -0.14576743644E+03  0.18956075835E+03  0.00000000000E+00 0. -1.
         13    1    3    3    0    0  0.78430737354E+01  0.20559899556E+02 -0.34701109948E+02  0.41090026856E+02  0.00000000000E+00 0.  1.
         21    1    1    2  503  502  0.27573582008E+02  0.69994708860E+01 -0.88020977940E+01  0.29778716275E+02  0.00000000000E+00 0. -1.
          1    1    1    2  501    0  0.10826850982E+02  0.36198648775E+02  0.15102120144E+03  0.15567583679E+03  0.00000000000E+00 0. -1.
<scales pt_clust_5="13000.00000" pt_clust_6="13000.00000" pt_clust_7="13000.00000" pt_clust_8="13000.00000" pt_clust_9="28.44811" pt_clust_10="37.92098"></scales>
<clustering>
<clus scale="   28.448">  2  9  1 -1</clus>
<clus scale="   37.921">  1 10  2 -1</clus>
<clus scale="   91.764">  5  6 -1 -1</clus>
<clus scale="   96.220">  7  8 -1 -1</clus>
<clus scale="  120.535">  1  5  2 -1</clus>
<clus scale="   37.921">  1  5  2 -1</clus>
</clustering>
</event>
<event>
10    2  0.3984345E-006  0.1007929E+03  0.7546771E-02  0.1278771E+00
          1   -1    0    0  503    0 -0.00000000000E+00  0.00000000000E+00  0.15617497241E+03  0.15617497241E+03  0.00000000000E+00 0. -1.
         21   -1    0    0  501  502  0.00000000000E+00 -0.00000000000E+00 -0.43831903340E+03  0.43831903340E+03  0.00000000000E+00 0. -1.
         23    2    1    2    0    0 -0.27136150999E+02  0.21774732355E+00  0.38426644498E+02  0.10156309197E+03  0.90011313388E+02 0.  0.
         23    2    1    2    0    0  0.10051039320E+03  0.76277395087E+02 -0.21338943502E+03  0.26364031319E+03  0.89725044544E+02 0.  0.
        -11    1    4    4    0    0  0.10863291404E+03  0.37126130537E+02 -0.15563464093E+03  0.19339493540E+03  0.00000000000E+00 0. -1.
         11    1    4    4    0    0 -0.81225208354E+01  0.39151264550E+02 -0.57754794085E+02  0.70245377787E+02  0.00000000000E+00 0.  1.
        -13    1    3    3    0    0  0.33009478279E+02 -0.59567818323E+01  0.13051392197E+02  0.35992328965E+02  0.00000000000E+00 0.  1.
         13    1    3    3    0    0 -0.60145629278E+02  0.61745291558E+01  0.25375252301E+02  0.65570763004E+02  0.00000000000E+00 0. -1.
         21    1    1    2  503  502 -0.29315488370E+01 -0.25011451066E+02  0.46321219947E+02  0.52724018060E+02  0.00000000000E+00 0.  1.
          1    1    1    2  501    0 -0.70442693367E+02 -0.51483691344E+02 -0.15350249042E+03  0.17656658259E+03  0.00000000000E+00 0. -1.
<scales pt_clust_5="13000.00000" pt_clust_6="13000.00000" pt_clust_7="13000.00000" pt_clust_8="13000.00000" pt_clust_9="25.18267" pt_clust_10="89.12510"></scales>
<clustering>
<clus scale="   25.183">  1  9  2 -1</clus>
<clus scale="   89.125">  2 10  1 -1</clus>
<clus scale="   89.725">  5  6 -1 -1</clus>
<clus scale="   90.011">  7  8 -1 -1</clus>
<clus scale="  100.537">  2  5  1 -1</clus>
<clus scale="   89.125">  2  5  1 -1</clus>
</clustering>
</event>
<event>
10    2  0.3984345E-006  0.2485029E+03  0.7546771E-02  0.1114363E+00
         21   -1    0    0  503  502  0.00000000000E+00  0.00000000000E+00  0.17251700732E+03  0.17251700732E+03  0.00000000000E+00 0.  1.
         -1   -1    0    0    0  501 -0.00000000000E+00 -0.00000000000E+00 -0.10481869467E+04  0.10481869467E+04  0.00000000000E+00 0.  1.
         23    2    1    2    0    0  0.23465160874E+02 -0.14983418486E+03 -0.19318020518E+03  0.26180236998E+03  0.90669689142E+02 0.  0.
         23    2    1    2    0    0 -0.44208794159E+02  0.33296322638E+03 -0.56926279138E+03  0.66741177897E+03  0.92517184625E+02 0.  0.
        -11    1    3    3    0    0 -0.24189975863E+02 -0.10743453353E+03 -0.99176384973E+02  0.14820016620E+03  0.00000000000E+00 0.  1.
         11    1    3    3    0    0  0.47655136736E+02 -0.42399651330E+02 -0.94003820204E+02  0.11360220378E+03  0.00000000000E+00 0. -1.
        -13    1    4    4    0    0 -0.24311718332E+02  0.27630114727E+02 -0.10612546200E+03  0.11232584997E+03  0.00000000000E+00 0. -1.
         13    1    4    4    0    0 -0.19897075826E+02  0.30533311165E+03 -0.46313732939E+03  0.55508592900E+03  0.00000000000E+00 0.  1.
         21    1    1    2  503  501 -0.43115167898E+01 -0.27233816670E+02 -0.12982800165E+03  0.13272369780E+03  0.00000000000E+00 0. -1.
         -1    1    1    2    0  502  0.25055150075E+02 -0.15589522485E+03  0.16601058783E+02  0.15876610731E+03  0.00000000000E+00 0.  1.
<scales pt_clust_5="13000.00000" pt_clust_6="13000.00000" pt_clust_7="13000.00000" pt_clust_8="13000.00000" pt_clust_9="27.57299" pt_clust_10="159.92866"></scales>
<clustering>
<clus scale="   27.573">  2  9  1 -1</clus>
<clus scale="   90.670">  5  6 -1 -1</clus>
<clus scale="   92.517">  7  8 -1 -1</clus>
<clus scale="  159.929">  1 10  2 -1</clus>
<clus scale="  247.821">  2  5  1 -1</clus>
<clus scale="  159.929">  1  5  2 -1</clus>
</clustering>
</event>
<event>
10    2  0.3984345E-006  0.2169439E+03  0.7546771E-02  0.1166668E+00
         21   -1    0    0  503  502  0.00000000000E+00  0.00000000000E+00  0.83039752462E+03  0.83039752462E+03  0.00000000000E+00 0.  1.
         -1   -1    0    0    0  501 -0.00000000000E+00 -0.00000000000E+00 -0.30180847191E+03  0.30180847191E+03  0.00000000000E+00 0.  1.
         23    2    1    2    0    0 -0.15999346483E+02  0.41982394539E+02 -0.13762265992E+03  0.17286413941E+03  0.94464351104E+02 0.  0.
         23    2    1    2    0    0 -0.36058271814E+02 -0.26407139040E+03  0.56570685780E+03  0.63198985335E+03  0.91394899092E+02 0.  0.
        -11    1    4    4    0    0 -0.44479448791E+02 -0.62941486439E+02  0.20342386449E+03  0.21753464258E+03  0.00000000000E+00 0. -1.
         11    1    4    4    0    0  0.84211769770E+01 -0.20112990396E+03  0.36228299331E+03  0.41445521077E+03  0.00000000000E+00 0.  1.
        -13    1    3    3    0    0 -0.45696207294E+02 -0.58334283436E+01 -0.44488672748E+02  0.64042284860E+02  0.00000000000E+00 0. -1.
         13    1    3    3    0    0  0.29696860810E+02  0.47815822882E+02 -0.93133987173E+02  0.10882185455E+03  0.00000000000E+00 0.  1.
         21    1    1    2  503  501  0.79215303412E+02  0.14466166209E+03 -0.35317221677E+02  0.16866940126E+03  0.00000000000E+00 0.  1.
         -1    1    1    2    0  502 -0.27157685114E+02  0.77427333767E+02  0.13582207650E+03  0.15868260251E+03  0.00000000000E+00 0.  1.
<scales pt_clust_5="13000.00000" pt_clust_6="13000.00000" pt_clust_7="13000.00000" pt_clust_8="13000.00000" pt_clust_9="196.75267" pt_clust_10="82.05201"></scales>
<clustering>
<clus scale="   82.052">  1 10  2 -1</clus>
<clus scale="   91.395">  5  6 -1 -1</clus>
<clus scale="   94.464">  7  8 -1 -1</clus>
<clus scale="  105.530">  2  7  1 -1</clus>
<clus scale="  196.753">  2  9  1 -1</clus>
<clus scale="   82.052">  1  5  2 -1</clus>
</clustering>
</event>
<event>
10    2  0.3984345E-006  0.1083168E+03  0.7546771E-02  0.1263761E+00
          2   -1    0    0  503    0 -0.00000000000E+00  0.00000000000E+00  0.67648122382E+03  0.67648122382E+03  0.00000000000E+00 0. -1.
         21   -1    0    0  501  502  0.00000000000E+00 -0.00000000000E+00 -0.33745100273E+02  0.33745100273E+02  0.00000000000E+00 0.  1.
         23    2    1    2    0    0  0.41406974177E+02 -0.21216806392E+02  0.23160619980E+03  0.25341134982E+03  0.91712540300E+02 0.  0.
         23    2    1    2    0    0 -0.68526295178E+02  0.13711906911E+02  0.28326393048E+03  0.30586401061E+03  0.91817586291E+02 0.  0.
        -13    1    4    4    0    0  0.15121983981E+02  0.17378988632E+02  0.12203691284E+03  0.12419223703E+03  0.00000000000E+00 0. -1.
         13    1    4    4    0    0 -0.83648279159E+02 -0.36670817216E+01  0.16122701765E+03  0.18167177358E+03  0.00000000000E+00 0.  1.
        -13    1    3    3    0    0 -0.25677222993E+02  0.51376487730E+01  0.99883518133E+02  0.10325905486E+03  0.00000000000E+00 0.  1.
         13    1    3    3    0    0  0.67084197171E+02 -0.26354455165E+02  0.13172268167E+03  0.15015229497E+03  0.00000000000E+00 0. -1.
         21    1    1    2  503  502  0.31136774289E+02 -0.29404471311E+02  0.74672220226E+02  0.86081717685E+02  0.00000000000E+00 0.  1.
          2    1    1    2  501    0 -0.40174532878E+01  0.36909370792E+02  0.53193773032E+02  0.64869245969E+02  0.00000000000E+00 0. -1.
<scales pt_clust_5="13000.00000" pt_clust_6="13000.00000" pt_clust_7="13000.00000" pt_clust_8="13000.00000" pt_clust_9="37.37475" pt_clust_10="37.12737"></scales>
<clustering>
<clus scale="   37.127">  2 10  1 -1</clus>
<clus scale="   37.375">  2  9  1 -1</clus>
<clus scale="   91.713">  7  8 -1 -1</clus>
<clus scale="   91.818">  5  6 -1 -1</clus>
<clus scale="  108.228">  1  7  2 -1</clus>
<clus scale="   37.127">  2  5  1 -1</clus>
</clustering>
</event>
<event>
10    2  0.3984345E-006  0.2286025E+03  0.7546771E-02  0.1162737E+00
         21   -1    0    0  501  502  0.00000000000E+00  0.00000000000E+00  0.19053329738E+03  0.19053329738E+03  0.00000000000E+00 0. -1.
          1   -1    0    0  503    0 -0.00000000000E+00 -0.00000000000E+00 -0.95955741807E+03  0.95955741807E+03  0.00000000000E+00 0. -1.
         23    2    1    2    0    0 -0.16646786687E+02  0.18532202724E+02 -0.16851596793E+03  0.19350097528E+03  0.91784736982E+02 0.  0.
         23    2    1    2    0    0 -0.11637333599E+03 -0.11383003087E+03 -0.54379771412E+03  0.57471769879E+03  0.89913570528E+02 0.  0.
        -11    1    4    4    0    0 -0.83489193629E+02 -0.11784695855E+03 -0.35878269932E+03  0.38676010190E+03  0.00000000000E+00 0.  1.
         11    1    4    4    0    0 -0.32884142357E+02  0.40169276818E+01 -0.18501501480E+03  0.18795759689E+03  0.00000000000E+00 0. -1.
        -13    1    3    3    0    0  0.25193405025E+02 -0.22282672149E+02 -0.86323736016E+02  0.92644549406E+02  0.00000000000E+00 0.  1.
         13    1    3    3    0    0 -0.41840191712E+02  0.40814874873E+02 -0.82192231912E+02  0.10085642587E+03  0.00000000000E+00 0. -1.
         21    1    1    2  503  502 -0.64470423553E+02  0.34591087922E+01 -0.13563142553E+03  0.15021412895E+03  0.00000000000E+00 0. -1.
          1    1    1    2  501    0  0.19749054623E+03  0.91838719349E+02  0.78920986885E+02  0.23165791243E+03  0.00000000000E+00 0. -1.
<scales pt_clust_5="13000.00000" pt_clust_6="13000.00000" pt_clust_7="13000.00000" pt_clust_8="13000.00000" pt_clust_9="64.56315" pt_clust_10="210.17770"></scales>
<clustering>
<clus scale="   64.563">  2  9  1 -1</clus>
<clus scale="   89.914">  5  6 -1 -1</clus>
<clus scale="   91.785">  7  8 -1 -1</clus>
<clus scale="   98.762">  2  7  1 -1</clus>
<clus scale="  210.178">  1 10  2 -1</clus>
<clus scale="  210.178">  1  5  2 -1</clus>
</clustering>
</event>
<event>
10    2  0.3984345E-006  0.3594429E+03  0.7546771E-02  0.1059192E+00
          2   -1    0    0  503    0 -0.00000000000E+00  0.00000000000E+00  0.38579439645E+03  0.38579439645E+03  0.00000000000E+00 0. -1.
         21   -1    0    0  501  502  0.00000000000E+00 -0.00000000000E+00 -0.12437111966E+04  0.12437111966E+04  0.00000000000E+00 0.  1.
         23    2    1    2    0    0  0.15437599092E+03  0.19230278092E+03  0.16439075020E+03  0.30971958414E+03  0.89942181018E+02 0.  0.
         23    2    1    2    0    0 -0.70339925030E+02 -0.34273812265E+03 -0.55301273339E+03  0.66265108976E+03  0.10424134355E+03 0.  0.
        -11    1    3    3    0    0  0.19892094917E+02  0.91624271767E+02  0.70150739845E+02  0.11709751884E+03  0.00000000000E+00 0.  1.
         11    1    3    3    0    0  0.13448389600E+03  0.10067850915E+03  0.94240010355E+02  0.19262206530E+03  0.00000000000E+00 0. -1.
        -13    1    4    4    0    0 -0.59524112282E+02 -0.70328684461E+02 -0.15196085520E+03  0.17771141020E+03  0.00000000000E+00 0. -1.
         13    1    4    4    0    0 -0.10815812747E+02 -0.27240943819E+03 -0.40105187819E+03  0.48493967956E+03  0.00000000000E+00 0.  1.
         21    1    1    2  503  502 -0.18587706092E+02  0.16658436784E+03  0.14891550462E+02  0.16827837860E+03  0.00000000000E+00 0. -1.
          2    1    1    2  501    0 -0.65448359799E+02 -0.16149026111E+02 -0.48418636746E+03  0.48885654059E+03  0.00000000000E+00 0. -1.
<scales pt_clust_5="13000.00000" pt_clust_6="13000.00000" pt_clust_7="13000.00000" pt_clust_8="13000.00000" pt_clust_9="166.86508" pt_clust_10="67.41127"></scales>
<clustering>
<clus scale="   67.411">  2 10  1 -1</clus>
<clus scale="   89.942">  5  6 -1 -1</clus>
<clus scale="  104.241">  7  8 -1 -1</clus>
<clus scale="  166.865">  1  9  2 -1</clus>
<clus scale="  355.560">  1  5  2 -1</clus>
<clus scale="   67.411">  2  5  1 -1</clus>
</clustering>
</event>
<event>
10    2  0.3984345E-006  0.2674182E+03  0.7546771E-02  0.1138777E+00
          3   -1    0    0  503    0 -0.00000000000E+00  0.00000000000E+00  0.20309703937E+03  0.20309703937E+03  0.00000000000E+00 0. -1.
         21   -1    0    0  501  502  0.00000000000E+00 -0.00000000000E+00 -0.10494113301E+04  0.10494113301E+04  0.00000000000E+00 0. -1.
         23    2    1    2    0    0  0.56631387634E+02 -0.21075302667E+02  0.30809313744E+02  0.11410858331E+03  0.91762042940E+02 0.  0.
         23    2    1    2    0    0 -0.95432583439E+01 -0.20122406142E+03 -0.47328598691E+03  0.52227235861E+03  0.90479801509E+02 0.  0.
        -13    1    4    4    0    0  0.28543564167E+02 -0.16424539346E+03 -0.33607131757E+03  0.37514692431E+03  0.00000000000E+00 0. -1.
         13    1    4    4    0    0 -0.38086822511E+02 -0.36978667961E+02 -0.13721466934E+03  0.14712543429E+03  0.00000000000E+00 0.  1.
        -13    1    3    3    0    0 -0.15358271269E+02 -0.31193517278E+02 -0.93675671983E+00  0.34782028833E+02  0.00000000000E+00 0. -1.
         13    1    3    3    0    0  0.71989658903E+02  0.10118214611E+02  0.31746070464E+02  0.79326554481E+02  0.00000000000E+00 0.  1.
         21    1    1    2  503  502  0.16583819150E+02  0.28205760642E+03 -0.99567634945E+02  0.29957508295E+03  0.00000000000E+00 0. -1.
          3    1    1    2  501    0 -0.63671948440E+02 -0.59758242336E+02 -0.30426998259E+03  0.31655234457E+03  0.00000000000E+00 0. -1.
<scales pt_clust_5="13000.00000" pt_clust_6="13000.00000" pt_clust_7="13000.00000" pt_clust_8="13000.00000" pt_clust_9="251.64636" pt_clust_10="87.32219"></scales>
<clustering>
<clus scale="   87.322">  2 10  1 -1</clus>
<clus scale="   90.480">  5  6 -1 -1</clus>
<clus scale="   91.762">  7  8 -1 -1</clus>
<clus scale="  108.772">  1  7  2 -1</clus>
<clus scale="  251.646">  1  9  2 -1</clus>
<clus scale="   87.322">  2  5  1 -1</clus>
</clustering>
</event>
<event>
10    2  0.3984345E-006  0.2239993E+03  0.7546771E-02  0.1131329E+00
          1   -1    0    0  503    0 -0.00000000000E+00  0.00000000000E+00  0.28504420479E+03  0.28504420479E+03  0.00000000000E+00 0. -1.
         21   -1    0    0  501  502  0.00000000000E+00 -0.00000000000E+00 -0.47910280964E+03  0.47910280964E+03  0.00000000000E+00 0. -1.
         23    2    1    2    0    0  0.21277089035E+03  0.25301384665E+02  0.13116071172E+03  0.26948708688E+03  0.97511772885E+02 0.  0.
         23    2    1    2    0    0 -0.17005959224E+03 -0.46226889915E+02 -0.12864595835E+03  0.23697768438E+03  0.92474050559E+02 0.  0.
        -13    1    3    3    0    0  0.85041703768E+02  0.90178089254E+01 -0.23345550564E+00  0.85518809387E+02  0.00000000000E+00 0.  1.
         13    1    3    3    0    0  0.12772918659E+03  0.16283575739E+02  0.13139416722E+03  0.18396827750E+03  0.00000000000E+00 0. -1.
        -13    1    4    4    0    0 -0.23756862871E+02  0.10260170566E+02 -0.60846735330E+02  0.66120986334E+02  0.00000000000E+00 0.  1.
         13    1    4    4    0    0 -0.14630272937E+03 -0.56487060481E+02 -0.67799223025E+02  0.17085669804E+03  0.00000000000E+00 0. -1.
         21    1    1    2  503  502 -0.68598833057E+00 -0.20609539437E+02  0.22652826404E+02  0.30632894736E+02  0.00000000000E+00 0.  1.
          1    1    1    2  501    0 -0.42025309780E+02  0.41535044688E+02 -0.21922618462E+03  0.22704934843E+03  0.00000000000E+00 0. -1.
<scales pt_clust_5="13000.00000" pt_clust_6="13000.00000" pt_clust_7="13000.00000" pt_clust_8="13000.00000" pt_clust_9="20.62095" pt_clust_10="58.87564"></scales>
<clustering>
<clus scale="   20.621">  1  9  2 -1</clus>
<clus scale="   58.876">  2 10  1 -1</clus>
<clus scale="   92.474">  7  8 -1 -1</clus>
<clus scale="   97.512">  5  6 -1 -1</clus>
<clus scale="  221.853">  2  7  1 -1</clus>
<clus scale="   58.876">  2  5  1 -1</clus>
</clustering>
</event>
<event>
10    2  0.3984345E-006  0.1148834E+03  0.7546771E-02  0.1255327E+00
         21   -1    0    0  501  502  0.00000000000E+00  0.00000000000E+00  0.13631049277E+03  0.13631049277E+03  0.00000000000E+00 0.  1.
          1   -1    0    0  503    0 -0.00000000000E+00 -0.00000000000E+00 -0.30086808460E+03  0.30086808460E+03  0.00000000000E+00 0. -1.
         23    2    1    2    0    0  0.83578687058E+01 -0.40959767275E+02 -0.13710676511E+03  0.17436676191E+03  0.99287190091E+02 0.  0.
         23    2    1    2    0    0 -0.56589465697E+02  0.37696639152E+02  0.39342313420E+02  0.11956892089E+03  0.90141582997E+02 0.  0.
        -11    1    3    3    0    0 -0.25017462699E+02 -0.21394186184E+02 -0.13115652688E+03  0.13522432912E+03  0.00000000000E+00 0. -1.
         11    1    3    3    0    0  0.33375331405E+02 -0.19565581091E+02 -0.59502382278E+01  0.39142432791E+02  0.00000000000E+00 0.  1.
        -13    1    4    4    0    0 -0.34647771873E+02  0.58877585009E+02  0.52694351875E+02  0.86277070139E+02  0.00000000000E+00 0.  1.
         13    1    4    4    0    0 -0.21941693824E+02 -0.21180945857E+02 -0.13352038455E+02  0.33291850747E+02  0.00000000000E+00 0. -1.
         21    1    1    2  503  502  0.23310669995E+02 -0.14205181801E+02 -0.96757137870E+02  0.10053416461E+03  0.00000000000E+00 0. -1.
          1    1    1    2  501    0  0.24920926996E+02  0.17468309924E+02  0.29963997736E+02  0.42708729953E+02  0.00000000000E+00 0. -1.
<scales pt_clust_5="13000.00000" pt_clust_6="13000.00000" pt_clust_7="13000.00000" pt_clust_8="13000.00000" pt_clust_9="27.29789" pt_clust_10="30.78811"></scales>
<clustering>
<clus scale="   27.298">  2  9  1 -1</clus>
<clus scale="   30.788">  1 10  2 -1</clus>
<clus scale="   90.142">  7  8 -1 -1</clus>
<clus scale="   99.287">  5  6 -1 -1</clus>
<clus scale="  107.078">  1  7  2 -1</clus>
<clus scale="   30.788">  1  5  2 -1</clus>
</clustering>
</event>
<event>
10    2  0.3984345E-006  0.2584631E+03  0.7546771E-02  0.1108244E+00
         21   -1    0    0  501  502  0.00000000000E+00  0.00000000000E+00  0.42755337063E+03  0.42755337063E+03  0.00000000000E+00 0. -1.
          3   -1    0    0  503    0 -0.00000000000E+00 -0.00000000000E+00 -0.28059419618E+03  0.28059419618E+03  0.00000000000E+00 0. -1.
         23    2    1    2    0    0  0.19011786503E+03  0.15730728800E+03 -0.63772863449E+02  0.27128939887E+03  0.92954689828E+02 0.  0.
         23    2    1    2    0    0 -0.18134342632E+03 -0.13816282391E+03  0.69555143128E+02  0.25467881291E+03  0.89716083437E+02 0.  0.
        -11    1    4    4    0    0 -0.14823558656E+03 -0.68020184838E+02  0.24352761773E+02  0.16490479579E+03  0.00000000000E+00 0. -1.
         11    1    4    4    0    0 -0.33107839765E+02 -0.70142639071E+02  0.45202381355E+02  0.89774017120E+02  0.00000000000E+00 0.  1.
        -13    1    3    3    0    0  0.30250027694E+02 -0.18452080193E+01 -0.30976074042E+02  0.43335737345E+02  0.00000000000E+00 0.  1.
         13    1    3    3    0    0  0.15986783734E+03  0.15915249602E+03 -0.32796789407E+02  0.22795366152E+03  0.00000000000E+00 0. -1.
         21    1    1    2  503  502 -0.43143770461E+01  0.20131938135E+02 -0.12104121398E+02  0.23883436461E+02  0.00000000000E+00 0.  1.
          3    1    1    2  501    0 -0.44600616664E+01 -0.39276402231E+02  0.15328101617E+03  0.15829591858E+03  0.00000000000E+00 0. -1.
<scales pt_clust_5="13000.00000" pt_clust_6="13000.00000" pt_clust_7="13000.00000" pt_clust_8="13000.00000" pt_clust_9="20.58905" pt_clust_10="39.34252"></scales>
<clustering>
<clus scale="   20.589">  2  9  1 -1</clus>
<clus scale="   39.343">  1 10  2 -1</clus>
<clus scale="   89.716">  5  6 -1 -1</clus>
<clus scale="   92.955">  7  8 -1 -1</clus>
<clus scale="  257.316">  1  5  2 -1</clus>
<clus scale="   39.343">  1  5  2 -1</clus>
</clustering>
</event>
<event>
10    2  0.3984345E-006  0.1400563E+03  0.7546771E-02  0.1213664E+00
         21   -1    0    0  501  502  0.00000000000E+00  0.00000000000E+00  0.20239706832E+03  0.20239706832E+03  0.00000000000E+00 0. -1.
          2   -1    0    0  503    0 -0.00000000000E+00 -0.00000000000E+00 -0.81930962365E+03  0.81930962365E+03  0.00000000000E+00 0. -1.
         23    2    1    2    0    0  0.48838773827E+02 -0.57892441585E+02 -0.31514248169E+03  0.33675597406E+03  0.91394976224E+02 0.  0.
         23    2    1    2    0    0 -0.10211825488E+03  0.13268609479E+03 -0.36549538919E+03  0.41268951150E+03  0.93230980119E+02 0.  0.
        -11    1    4    4    0    0  0.52663253826E+01  0.21578957705E+02 -0.12411858732E+03  0.12609048067E+03  0.00000000000E+00 0.  1.
         11    1    4    4    0    0 -0.10738458027E+03  0.11110713709E+03 -0.24137680187E+03  0.28659903083E+03  0.00000000000E+00 0. -1.
        -11    1    3    3    0    0  0.58203970744E+02 -0.76323908336E+02 -0.23178908490E+03  0.25087690423E+03  0.00000000000E+00 0. -1.
         11    1    3    3    0    0 -0.93651969168E+01  0.18431466751E+02 -0.83353396786E+02  0.85879069835E+02  0.00000000000E+00 0.  1.
         21    1    1    2  503  502  0.93867455230E+02 -0.51351923847E+01 -0.69246285602E+02  0.11675837196E+03  0.00000000000E+00 0. -1.
          2    1    1    2  501    0 -0.40587974173E+02 -0.69658460822E+02  0.13297160114E+03  0.15550283445E+03  0.00000000000E+00 0. -1.
<scales pt_clust_5="13000.00000" pt_clust_6="13000.00000" pt_clust_7="13000.00000" pt_clust_8="13000.00000" pt_clust_9="84.27169" pt_clust_10="80.62062"></scales>
<clustering>
<clus scale="   80.621">  1 10  2 -1</clus>
<clus scale="   84.272">  1  9  2 -1</clus>
<clus scale="   91.395">  7  8 -1 -1</clus>
<clus scale="   93.231">  5  6 -1 -1</clus>
<clus scale="  138.841">  2  7  1 -1</clus>
<clus scale="   80.621">  1  5  2 -1</clus>
</clustering>
</event>
<event>
10    2  0.3984345E-006  0.1111772E+03  0.7546771E-02  0.1258558E+00
         21   -1    0    0  503  502  0.00000000000E+00  0.00000000000E+00  0.17107799442E+03  0.17107799442E+03  0.00000000000E+00 0.  1.
         -1   -1    0    0    0  501 -0.00000000000E+00 -0.00000000000E+00 -0.20161001115E+03  0.20161001115E+03  0.00000000000E+00 0.  1.
         23    2    1    2    0    0 -0.55627721368E+02  0.62374752501E+02 -0.96643813730E+02  0.15673412761E+03  0.90777237738E+02 0.  0.
         23    2    1    2    0    0  0.17603519905E+02 -0.33488527647E+02  0.47702673238E+02  0.10964331272E+03  0.91185226835E+02 0.  0.
        -11    1    4    4    0    0  0.38202578129E+02 -0.31294575980E+02 -0.81687582474E+01  0.50055130335E+02  0.00000000000E+00 0. -1.
         11    1    4    4    0    0 -0.20599058224E+02 -0.21939516670E+01  0.55871431486E+02  0.59588182384E+02  0.00000000000E+00 0.  1.
        -13    1    3    3    0    0 -0.14263781069E+02  0.71794367696E+02 -0.33107631207E+02  0.80336803069E+02  0.00000000000E+00 0.  1.
         13    1    3    3    0    0 -0.41363940299E+02 -0.94196151951E+01 -0.63536182522E+02  0.76397324540E+02  0.00000000000E+00 0. -1.
         21    1    1    2  503  501  0.45736770552E+02  0.14955811623E+02 -0.15276326745E+02  0.50486578817E+02  0.00000000000E+00 0.  1.
         -1    1    1    2    0  502 -0.77125690894E+01 -0.43842036476E+02  0.33685450510E+02  0.55823986425E+02  0.00000000000E+00 0.  1.
<scales pt_clust_5="13000.00000" pt_clust_6="13000.00000" pt_clust_7="13000.00000" pt_clust_8="13000.00000" pt_clust_9="45.52947" pt_clust_10="44.51525"></scales>
<clustering>
<clus scale="   44.515">  1 10  2 -1</clus>
<clus scale="   45.529">  2  9  1 -1</clus>
<clus scale="   90.777">  7  8 -1 -1</clus>
<clus scale="   91.185">  5  6 -1 -1</clus>
<clus scale="  110.843">  2  7  1 -1</clus>
<clus scale="   44.515">  1  5  2 -1</clus>
</clustering>
</event>
<event>
10    2  0.3984345E-006  0.1096688E+03  0.7546771E-02  0.1261196E+00
         -2   -1    0    0    0  501 -0.00000000000E+00  0.00000000000E+00  0.16355386492E+03  0.16355386492E+03  0.00000000000E+00 0.  1.
         21   -1    0    0  503  502  0.00000000000E+00 -0.00000000000E+00 -0.13925458974E+03  0.13925458974E+03  0.00000000000E+00 0. -1.
         23    2    1    2    0    0  0.83395133781E+01 -0.51537605942E+02  0.26849485539E+02  0.10809600684E+03  0.90764417656E+02 0.  0.
         23    2    1    2    0    0 -0.12270754789E+02  0.61667839727E+02 -0.44170589756E+02  0.11894566103E+03  0.90793917186E+02 0.  0.
        -13    1    3    3    0    0  0.45242250741E+02 -0.50442275085E+02  0.18622288981E+02  0.70271431000E+02  0.00000000000E+00 0. -1.
         13    1    3    3    0    0 -0.36902737363E+02 -0.10953308563E+01  0.82271965575E+01  0.37824575844E+02  0.00000000000E+00 0.  1.
        -13    1    4    4    0    0 -0.19185419943E+02 -0.59858317062E+01 -0.46753951399E+02  0.50890495095E+02  0.00000000000E+00 0. -1.
         13    1    4    4    0    0  0.69146651538E+01  0.67653671433E+02  0.25833616428E+01  0.68055165932E+02  0.00000000000E+00 0.  1.
         21    1    1    2  503  501 -0.77323417830E+01 -0.30388471246E+02  0.41883780882E+01  0.31635277858E+02  0.00000000000E+00 0. -1.
         -2    1    1    2    0  502  0.11663583194E+02  0.20258237461E+02  0.37432001314E+02  0.44131508929E+02  0.00000000000E+00 0.  1.
<scales pt_clust_5="13000.00000" pt_clust_6="13000.00000" pt_clust_7="13000.00000" pt_clust_8="13000.00000" pt_clust_9="29.09086" pt_clust_10="23.37597"></scales>
<clustering>
<clus scale="   23.376">  2 10  1 -1</clus>
<clus scale="   29.091">  1  9  2 -1</clus>
<clus scale="   90.764">  5  6 -1 -1</clus>
<clus scale="   90.794">  7  8 -1 -1</clus>
<clus scale="  109.644">  1  5  2 -1</clus>
<clus scale="   23.376">  2  5  1 -1</clus>
</clustering>
</event>
<event>
10    2  0.3984345E-006  0.3520281E+03  0.7546771E-02  0.1061834E+00
         21   -1    0    0  501  502  0.00000000000E+00  0.00000000000E+00  0.96089395701E+03  0.96089395701E+03  0.00000000000E+00 0. -1.
          1   -1    0    0  503    0 -0.00000000000E+00 -0.00000000000E+00 -0.25779144806E+03  0.25779144806E+03  0.00000000000E+00 0. -1.
         23    2    1    2    0    0 -0.16840214226E+03 -0.28637564102E+03  0.32746295431E+03  0.47492307195E+03  0.89160801558E+02 0.  0.
         23    2    1    2    0    0  0.20267903977E+03  0.27783045809E+03  0.23175172122E+03  0.42456883272E+03  0.91001520994E+02 0.  0.
        -11    1    3    3    0    0 -0.13961456342E+03 -0.18214355134E+03  0.17795038268E+03  0.29040461138E+03  0.00000000000E+00 0. -1.
         11    1    3    3    0    0 -0.28787578834E+02 -0.10423208968E+03  0.14951257163E+03  0.18451846057E+03  0.00000000000E+00 0.  1.
        -13    1    4    4    0    0  0.32935748560E+02  0.76274802226E+02  0.99835818574E+02  0.12988379290E+03  0.00000000000E+00 0.  1.
         13    1    4    4    0    0  0.16974329121E+03  0.20155565586E+03  0.13191590264E+03  0.29468503982E+03  0.00000000000E+00 0. -1.
         21    1    1    2  503  502  0.62216967968E+02  0.13625147595E+02 -0.63786184912E+02  0.90140296958E+02  0.00000000000E+00 0. -1.
          1    1    1    2  501    0 -0.96493865485E+02 -0.50799646638E+01  0.20767401834E+03  0.22905320345E+03  0.00000000000E+00 0. -1.
<scales pt_clust_5="13000.00000" pt_clust_6="13000.00000" pt_clust_7="13000.00000" pt_clust_8="13000.00000" pt_clust_9="63.69141" pt_clust_10="92.91431"></scales>
<clustering>
<clus scale="   63.691">  2  9  1 -1</clus>
<clus scale="   89.161">  5  6 -1 -1</clus>
<clus scale="   91.002">  7  8 -1 -1</clus>
<clus scale="   92.914">  1 10  2 -1</clus>
<clus scale="  351.557">  2  5  1 -1</clus>
<clus scale="   92.914">  1  5  2 -1</clus>
</clustering>
</event>
<event>
10    2  0.3984345E-006  0.3333876E+03  0.7546771E-02  0.1086429E+00
         21   -1    0    0  501  502  0.00000000000E+00  0.00000000000E+00  0.41834357339E+03  0.41834357339E+03  0.00000000000E+00 0. -1.
          2   -1    0    0  503    0 -0.00000000000E+00 -0.00000000000E+00 -0.20681134947E+04  0.20681134947E+04  0.00000000000E+00 0. -1.
         23    2    1    2    0    0 -0.40204898034E+02  0.16353054757E+03 -0.55919930239E+03  0.59036898390E+03  0.86446535767E+02 0.  0.
         23    2    1    2    0    0  0.33760552657E+03 -0.11048632239E+03 -0.11129816140E+04  0.11718999212E+04  0.91851147542E+02 0.  0.
        -11    1    4    4    0    0  0.87910490488E+02 -0.38479233635E+02 -0.18756964520E+03  0.21069237661E+03  0.00000000000E+00 0.  1.
         11    1    4    4    0    0  0.24969503608E+03 -0.72007088758E+02 -0.92541196877E+03  0.96120754461E+03  0.00000000000E+00 0. -1.
        -11    1    3    3    0    0  0.11056283300E+02  0.12374021416E+03 -0.37895712341E+03  0.39880118278E+03  0.00000000000E+00 0. -1.
         11    1    3    3    0    0 -0.51261181334E+02  0.39790333407E+02 -0.18024217898E+03  0.19156780113E+03  0.00000000000E+00 0.  1.
         21    1    1    2  503  502 -0.18891113846E+01  0.79175337354E+02 -0.27401935804E+03  0.28523483548E+03  0.00000000000E+00 0.  1.
          2    1    1    2  501    0 -0.29551151715E+03 -0.13221956253E+03  0.29643035309E+03  0.43895332750E+03  0.00000000000E+00 0. -1.
<scales pt_clust_5="13000.00000" pt_clust_6="13000.00000" pt_clust_7="13000.00000" pt_clust_8="13000.00000" pt_clust_9="79.19787" pt_clust_10="320.48501"></scales>
<clustering>
<clus scale="   79.198">  2  9  1 -1</clus>
<clus scale="   86.447">  7  8 -1 -1</clus>
<clus scale="   91.851">  5  6 -1 -1</clus>
<clus scale="  211.779">  2  7  1 -1</clus>
<clus scale="  320.485">  1 10  2 -1</clus>
<clus scale="  320.485">  1  5  2 -1</clus>
</clustering>
</event>
<event>
10    2  0.3984345E-006  0.1253962E+03  0.7546771E-02  0.1239808E+00
          1   -1    0    0  503    0 -0.00000000000E+00  0.00000000000E+00  0.68340553639E+03  0.68340553639E+03  0.00000000000E+00 0. -1.
         21   -1    0    0  501  502  0.00000000000E+00 -0.00000000000E+00 -0.38072561535E+02  0.38072561535E+02  0.00000000000E+00 0.  1.
         23    2    1    2    0    0  0.33550104275E+02  0.58656206819E+02  0.30482105366E+03  0.32992226029E+03  0.10661455335E+03 0.  0.
         23    2    1    2    0    0 -0.18074238732E+02 -0.68317198208E+02  0.22829559542E+03  0.25571787250E+03  0.90988096758E+02 0.  0.
        -13    1    3    3    0    0 -0.23766681614E+02 -0.13649693982E+02  0.33164042999E+02  0.43023517392E+02  0.00000000000E+00 0.  1.
         13    1    3    3    0    0  0.57316785889E+02  0.72305900800E+02  0.27165701067E+03  0.28689874290E+03  0.00000000000E+00 0. -1.
        -13    1    4    4    0    0 -0.24923813181E+02 -0.89371886935E+02  0.19105949203E+03  0.21239646921E+03  0.00000000000E+00 0.  1.
         13    1    4    4    0    0  0.68495744484E+01  0.21054688727E+02  0.37236103392E+02  0.43321403294E+02  0.00000000000E+00 0. -1.
         21    1    1    2  503  502 -0.20658665757E+02 -0.12666299905E+02  0.11019510232E+03  0.11282808249E+03  0.00000000000E+00 0.  1.
          1    1    1    2  501    0  0.51828002143E+01  0.22327291295E+02  0.20212234513E+01  0.23009882635E+02  0.00000000000E+00 0. -1.
<scales pt_clust_5="13000.00000" pt_clust_6="13000.00000" pt_clust_7="13000.00000" pt_clust_8="13000.00000" pt_clust_9="23.47744" pt_clust_10="22.92094"></scales>
<clustering>
<clus scale="   22.921">  2 10  1 -1</clus>
<clus scale="   23.477">  1  9  2 -1</clus>
<clus scale="   90.988">  7  8 -1 -1</clus>
<clus scale="  106.615">  5  6 -1 -1</clus>
<clus scale="  112.412">  2  7  1 -1</clus>
<clus scale="   22.921">  2  5  1 -1</clus>
</clustering>
</event>
<event>
10    2  0.3984345E-006  0.1449867E+03  0.7546771E-02  0.1206862E+00
         21   -1    0    0  501  502  0.00000000000E+00  0.00000000000E+00  0.11224743604E+03  0.11224743604E+03  0.00000000000E+00 0. -1.
          3   -1    0    0  503    0 -0.00000000000E+00 -0.00000000000E+00 -0.75362083645E+03  0.75362083645E+03  0.00000000000E+00 0. -1.
         23    2    1    2    0    0 -0.86316035491E+02 -0.58843781762E+02 -0.27538248568E+03  0.30874905304E+03  0.92614338538E+02 0.  0.
         23    2    1    2    0    0  0.14293139416E+03 -0.18573598795E+02 -0.28292776102E+03  0.33063363049E+03  0.92174387160E+02 0.  0.
        -13    1    3    3    0    0  0.86013351504E+01 -0.41662061042E+02 -0.71472818018E+02  0.83174960246E+02  0.00000000000E+00 0.  1.
         13    1    3    3    0    0 -0.94917370641E+02 -0.17181720720E+02 -0.20390966766E+03  0.22557409280E+03  0.00000000000E+00 0. -1.
        -13    1    4    4    0    0  0.13456149547E+03 -0.39406040379E+02 -0.19687939600E+03  0.24170463101E+03  0.00000000000E+00 0.  1.
         13    1    4    4    0    0  0.83698986836E+01  0.20832441585E+02 -0.86048365013E+02  0.88928999475E+02  0.00000000000E+00 0. -1.
         21    1    1    2  503  502  0.25750076033E+01  0.40248701833E+02 -0.13404090287E+03  0.13997697063E+03  0.00000000000E+00 0.  1.
          3    1    1    2  501    0 -0.59190366268E+02  0.37168678723E+02  0.50977749159E+02  0.86508618335E+02  0.00000000000E+00 0. -1.
<scales pt_clust_5="13000.00000" pt_clust_6="13000.00000" pt_clust_7="13000.00000" pt_clust_8="13000.00000" pt_clust_9="40.33099" pt_clust_10="70.45410"></scales>
<clustering>
<clus scale="   40.331">  2  9  1 -1</clus>
<clus scale="   70.454">  1 10  2 -1</clus>
<clus scale="   92.174">  7  8 -1 -1</clus>
<clus scale="   92.614">  5  6 -1 -1</clus>
<clus scale="  144.706">  1  7  2 -1</clus>
<clus scale="   70.454">  1  5  2 -1</clus>
</clustering>
</event>
<event>
10    2  0.3984345E-006  0.1285293E+03  0.7546771E-02  0.1230543E+00
          2   -1    0    0  503    0 -0.00000000000E+00  0.00000000000E+00  0.45992210605E+03  0.45992210605E+03  0.00000000000E+00 0. -1.
         21   -1    0    0  501  502  0.00000000000E+00 -0.00000000000E+00 -0.40052172809E+03  0.40052172809E+03  0.00000000000E+00 0. -1.
         23    2    1    2    0    0 -0.37189217694E+02  0.87679246333E+02  0.24074092213E+03  0.27364435921E+03  0.88624802350E+02 0.  0.
         23    2    1    2    0    0 -0.13978100338E+02 -0.75780077788E+02  0.91009187021E+02  0.15056508942E+03  0.91919348073E+02 0.  0.
        -11    1    3    3    0    0 -0.13600460711E+02  0.35053709356E+02  0.14714029122E+02  0.40376202448E+02  0.00000000000E+00 0.  1.
         11    1    3    3    0    0 -0.23588756984E+02  0.52625536977E+02  0.22602689301E+03  0.23326815676E+03  0.00000000000E+00 0. -1.
        -11    1    4    4    0    0 -0.51053654271E+02 -0.61937492914E+02  0.57972590836E+02  0.99012877603E+02  0.00000000000E+00 0.  1.
         11    1    4    4    0    0  0.37075553933E+02 -0.13842584873E+02  0.33036596184E+02  0.51552211813E+02  0.00000000000E+00 0. -1.
         21    1    1    2  503  502 -0.25643270118E+01  0.20785916001E+02  0.77754697679E+02  0.80525915631E+02  0.00000000000E+00 0.  1.
          2    1    1    2  501    0  0.53731645044E+02 -0.32685084546E+02 -0.35010442886E+03  0.35570846988E+03  0.00000000000E+00 0. -1.
<scales pt_clust_5="13000.00000" pt_clust_6="13000.00000" pt_clust_7="13000.00000" pt_clust_8="13000.00000" pt_clust_9="20.94350" pt_clust_10="62.79651"></scales>
<clustering>
<clus scale="   20.943">  1  9  2 -1</clus>
<clus scale="   62.797">  2 10  1 -1</clus>
<clus scale="   88.625">  5  6 -1 -1</clus>
<clus scale="   91.919">  7  8 -1 -1</clus>
<clus scale="  126.194">  1  5  2 -1</clus>
<clus scale="   62.797">  2  5  1 -1</clus>
</clustering>
</event>
<event>
10    2  0.3984345E-006  0.1280967E+03  0.7546771E-02  0.1230620E+00
         21   -1    0    0  501  502  0.00000000000E+00  0.00000000000E+00  0.99194264090E+02  0.99194264090E+02  0.00000000000E+00 0. -1.
          1   -1    0    0  503    0 -0.00000000000E+00 -0.00000000000E+00 -0.51724296575E+03  0.51724296575E+03  0.00000000000E+00 0. -1.
         23    2    1    2    0    0 -0.87792814058E+02  0.87664496452E+01 -0.30523865868E+03  0.33130036524E+03  0.93834239042E+02 0.  0.
         23    2    1    2    0    0  0.11051551705E+03 -0.26705116312E+02 -0.50049759348E+02  0.15500570936E+03  0.92708946592E+02 0.  0.
        -11    1    4    4    0    0  0.41562060052E+02 -0.29336337000E+02 -0.66831300239E+02  0.83990762563E+02  0.00000000000E+00 0.  1.
         11    1    4    4    0    0  0.68953456998E+02  0.26312206875E+01  0.16781540891E+02  0.71014946800E+02  0.00000000000E+00 0. -1.
        -11    1    3    3    0    0 -0.80110117334E+02 -0.28561416204E+02 -0.25095109494E+03  0.26497138986E+03  0.00000000000E+00 0. -1.
         11    1    3    3    0    0 -0.76826967245E+01  0.37327865849E+02 -0.54287563740E+02  0.66328975378E+02  0.00000000000E+00 0.  1.
         21    1    1    2  503  502  0.15939421423E+02  0.21400375942E+02 -0.82411249382E+02  0.86623641522E+02  0.00000000000E+00 0.  1.
          1    1    1    2  501    0 -0.38662124415E+02 -0.34617092750E+01  0.19650965744E+02  0.43507513719E+02  0.00000000000E+00 0. -1.
<scales pt_clust_5="13000.00000" pt_clust_6="13000.00000" pt_clust_7="13000.00000" pt_clust_8="13000.00000" pt_clust_9="26.68410" pt_clust_10="38.33048"></scales>
<clustering>
<clus scale="   26.684">  2  9  1 -1</clus>
<clus scale="   38.330">  1 10  2 -1</clus>
<clus scale="   92.709">  5  6 -1 -1</clus>
<clus scale="   93.834">  7  8 -1 -1</clus>
<clus scale="  127.275">  1  5  2 -1</clus>
<clus scale="   38.330">  1  5  2 -1</clus>
</clustering>
</event>
<event>
10    2  0.3984345E-006  0.1124826E+03  0.7546771E-02  0.1259818E+00
         21   -1    0    0  501  502  0.00000000000E+00  0.00000000000E+00  0.19672953350E+03  0.19672953350E+03  0.00000000000E+00 0. -1.
          4   -1    0    0  503    0 -0.00000000000E+00 -0.00000000000E+00 -0.18449061890E+03  0.18449061890E+03  0.00000000000E+00 0. -1.
         23    2    1    2    0    0 -0.81729579940E+01  0.44552411929E+02 -0.40668921792E+02  0.10942457249E+03  0.90928879976E+02 0.  0.
         23    2    1    2    0    0  0.43111893273E+02 -0.29034880693E+02  0.40446176238E+02  0.11982054131E+03  0.10009699951E+03 0.  0.
        -11    1    4    4    0    0  0.34772263092E+02  0.33058741575E+02  0.29205587561E+02  0.56169004084E+02  0.00000000000E+00 0.  1.
         11    1    4    4    0    0  0.83396301813E+01 -0.62093622268E+02  0.11240588678E+02  0.63651537230E+02  0.00000000000E+00 0. -1.
        -11    1    3    3    0    0  0.12302421256E+02  0.59681641797E+02  0.59467330557E+00  0.60939326979E+02  0.00000000000E+00 0.  1.
         11    1    3    3    0    0 -0.20475379250E+02 -0.15129229868E+02 -0.41263595097E+02  0.48485245510E+02  0.00000000000E+00 0. -1.
         21    1    1    2  503  502 -0.62218386624E+02 -0.14260996966E+02 -0.51765254633E+02  0.82183606977E+02  0.00000000000E+00 0. -1.
          4    1    1    2  501    0  0.27279451345E+02 -0.12565342703E+01  0.64226914786E+02  0.69791431616E+02  0.00000000000E+00 0. -1.
<scales pt_clust_5="13000.00000" pt_clust_6="13000.00000" pt_clust_7="13000.00000" pt_clust_8="13000.00000" pt_clust_9="60.75326" pt_clust_10="27.30837"></scales>
<clustering>
<clus scale="   27.308">  1 10  2 -1</clus>
<clus scale="   60.753">  2  9  1 -1</clus>
<clus scale="   90.929">  7  8 -1 -1</clus>
<clus scale="  100.097">  5  6 -1 -1</clus>
<clus scale="  104.408">  2  7  1 -1</clus>
<clus scale="   27.308">  1  5  2 -1</clus>
</clustering>
</event>
<event>
10    2  0.3984345E-006  0.1629839E+03  0.7546771E-02  0.1216929E+00
          2   -1    0    0  503    0 -0.00000000000E+00  0.00000000000E+00  0.10609168216E+04  0.10609168216E+04  0.00000000000E+00 0. -1.
         21   -1    0    0  501  502  0.00000000000E+00 -0.00000000000E+00 -0.91316074393E+02  0.91316074393E+02  0.00000000000E+00 0.  1.
         23    2    1    2    0    0 -0.10963077488E+03 -0.82529807705E+02  0.69900050689E+03  0.71870091481E+03  0.95389833644E+02 0.  0.
         23    2    1    2    0    0  0.21529819173E+01  0.35609081085E+02 -0.18751411266E+02  0.89933929721E+02  0.80398098882E+02 0.  0.
        -11    1    4    4    0    0  0.29372322682E+02  0.87912344783E+01 -0.36612446216E+02  0.47754480013E+02  0.00000000000E+00 0.  1.
         11    1    4    4    0    0 -0.27219340764E+02  0.26817846606E+02  0.17861034950E+02  0.42179449709E+02  0.00000000000E+00 0. -1.
        -13    1    3    3    0    0 -0.97034584495E+02 -0.22206654575E+02  0.51855464665E+03  0.52802250677E+03  0.00000000000E+00 0. -1.
         13    1    3    3    0    0 -0.12596190380E+02 -0.60323153130E+02  0.18044586023E+03  0.19067840804E+03  0.00000000000E+00 0.  1.
         21    1    1    2  503  502  0.86893434739E+02  0.90740141932E+02  0.25489298884E+03  0.28417367597E+03  0.00000000000E+00 0.  1.
          2    1    1    2  501    0  0.20584358219E+02 -0.43819415312E+02  0.34458662713E+02  0.59424375449E+02  0.00000000000E+00 0. -1.
<scales pt_clust_5="13000.00000" pt_clust_6="13000.00000" pt_clust_7="13000.00000" pt_clust_8="13000.00000" pt_clust_9="132.15339" pt_clust_10="48.41340"></scales>
<clustering>
<clus scale="   48.413">  2 10  1 -1</clus>
<clus scale="   80.398">  5  6 -1 -1</clus>
<clus scale="   82.220">  2  5  1 -1</clus>
<clus scale="   95.390">  7  8 -1 -1</clus>
<clus scale="  132.153">  2  9  1 -1</clus>
<clus scale="   48.413">  2  5  1 -1</clus>
</clustering>
</event>
<event>
10    2  0.3984345E-006  0.9259590E+02  0.7546771E-02  0.1296956E+00
         21   -1    0    0  501  502  0.00000000000E+00  0.00000000000E+00  0.12705352608E+03  0.12705352608E+03  0.00000000000E+00 0. -1.
          2   -1    0    0  503    0 -0.00000000000E+00 -0.00000000000E+00 -0.32358998559E+03  0.32358998559E+03  0.00000000000E+00 0. -1.
         23    2    1    2    0    0  0.22827971618E+02  0.35885424864E+02 -0.12343469151E+03  0.15903440563E+03  0.90812659367E+02 0.  0.
         23    2    1    2    0    0  0.32388883963E-01  0.13442380907E+02 -0.10663663797E+03  0.14101406845E+03  0.91284699109E+02 0.  0.
        -11    1    4    4    0    0 -0.23694090494E+02 -0.29137477321E+02 -0.22506151291E+02  0.43782751797E+02  0.00000000000E+00 0.  1.
         11    1    4    4    0    0  0.23726479378E+02  0.42579858228E+02 -0.84130486675E+02  0.97231316656E+02  0.00000000000E+00 0. -1.
        -11    1    3    3    0    0 -0.34916145728E+02  0.67513617235E+01 -0.41701180439E+02  0.54806081484E+02  0.00000000000E+00 0.  1.
         11    1    3    3    0    0  0.57744117346E+02  0.29134063141E+02 -0.81733511070E+02  0.10422832415E+03  0.00000000000E+00 0. -1.
         21    1    1    2  503  502 -0.96463510980E+01 -0.21599041418E+02 -0.53393745203E+02  0.58399167002E+02  0.00000000000E+00 0. -1.
          2    1    1    2  501    0 -0.13214009404E+02 -0.27728764354E+02  0.86928615169E+02  0.92195870581E+02  0.00000000000E+00 0. -1.
<scales pt_clust_5="13000.00000" pt_clust_6="13000.00000" pt_clust_7="13000.00000" pt_clust_8="13000.00000" pt_clust_9="23.65525" pt_clust_10="30.94901"></scales>
<clustering>
<clus scale="   23.655">  2  9  1 -1</clus>
<clus scale="   30.949">  1 10  2 -1</clus>
<clus scale="   90.813">  7  8 -1 -1</clus>
<clus scale="   91.285">  5  6 -1 -1</clus>
<clus scale="   92.131">  2  7  1 -1</clus>
<clus scale="   30.949">  1  5  2 -1</clus>
</clustering>
</event>
<event>
10    2  0.3984345E-006  0.1068479E+03  0.7546771E-02  0.1266562E+00
          2   -1    0    0  503    0 -0.00000000000E+00  0.00000000000E+00  0.38371151052E+03  0.38371151052E+03  0.00000000000E+00 0. -1.
         21   -1    0    0  501  502  0.00000000000E+00 -0.00000000000E+00 -0.25515704453E+03  0.25515704453E+03  0.00000000000E+00 0.  1.
         23    2    1    2    0    0  0.79951892696E+02 -0.24458924992E+02  0.27865575613E+03  0.30498456187E+03  0.91520535396E+02 0.  0.
         23    2    1    2    0    0 -0.10253755291E+02  0.67789495041E+02 -0.70758840426E+02  0.13440647617E+03  0.91420633349E+02 0.  0.
        -11    1    4    4    0    0  0.39268992359E+01  0.88571785764E+02 -0.59940167744E+02  0.10701964997E+03  0.00000000000E+00 0.  1.
         11    1    4    4    0    0 -0.14180654527E+02 -0.20782290723E+02 -0.10818672682E+02  0.27386826196E+02  0.00000000000E+00 0. -1.
        -13    1    3    3    0    0  0.54168990427E+02  0.29962688282E+02  0.16735328081E+03  0.17843531829E+03  0.00000000000E+00 0.  1.
         13    1    3    3    0    0  0.25782902269E+02 -0.54421613274E+02  0.11130247531E+03  0.12654924358E+03  0.00000000000E+00 0. -1.
         21    1    1    2  503  502 -0.51124017772E+02 -0.18791722916E+02  0.45453768785E+02  0.70942505877E+02  0.00000000000E+00 0. -1.
          2    1    1    2  501    0 -0.18574119634E+02 -0.24538847133E+02 -0.12479621849E+03  0.12853501114E+03  0.00000000000E+00 0. -1.
<scales pt_clust_5="13000.00000" pt_clust_6="13000.00000" pt_clust_7="13000.00000" pt_clust_8="13000.00000" pt_clust_9="57.06096" pt_clust_10="30.77585"></scales>
<clustering>
<clus scale="   30.776">  2 10  1 -1</clus>
<clus scale="   57.061">  1  9  2 -1</clus>
<clus scale="   91.421">  5  6 -1 -1</clus>
<clus scale="   91.521">  7  8 -1 -1</clus>
<clus scale="  106.762">  2  5  1 -1</clus>
<clus scale="   30.776">  2  5  1 -1</clus>
</clustering>
</event>
<event>
10    2  0.3984345E-006  0.2442044E+03  0.7546771E-02  0.1117218E+00
         21   -1    0    0  503  502  0.00000000000E+00  0.00000000000E+00  0.35278566051E+03  0.35278566051E+03  0.00000000000E+00 0.  1.
         -2   -1    0    0    0  501 -0.00000000000E+00 -0.00000000000E+00 -0.35878795764E+03  0.35878795764E+03  0.00000000000E+00 0.  1.
         23    2    1    2    0    0  0.78034272882E+02  0.19832565285E+03 -0.10997232717E+03  0.25779028338E+03  0.94548956325E+02 0.  0.
         23    2    1    2    0    0 -0.80807038843E+02 -0.23278993677E+03  0.24267121152E+02  0.26394720830E+03  0.91423757380E+02 0.  0.
        -13    1    3    3    0    0 -0.35585114252E+01  0.59134114761E+02  0.53319724646E+01  0.59480555331E+02  0.00000000000E+00 0. -1.
         13    1    3    3    0    0  0.81592784307E+02  0.13919153809E+03 -0.11530429964E+03  0.19830972805E+03  0.00000000000E+00 0.  1.
        -13    1    4    4    0    0 -0.31033308887E+02 -0.19234268580E+03  0.37638253675E+02  0.19843238944E+03  0.00000000000E+00 0.  1.
         13    1    4    4    0    0 -0.49773729956E+02 -0.40447250966E+02 -0.13371132523E+02  0.65514818853E+02  0.00000000000E+00 0. -1.
         21    1    1    2  503  501  0.22185459875E+02 -0.64276910731E+01 -0.48585230819E+02  0.53796231244E+02  0.00000000000E+00 0. -1.
         -2    1    1    2    0  502 -0.19412693914E+02  0.40891974991E+02  0.12828813970E+03  0.13603989522E+03  0.00000000000E+00 0.  1.
<scales pt_clust_5="13000.00000" pt_clust_6="13000.00000" pt_clust_7="13000.00000" pt_clust_8="13000.00000" pt_clust_9="23.09783" pt_clust_10="45.07342"></scales>
<clustering>
<clus scale="   23.098">  2  9  1 -1</clus>
<clus scale="   45.073">  1 10  2 -1</clus>
<clus scale="   91.424">  7  8 -1 -1</clus>
<clus scale="   94.549">  5  6 -1 -1</clus>
<clus scale="  243.011">  1  7  2 -1</clus>
<clus scale="   45.073">  1  5  2 -1</clus>
</clustering>
</event>
<event>
10    2  0.3984345E-006  0.9947609E+02  0.7546771E-02  0.1281786E+00
         21   -1    0    0  501  502  0.00000000000E+00  0.00000000000E+00  0.46850932208E+03  0.46850932208E+03  0.00000000000E+00 0. -1.
          2   -1    0    0  503    0 -0.00000000000E+00 -0.00000000000E+00 -0.41056673330E+03  0.41056673330E+03  0.00000000000E+00 0. -1.
         23    2    1    2    0    0 -0.42546807708E+01  0.43361537024E+01 -0.95535232547E+02  0.13228915571E+03  0.91304630350E+02 0.  0.
         23    2    1    2    0    0 -0.19696559804E+02 -0.85416108902E+02 -0.70099860851E+02  0.14419093165E+03  0.90516120951E+02 0.  0.
        -11    1    4    4    0    0  0.27544340845E+02 -0.56303018740E+02 -0.61907924081E+02  0.88098306998E+02  0.00000000000E+00 0.  1.
         11    1    4    4    0    0 -0.47240900649E+02 -0.29113090162E+02 -0.81919367702E+01  0.56092624657E+02  0.00000000000E+00 0. -1.
        -13    1    3    3    0    0  0.28498268512E+02  0.19631179028E+02 -0.52051734957E+01  0.34994690017E+02  0.00000000000E+00 0.  1.
         13    1    3    3    0    0 -0.32752949283E+02 -0.15295025326E+02 -0.90330059051E+02  0.97294465694E+02  0.00000000000E+00 0. -1.
         21    1    1    2  503  502  0.11897189000E+02  0.26929714588E+02 -0.18648659079E+03  0.18879618952E+03  0.00000000000E+00 0. -1.
          2    1    1    2  501    0  0.12054051575E+02  0.54150240612E+02  0.41006427297E+03  0.41379977850E+03  0.00000000000E+00 0. -1.
<scales pt_clust_5="13000.00000" pt_clust_6="13000.00000" pt_clust_7="13000.00000" pt_clust_8="13000.00000" pt_clust_9="29.44066" pt_clust_10="55.71758"></scales>
<clustering>
<clus scale="   29.441">  2  9  1 -1</clus>
<clus scale="   55.718">  1 10  2 -1</clus>
<clus scale="   90.516">  5  6 -1 -1</clus>
<clus scale="   91.305">  7  8 -1 -1</clus>
<clus scale="   98.753">  1  5  2 -1</clus>
<clus scale="   55.718">  1  5  2 -1</clus>
</clustering>
</event>
<event>
10    2  0.3984345E-006  0.1513802E+03  0.7546771E-02  0.1203339E+00
         21   -1    0    0  501  502  0.00000000000E+00  0.00000000000E+00  0.45678627108E+02  0.45678627108E+02  0.00000000000E+00 0.  1.
          1   -1    0    0  503    0 -0.00000000000E+00 -0.00000000000E+00 -0.85109680095E+03  0.85109680095E+03  0.00000000000E+00 0. -1.
         23    2    1    2    0    0 -0.78266171051E+02  0.65787851891E+02 -0.37411314815E+03  0.40291888869E+03  0.10922155582E+03 0.  0.
         23    2    1    2    0    0  0.99265606969E+02 -0.56802852366E+02 -0.29956632809E+03  0.33263367314E+03  0.88458752063E+02 0.  0.
        -11    1    4    4    0    0  0.73099429162E+02 -0.58058809954E+01 -0.23558034841E+03  0.24672927543E+03  0.00000000000E+00 0. -1.
         11    1    4    4    0    0  0.26166177806E+02 -0.50996971371E+02 -0.63985979685E+02  0.85904397712E+02  0.00000000000E+00 0.  1.
        -11    1    3    3    0    0 -0.48278988890E+02 -0.17621616047E+02 -0.21216944923E+03  0.21830542208E+03  0.00000000000E+00 0.  1.
         11    1    3    3    0    0 -0.29987182161E+02  0.83409467939E+02 -0.16194369892E+03  0.18461346661E+03  0.00000000000E+00 0. -1.
         21    1    1    2  503  502  0.87846956024E+01 -0.19358524196E+02 -0.12766392207E+03  0.12942179235E+03  0.00000000000E+00 0.  1.
          1    1    1    2  501    0 -0.29784131520E+02  0.10373524670E+02 -0.40747755308E+01  0.31801073883E+02  0.00000000000E+00 0. -1.
<scales pt_clust_5="13000.00000" pt_clust_6="13000.00000" pt_clust_7="13000.00000" pt_clust_8="13000.00000" pt_clust_9="21.25849" pt_clust_10="31.17725"></scales>
<clustering>
<clus scale="   21.258">  2  9  1 -1</clus>
<clus scale="   31.177">  1 10  2 -1</clus>
<clus scale="   88.459">  5  6 -1 -1</clus>
<clus scale="  109.222">  7  8 -1 -1</clus>
<clus scale="  137.155">  1  5  2 -1</clus>
<clus scale="   31.177">  1  5  2 -1</clus>
</clustering>
</event>
<event>
10    2  0.3984345E-006  0.1147184E+03  0.7546771E-02  0.1253557E+00
          1   -1    0    0  503    0 -0.00000000000E+00  0.00000000000E+00  0.78513449357E+03  0.78513449357E+03  0.00000000000E+00 0. -1.
         21   -1    0    0  501  502  0.00000000000E+00 -0.00000000000E+00 -0.29772110331E+02  0.29772110331E+02  0.00000000000E+00 0.  1.
         23    2    1    2    0    0 -0.53649369117E+02  0.16587868043E+02  0.35189007379E+03  0.36876839220E+03  0.94921498509E+02 0.  0.
         23    2    1    2    0    0  0.60066932636E+02 -0.20382762913E+02  0.18868227123E+03  0.21881605827E+03  0.90862392976E+02 0.  0.
        -13    1    4    4    0    0  0.13716660634E+02  0.33552895761E+02  0.91288872284E+02  0.98222206225E+02  0.00000000000E+00 0. -1.
         13    1    4    4    0    0  0.46350272002E+02 -0.53935658674E+02  0.97393398947E+02  0.12059385204E+03  0.00000000000E+00 0.  1.
        -13    1    3    3    0    0 -0.62295588512E+02 -0.23053707981E+02  0.17249883060E+03  0.18484604502E+03  0.00000000000E+00 0.  1.
         13    1    3    3    0    0  0.86462193953E+01  0.39641576024E+02  0.17939124319E+03  0.18392234718E+03  0.00000000000E+00 0. -1.
         21    1    1    2  503  502 -0.30642861348E+02 -0.10932998224E+02  0.17761409844E+03  0.18056933119E+03  0.00000000000E+00 0. -1.
          1    1    1    2  501    0  0.24225297828E+02  0.14727893095E+02  0.37175939781E+02  0.46752822251E+02  0.00000000000E+00 0. -1.
<scales pt_clust_5="13000.00000" pt_clust_6="13000.00000" pt_clust_7="13000.00000" pt_clust_8="13000.00000" pt_clust_9="30.89454" pt_clust_10="28.35094"></scales>
<clustering>
<clus scale="   28.351">  2 10  1 -1</clus>
<clus scale="   30.895">  1  9  2 -1</clus>
<clus scale="   90.862">  5  6 -1 -1</clus>
<clus scale="   94.921">  7  8 -1 -1</clus>
<clus scale="  111.383">  2  5  1 -1</clus>
<clus scale="   28.351">  2  5  1 -1</clus>
</clustering>
</event>
<event>
10    2  0.3984345E-006  0.1351999E+03  0.7546771E-02  0.1226556E+00
         21   -1    0    0  501  502  0.00000000000E+00  0.00000000000E+00  0.38512224269E+03  0.38512224269E+03  0.00000000000E+00 0.  1.
          2   -1    0    0  503    0 -0.00000000000E+00 -0.00000000000E+00 -0.29476777766E+03  0.29476777766E+03  0.00000000000E+00 0. -1.
         23    2    1    2    0    0 -0.87203835012E+02 -0.24210325185E+02 -0.12932231251E+03  0.18294330839E+03  0.92484295338E+02 0.  0.
         23    2    1    2    0    0  0.94643590705E+02  0.21456016242E+02  0.31621130780E+03  0.34982130645E+03  0.11387530624E+03 0.  0.
        -13    1    4    4    0    0  0.19776336304E+02 -0.33084070059E+02  0.29554576414E+02  0.48570898245E+02  0.00000000000E+00 0. -1.
         13    1    4    4    0    0  0.74867254401E+02  0.54540086301E+02  0.28665673139E+03  0.30125040821E+03  0.00000000000E+00 0.  1.
        -13    1    3    3    0    0 -0.51891408820E+01 -0.25489498471E+02  0.40907501824E+01  0.26332032820E+02  0.00000000000E+00 0.  1.
         13    1    3    3    0    0 -0.82014694130E+02  0.12791732858E+01 -0.13341306269E+03  0.15661127557E+03  0.00000000000E+00 0. -1.
         21    1    1    2  503  502  0.32648024166E+02 -0.15599327307E+02 -0.96473581173E+02  0.10303584017E+03  0.00000000000E+00 0.  1.
          2    1    1    2  501    0 -0.40087779859E+02  0.18353636250E+02 -0.60949089359E-01  0.44089565346E+02  0.00000000000E+00 0. -1.
<scales pt_clust_5="13000.00000" pt_clust_6="13000.00000" pt_clust_7="13000.00000" pt_clust_8="13000.00000" pt_clust_9="36.18332" pt_clust_10="39.99424"></scales>
<clustering>
<clus scale="   36.183">  2  9  1 -1</clus>
<clus scale="   39.994">  1 10  2 -1</clus>
<clus scale="   92.484">  7  8 -1 -1</clus>
<clus scale="  113.875">  5  6 -1 -1</clus>
<clus scale="  117.749">  2  7  1 -1</clus>
<clus scale="   39.994">  1  5  2 -1</clus>
</clustering>
</event>
<event>
10    2  0.3984345E-006  0.2415695E+03  0.7546771E-02  0.1118992E+00
          1   -1    0    0  503    0 -0.00000000000E+00  0.00000000000E+00  0.88632669417E+03  0.88632669417E+03  0.00000000000E+00 0. -1.
         21   -1    0    0  501  502  0.00000000000E+00 -0.00000000000E+00 -0.24056130687E+03  0.24056130687E+03  0.00000000000E+00 0. -1.
         23    2    1    2    0    0 -0.92487896966E+02  0.20243532498E+03  0.49111578673E+03  0.54724427040E+03  0.93528090069E+02 0.  0.
         23    2    1    2    0    0  0.14037287102E+03 -0.18196544579E+03 -0.10795192043E+03  0.26928975722E+03  0.89707245195E+02 0.  0.
        -11    1    3    3    0    0 -0.11053141512E+03  0.15831012434E+03  0.40925877812E+03  0.45251744349E+03  0.00000000000E+00 0. -1.
         11    1    3    3    0    0  0.18043518150E+02  0.44125200636E+02  0.81857008610E+02  0.94726826913E+02  0.00000000000E+00 0.  1.
        -11    1    4    4    0    0  0.39000710644E+01 -0.23447461759E+02 -0.44930321454E+02  0.50830382678E+02  0.00000000000E+00 0.  1.
         11    1    4    4    0    0  0.13647279995E+03 -0.15851798403E+03 -0.63021598978E+02  0.21845937454E+03  0.00000000000E+00 0. -1.
         21    1    1    2  503  502  0.36745864619E+02  0.15515055711E+02  0.18728344008E+03  0.19148384383E+03  0.00000000000E+00 0. -1.
          1    1    1    2  501    0 -0.84630838673E+02 -0.35984934897E+02  0.75318080917E+02  0.11887012958E+03  0.00000000000E+00 0. -1.
<scales pt_clust_5="13000.00000" pt_clust_6="13000.00000" pt_clust_7="13000.00000" pt_clust_8="13000.00000" pt_clust_9="39.88703" pt_clust_10="86.40678"></scales>
<clustering>
<clus scale="   39.887">  1  9  2 -1</clus>
<clus scale="   86.407">  2 10  1 -1</clus>
<clus scale="   89.707">  7  8 -1 -1</clus>
<clus scale="   93.528">  5  6 -1 -1</clus>
<clus scale="  240.116">  2  7  1 -1</clus>
<clus scale="   86.407">  2  5  1 -1</clus>
</clustering>
</event>
<event>
10    2  0.3984345E-006  0.1359015E+03  0.7546771E-02  0.1228632E+00
          2   -1    0    0  503    0 -0.00000000000E+00  0.00000000000E+00  0.39739381351E+03  0.39739381351E+03  0.00000000000E+00 0. -1.
         21   -1    0    0  501  502  0.00000000000E+00 -0.00000000000E+00 -0.21514705945E+03  0.21514705945E+03  0.00000000000E+00 0. -1.
         23    2    1    2    0    0  0.50543442271E+02 -0.72881290869E+02  0.18267748517E+03  0.22337947324E+03  0.93064511818E+02 0.  0.
         23    2    1    2    0    0  0.45860682171E+02 -0.12714252858E+02 -0.33241897305E+02  0.10764326800E+03  0.90648745242E+02 0.  0.
        -11    1    3    3    0    0 -0.10995849561E+02 -0.41789004157E+02  0.12886662053E+03  0.13591848830E+03  0.00000000000E+00 0.  1.
         11    1    3    3    0    0  0.61539291832E+02 -0.31092286712E+02  0.53810864644E+02  0.87460984936E+02  0.00000000000E+00 0. -1.
        -13    1    4    4    0    0  0.21398212517E+02  0.22987292889E+02 -0.51781665916E+02  0.60561044066E+02  0.00000000000E+00 0.  1.
         13    1    4    4    0    0  0.24462469654E+02 -0.35701545747E+02  0.18539768611E+02  0.47082223933E+02  0.00000000000E+00 0. -1.
         21    1    1    2  503  502 -0.12283495822E+03  0.34354186450E+02  0.12122474590E+03  0.17596612204E+03  0.00000000000E+00 0.  1.
          2    1    1    2  501    0  0.26430833782E+02  0.51241357277E+02 -0.88413579714E+02  0.10555200968E+03  0.00000000000E+00 0. -1.
<scales pt_clust_5="13000.00000" pt_clust_6="13000.00000" pt_clust_7="13000.00000" pt_clust_8="13000.00000" pt_clust_9="99.03637" pt_clust_10="57.65645"></scales>
<clustering>
<clus scale="   57.656">  2 10  1 -1</clus>
<clus scale="   90.649">  7  8 -1 -1</clus>
<clus scale="   93.065">  5  6 -1 -1</clus>
<clus scale="  111.049">  2  7  1 -1</clus>
<clus scale="   99.036">  2  9  1 -1</clus>
<clus scale="   57.656">  2  5  1 -1</clus>
</clustering>
</event>
<event>
10    2  0.3984345E-006  0.1869191E+03  0.7546771E-02  0.1175053E+00
          2   -1    0    0  503    0 -0.00000000000E+00  0.00000000000E+00  0.62699481089E+03  0.62699481089E+03  0.00000000000E+00 0. -1.
         21   -1    0    0  501  502  0.00000000000E+00 -0.00000000000E+00 -0.10082003035E+04  0.10082003035E+04  0.00000000000E+00 0. -1.
         23    2    1    2    0    0  0.97455557251E+02  0.55509808997E+02  0.32134295743E+02  0.14477076685E+03  0.85714861249E+02 0.  0.
         23    2    1    2    0    0 -0.13015926410E+02 -0.10897776063E+03  0.44720788498E+03  0.46920479214E+03  0.90070405367E+02 0.  0.
        -13    1    3    3    0    0  0.66400783202E+02 -0.11260922235E+02  0.11790807368E+02  0.68373207603E+02  0.00000000000E+00 0. -1.
         13    1    3    3    0    0  0.31054774048E+02  0.66770731232E+02  0.20343488375E+02  0.76397559252E+02  0.00000000000E+00 0.  1.
        -13    1    4    4    0    0 -0.33569815569E+02 -0.14564826291E+02  0.20842561261E+03  0.21161356922E+03  0.00000000000E+00 0. -1.
         13    1    4    4    0    0  0.20553889160E+02 -0.94412934337E+02  0.23878227237E+03  0.25759122292E+03  0.00000000000E+00 0.  1.
         21    1    1    2  503  502  0.31912044875E-02 -0.88323796533E+02  0.46130107427E+02  0.99644768329E+02  0.00000000000E+00 0. -1.
          2    1    1    2  501    0 -0.84442822046E+02  0.14179174816E+03 -0.90667778074E+03  0.92157478705E+03  0.00000000000E+00 0. -1.
<scales pt_clust_5="13000.00000" pt_clust_6="13000.00000" pt_clust_7="13000.00000" pt_clust_8="13000.00000" pt_clust_9="88.32380" pt_clust_10="163.78665"></scales>
<clustering>
<clus scale="   85.715">  5  6 -1 -1</clus>
<clus scale="   88.324">  1  9  2 -1</clus>
<clus scale="   90.070">  7  8 -1 -1</clus>
<clus scale="  136.233">  1  5  2 -1</clus>
<clus scale="  163.787">  2 10  1 -1</clus>
<clus scale="  163.787">  2  5  1 -1</clus>
</clustering>
</event>
<event>
10    2  0.3984345E-006  0.2327237E+03  0.7546771E-02  0.1124929E+00
         -3   -1    0    0    0  501 -0.00000000000E+00  0.00000000000E+00  0.94797283469E+03  0.94797283469E+03  0.00000000000E+00 0.  1.
         21   -1    0    0  503  502  0.00000000000E+00 -0.00000000000E+00 -0.90698396241E+02  0.90698396241E+02  0.00000000000E+00 0.  1.
         23    2    1    2    0    0  0.23361974996E+03 -0.66966904742E+02  0.41718519455E+03  0.49135844292E+03  0.91251734086E+02 0.  0.
         23    2    1    2    0    0 -0.18409834879E+03  0.44604688664E+02  0.17334381897E+03  0.27155961310E+03  0.88401151655E+02 0.  0.
        -11    1    4    4    0    0 -0.80413089662E+02  0.40304836158E+02  0.13226085644E+03  0.15994898860E+03  0.00000000000E+00 0.  1.
         11    1    4    4    0    0 -0.10368525913E+03  0.42998525061E+01  0.41082962533E+02  0.11161062451E+03  0.00000000000E+00 0. -1.
        -13    1    3    3    0    0  0.15046284292E+03 -0.76760678336E+02  0.32855174385E+03  0.36942863617E+03  0.00000000000E+00 0. -1.
         13    1    3    3    0    0  0.83156907043E+02  0.97937735945E+01  0.88633450701E+02  0.12192980675E+03  0.00000000000E+00 0.  1.
         21    1    1    2  503  501 -0.26560431561E+02  0.21076671052E+02  0.22941953225E+03  0.23191163051E+03  0.00000000000E+00 0.  1.
         -3    1    1    2    0  502 -0.22960969608E+02  0.12855450255E+01  0.37325892668E+02  0.43841544393E+02  0.00000000000E+00 0.  1.
<scales pt_clust_5="13000.00000" pt_clust_6="13000.00000" pt_clust_7="13000.00000" pt_clust_8="13000.00000" pt_clust_9="34.17519" pt_clust_10="22.99694"></scales>
<clustering>
<clus scale="   22.997">  2 10  1 -1</clus>
<clus scale="   34.175">  1  9  2 -1</clus>
<clus scale="   88.401">  5  6 -1 -1</clus>
<clus scale="   91.252">  7  8 -1 -1</clus>
<clus scale="  231.621">  2  5  1 -1</clus>
<clus scale="   22.997">  2  5  1 -1</clus>
</clustering>
</event>
<event>
10    2  0.3984345E-006  0.1497204E+03  0.7546771E-02  0.1222475E+00
         -1   -1    0    0    0  501 -0.00000000000E+00  0.00000000000E+00  0.57575549819E+03  0.57575549819E+03  0.00000000000E+00 0.  1.
         21   -1    0    0  503  502  0.00000000000E+00 -0.00000000000E+00 -0.17236713126E+03  0.17236713126E+03  0.00000000000E+00 0.  1.
         23    2    1    2    0    0 -0.98534193978E+01 -0.18910902623E+02 -0.51158943110E+02  0.10697834499E+03  0.91500911059E+02 0.  0.
         23    2    1    2    0    0 -0.29930883798E+02  0.23305812598E+02  0.34581358445E+03  0.36504048777E+03  0.11058256562E+03 0.  0.
        -11    1    3    3    0    0 -0.26108353597E+02 -0.46979877391E+02 -0.51645626887E+02  0.74538753570E+02  0.00000000000E+00 0.  1.
         11    1    3    3    0    0  0.16254934199E+02  0.28068974768E+02  0.48668377677E+00  0.32439591419E+02  0.00000000000E+00 0. -1.
        -13    1    4    4    0    0 -0.72190696257E+01  0.62773966153E+02  0.26350552079E+03  0.27097572821E+03  0.00000000000E+00 0.  1.
         13    1    4    4    0    0 -0.22711814173E+02 -0.39468153555E+02  0.82308063656E+02  0.94064759559E+02  0.00000000000E+00 0. -1.
         21    1    1    2  503  501 -0.67602185841E+02  0.97281733831E+01  0.14630469872E+03  0.16146131969E+03  0.00000000000E+00 0.  1.
         -1    1    1    2    0  502  0.10738648904E+03 -0.14123083359E+02 -0.37570973125E+02  0.11464247700E+03  0.00000000000E+00 0.  1.
<scales pt_clust_5="13000.00000" pt_clust_6="13000.00000" pt_clust_7="13000.00000" pt_clust_8="13000.00000" pt_clust_9="68.29856" pt_clust_10="100.93413"></scales>
<clustering>
<clus scale="   68.299">  1  9  2 -1</clus>
<clus scale="   91.501">  5  6 -1 -1</clus>
<clus scale="   94.400">  1  5  2 -1</clus>
<clus scale="  100.934">  2 10  1 -1</clus>
<clus scale="  110.583">  7  8 -1 -1</clus>
<clus scale="  100.934">  2  5  1 -1</clus>
</clustering>
</event>
<event>
10    2  0.3984345E-006  0.1255803E+03  0.7546771E-02  0.1234367E+00
         21   -1    0    0  503  502  0.00000000000E+00  0.00000000000E+00  0.85772961907E+02  0.85772961907E+02  0.00000000000E+00 0.  1.
         -1   -1    0    0    0  501 -0.00000000000E+00 -0.00000000000E+00 -0.66215638601E+03  0.66215638601E+03  0.00000000000E+00 0.  1.
         23    2    1    2    0    0  0.67927068259E+02  0.51183194041E+02 -0.38128290594E+03  0.40082025876E+03  0.89701836772E+02 0.  0.
         23    2    1    2    0    0 -0.98015897888E+02 -0.70930417203E+02 -0.25175705871E+02  0.15312856076E+03  0.90422893282E+02 0.  0.
        -11    1    3    3    0    0  0.28118898293E+02  0.72793242346E+02 -0.22796693112E+03  0.24095321176E+03  0.00000000000E+00 0.  1.
         11    1    3    3    0    0  0.39808169966E+02 -0.21610048305E+02 -0.15331597482E+03  0.15986704700E+03  0.00000000000E+00 0. -1.
        -13    1    4    4    0    0 -0.11019952836E+03 -0.53621247213E+02 -0.38086656578E+02  0.12833459243E+03  0.00000000000E+00 0.  1.
         13    1    4    4    0    0  0.12183630475E+02 -0.17309169990E+02  0.12910950707E+02  0.24793968328E+02  0.00000000000E+00 0. -1.
         21    1    1    2  503  501  0.92877597490E+01 -0.24348047899E+02 -0.12498631707E+03  0.12767407478E+03  0.00000000000E+00 0. -1.
         -1    1    1    2    0  502  0.20801069880E+02  0.44095271061E+02 -0.44938495233E+02  0.66306453622E+02  0.00000000000E+00 0.  1.
<scales pt_clust_5="13000.00000" pt_clust_6="13000.00000" pt_clust_7="13000.00000" pt_clust_8="13000.00000" pt_clust_9="26.05935" pt_clust_10="46.92125"></scales>
<clustering>
<clus scale="   26.059">  2  9  1 -1</clus>
<clus scale="   46.921">  1 10  2 -1</clus>
<clus scale="   89.702">  5  6 -1 -1</clus>
<clus scale="   90.423">  7  8 -1 -1</clus>
<clus scale="  125.062">  2  5  1 -1</clus>
<clus scale="   46.921">  1  5  2 -1</clus>
</clustering>
</event>
<event>
10    2  0.3984345E-006  0.3327526E+03  0.7546771E-02  0.1070017E+00
          2   -1    0    0  503    0 -0.00000000000E+00  0.00000000000E+00  0.94107836211E+03  0.94107836211E+03  0.00000000000E+00 0. -1.
         21   -1    0    0  501  502  0.00000000000E+00 -0.00000000000E+00 -0.71752051749E+03  0.71752051749E+03  0.00000000000E+00 0. -1.
         23    2    1    2    0    0 -0.20202202226E+03 -0.20095751815E+03  0.61467360553E+03  0.68356952200E+03  0.90812050377E+02 0.  0.
         23    2    1    2    0    0  0.41668673124E+03  0.27365021330E+03 -0.43747485768E+03  0.66984982471E+03  0.93820388731E+02 0.  0.
        -11    1    4    4    0    0  0.32445205347E+02  0.46049454890E+02 -0.79817887405E+02  0.97694108294E+02  0.00000000000E+00 0.  1.
         11    1    4    4    0    0  0.38424152589E+03  0.22760075841E+03 -0.35765697027E+03  0.57215571642E+03  0.00000000000E+00 0. -1.
        -13    1    3    3    0    0 -0.19373821303E+03 -0.14681015796E+03  0.47615364523E+03  0.53461201963E+03  0.00000000000E+00 0.  1.
         13    1    3    3    0    0 -0.82838092342E+01 -0.54147360190E+02  0.13851996030E+03  0.14895750237E+03  0.00000000000E+00 0. -1.
         21    1    1    2  503  502  0.51711086642E+01 -0.43609356161E+02  0.69513037403E+02  0.82222738209E+02  0.00000000000E+00 0. -1.
          2    1    1    2  501    0 -0.21983581764E+03 -0.29083338991E+02 -0.23153940642E+02  0.22295679467E+03  0.00000000000E+00 0. -1.
<scales pt_clust_5="13000.00000" pt_clust_6="13000.00000" pt_clust_7="13000.00000" pt_clust_8="13000.00000" pt_clust_9="43.91488" pt_clust_10="221.87769"></scales>
<clustering>
<clus scale="   43.915">  1  9  2 -1</clus>
<clus scale="   90.812">  7  8 -1 -1</clus>
<clus scale="   93.820">  5  6 -1 -1</clus>
<clus scale="  221.878">  2 10  1 -1</clus>
<clus scale="  331.917">  1  7  2 -1</clus>
<clus scale="  221.878">  2  5  1 -1</clus>
</clustering>
</event>
<event>
10    2  0.3984345E-006  0.1662067E+03  0.7546771E-02  0.1182114E+00
          2   -1    0    0  503    0 -0.00000000000E+00  0.00000000000E+00  0.38387676194E+03  0.38387676194E+03  0.00000000000E+00 0. -1.
         21   -1    0    0  501  502  0.00000000000E+00 -0.00000000000E+00 -0.25914958950E+03  0.25914958950E+03  0.00000000000E+00 0.  1.
         23    2    1    2    0    0 -0.10594090421E+02  0.16014012429E+03  0.16726188308E+03  0.24883507542E+03  0.90472443676E+02 0.  0.
         23    2    1    2    0    0  0.40527369445E+02 -0.16741848836E+03 -0.12843244946E+03  0.23246917767E+03  0.88744614353E+02 0.  0.
        -11    1    4    4    0    0 -0.38476407792E+01 -0.57703876136E+02 -0.12430170383E-01  0.57832013757E+02  0.00000000000E+00 0. -1.
         11    1    4    4    0    0  0.44375010224E+02 -0.10971461222E+03 -0.12842001928E+03  0.17463716392E+03  0.00000000000E+00 0.  1.
        -13    1    3    3    0    0  0.21438653931E+02  0.77306877760E+02  0.12948522824E+03  0.15232331918E+03  0.00000000000E+00 0. -1.
         13    1    3    3    0    0 -0.32032744352E+02  0.82833246532E+02  0.37776654839E+02  0.96511756240E+02  0.00000000000E+00 0.  1.
         21    1    1    2  503  502 -0.33186308495E+02 -0.45424985751E+02  0.92748383134E+02  0.10847590966E+03  0.00000000000E+00 0.  1.
          2    1    1    2  501    0  0.32530294706E+01  0.52703349816E+02 -0.68506443286E+01  0.53246188693E+02  0.00000000000E+00 0. -1.
<scales pt_clust_5="13000.00000" pt_clust_6="13000.00000" pt_clust_7="13000.00000" pt_clust_8="13000.00000" pt_clust_9="54.73834" pt_clust_10="52.80365"></scales>
<clustering>
<clus scale="   52.804">  2 10  1 -1</clus>
<clus scale="   54.738">  1  9  2 -1</clus>
<clus scale="   88.745">  5  6 -1 -1</clus>
<clus scale="   90.472">  7  8 -1 -1</clus>
<clus scale="  165.273">  2  5  1 -1</clus>
<clus scale="   52.804">  2  5  1 -1</clus>
</clustering>
</event>
<event>
10    2  0.3984345E-006  0.2575279E+03  0.7546771E-02  0.1109762E+00
         21   -1    0    0  503  502  0.00000000000E+00  0.00000000000E+00  0.11562787228E+04  0.11562787228E+04  0.00000000000E+00 0. -1.
         -4   -1    0    0    0  501 -0.00000000000E+00 -0.00000000000E+00 -0.10467769636E+03  0.10467769636E+03  0.00000000000E+00 0.  1.
         23    2    1    2    0    0 -0.16586773336E+03  0.16692272277E+03  0.15847376400E+03  0.30444466355E+03  0.11044147293E+03 0.  0.
         23    2    1    2    0    0  0.17104233410E+03 -0.14587617364E+03  0.70898862262E+03  0.74946743639E+03  0.92202131815E+02 0.  0.
        -11    1    4    4    0    0  0.75445160533E+02 -0.11691104203E+03  0.47719911118E+03  0.49707057417E+03  0.00000000000E+00 0. -1.
         11    1    4    4    0    0  0.95597173566E+02 -0.28965131611E+02  0.23178951144E+03  0.25239686222E+03  0.00000000000E+00 0.  1.
        -13    1    3    3    0    0 -0.56870361007E+02  0.13273291676E+03  0.73224778342E+02  0.16190779264E+03  0.00000000000E+00 0. -1.
         13    1    3    3    0    0 -0.10899737235E+03  0.34189806009E+02  0.85248985660E+02  0.14253687092E+03  0.00000000000E+00 0.  1.
         21    1    1    2  503  501  0.38842545375E+02 -0.25684844945E+02  0.65075354536E+02  0.80020349656E+02  0.00000000000E+00 0. -1.
         -4    1    1    2    0  502 -0.44017146113E+02  0.46382958157E+01  0.11906328525E+03  0.12702396953E+03  0.00000000000E+00 0.  1.
<scales pt_clust_5="13000.00000" pt_clust_6="13000.00000" pt_clust_7="13000.00000" pt_clust_8="13000.00000" pt_clust_9="43.83249" pt_clust_10="44.26085"></scales>
<clustering>
<clus scale="   44.261">  1 10  2 -1</clus>
<clus scale="   43.832">  1  9  2 -1</clus>
<clus scale="   92.202">  5  6 -1 -1</clus>
<clus scale="  110.441">  7  8 -1 -1</clus>
<clus scale="  250.249">  1  5  2 -1</clus>
<clus scale="   44.261">  1  5  2 -1</clus>
</clustering>
</event>
<event>
10    2  0.3984345E-006  0.1011212E+03  0.7546771E-02  0.1278427E+00
         21   -1    0    0  501  502  0.00000000000E+00  0.00000000000E+00  0.21362348573E+03  0.21362348573E+03  0.00000000000E+00 0.  1.
          1   -1    0    0  503    0 -0.00000000000E+00 -0.00000000000E+00 -0.10464548421E+03  0.10464548421E+03  0.00000000000E+00 0. -1.
         23    2    1    2    0    0 -0.13147098644E+02  0.64579292623E+01  0.34974602803E+01  0.92552472689E+02  0.91319093948E+02 0.  0.
         23    2    1    2    0    0  0.62439165237E+02 -0.21519610994E+02  0.10166948779E+03  0.15238055507E+03  0.92311460845E+02 0.  0.
        -13    1    4    4    0    0  0.23115503292E+02  0.34611686746E+02  0.56980691672E+02  0.70562699603E+02  0.00000000000E+00 0.  1.
         13    1    4    4    0    0  0.39323661944E+02 -0.56131297740E+02  0.44688796117E+02  0.81817855467E+02  0.00000000000E+00 0. -1.
        -13    1    3    3    0    0 -0.46953512658E+02  0.25592157121E+02  0.47569829770E+01  0.53686308720E+02  0.00000000000E+00 0.  1.
         13    1    3    3    0    0  0.33806414014E+02 -0.19134227858E+02 -0.12595226966E+01  0.38866163969E+02  0.00000000000E+00 0. -1.
         21    1    1    2  503  502 -0.37708137420E+02 -0.92842775525E+01 -0.13708067045E+02  0.41182672806E+02  0.00000000000E+00 0. -1.
          1    1    1    2  501    0 -0.11583929173E+02  0.24345959284E+02  0.17519120490E+02  0.32153269372E+02  0.00000000000E+00 0. -1.
<scales pt_clust_5="13000.00000" pt_clust_6="13000.00000" pt_clust_7="13000.00000" pt_clust_8="13000.00000" pt_clust_9="39.27626" pt_clust_10="26.96133"></scales>
<clustering>
<clus scale="   26.961">  1 10  2 -1</clus>
<clus scale="   39.276">  2  9  1 -1</clus>
<clus scale="   91.319">  7  8 -1 -1</clus>
<clus scale="   92.311">  5  6 -1 -1</clus>
<clus scale="  100.216">  2  7  1 -1</clus>
<clus scale="   26.961">  1  5  2 -1</clus>
</clustering>
</event>
<event>
10    2  0.3984345E-006  0.1407487E+03  0.7546771E-02  0.1213959E+00
         21   -1    0    0  503  502  0.00000000000E+00  0.00000000000E+00  0.30554095194E+03  0.30554095194E+03  0.00000000000E+00 0. -1.
         -3   -1    0    0    0  501 -0.00000000000E+00 -0.00000000000E+00 -0.36699947607E+03  0.36699947607E+03  0.00000000000E+00 0.  1.
         23    2    1    2    0    0  0.25987456425E+02 -0.14647120000E+03 -0.41752120450E+02  0.17994598493E+03  0.92239674799E+02 0.  0.
         23    2    1    2    0    0 -0.53939197318E+02  0.67400727124E+02  0.42495584327E+02  0.12820875771E+03  0.84730843513E+02 0.  0.
        -11    1    4    4    0    0 -0.22423414800E+01  0.53084841375E+02 -0.89539261214E+01  0.53881362938E+02  0.00000000000E+00 0.  1.
         11    1    4    4    0    0 -0.51696855838E+02  0.14315885749E+02  0.51449510448E+02  0.74327394773E+02  0.00000000000E+00 0. -1.
        -13    1    3    3    0    0  0.60664282385E+02 -0.10097196919E+03 -0.26443995392E+02  0.12072604778E+03  0.00000000000E+00 0.  1.
         13    1    3    3    0    0 -0.34676825959E+02 -0.45499230810E+02 -0.15308125058E+02  0.59219937147E+02  0.00000000000E+00 0. -1.
         21    1    1    2  503  501  0.94930502279E+01  0.54465993910E+02 -0.20808024359E+03  0.21529990773E+03  0.00000000000E+00 0.  1.
         -3    1    1    2    0  502  0.18458690665E+02  0.24604478970E+02  0.14587825558E+03  0.14908577765E+03  0.00000000000E+00 0.  1.
<scales pt_clust_5="13000.00000" pt_clust_6="13000.00000" pt_clust_7="13000.00000" pt_clust_8="13000.00000" pt_clust_9="55.91397" pt_clust_10="30.75880"></scales>
<clustering>
<clus scale="   30.759">  1 10  2 -1</clus>
<clus scale="   55.914">  2  9  1 -1</clus>
<clus scale="   84.731">  5  6 -1 -1</clus>
<clus scale="   92.240">  7  8 -1 -1</clus>
<clus scale="  135.946">  1  5  2 -1</clus>
<clus scale="   30.759">  1  5  2 -1</clus>
</clustering>
</event>
<event>
10    2  0.3984345E-006  0.1249361E+03  0.7546771E-02  0.1235183E+00
          3   -1    0    0  503    0 -0.00000000000E+00  0.00000000000E+00  0.64985621413E+02  0.64985621413E+02  0.00000000000E+00 0. -1.
         21   -1    0    0  501  502  0.00000000000E+00 -0.00000000000E+00 -0.44052763894E+03  0.44052763894E+03  0.00000000000E+00 0. -1.
         23    2    1    2    0    0 -0.41680380203E+02 -0.70139732605E+02 -0.65924849353E+02  0.13521667205E+03  0.85326587028E+02 0.  0.
         23    2    1    2    0    0  0.77948417139E+02  0.67255069004E+02 -0.22476261843E+03  0.26154712068E+03  0.85378344164E+02 0.  0.
        -11    1    4    4    0    0  0.39980949895E+02  0.50946651923E+02 -0.49591234362E+02  0.81567936239E+02  0.00000000000E+00 0.  1.
         11    1    4    4    0    0  0.37967467244E+02  0.16308417081E+02 -0.17517138407E+03  0.17997918444E+03  0.00000000000E+00 0. -1.
        -13    1    3    3    0    0 -0.20008885482E+02 -0.87375377395E+02 -0.56542833196E+02  0.10598067776E+03  0.00000000000E+00 0. -1.
         13    1    3    3    0    0 -0.21671494721E+02  0.17235644789E+02 -0.93820161576E+01  0.29235994287E+02  0.00000000000E+00 0.  1.
         21    1    1    2  503  502  0.53322109070E+01 -0.19678575140E+02 -0.20996427695E+02  0.29266512752E+02  0.00000000000E+00 0.  1.
          3    1    1    2  501    0 -0.41600247843E+02  0.22563238742E+02 -0.63858122045E+02  0.79482954866E+02  0.00000000000E+00 0. -1.
<scales pt_clust_5="13000.00000" pt_clust_6="13000.00000" pt_clust_7="13000.00000" pt_clust_8="13000.00000" pt_clust_9="20.38820" pt_clust_10="45.55835"></scales>
<clustering>
<clus scale="   20.388">  1  9  2 -1</clus>
<clus scale="   45.558">  2 10  1 -1</clus>
<clus scale="   85.327">  7  8 -1 -1</clus>
<clus scale="   85.378">  5  6 -1 -1</clus>
<clus scale="  124.901">  1  7  2 -1</clus>
<clus scale="   45.558">  2  5  1 -1</clus>
</clustering>
</event>
<event>
10    2  0.3984345E-006  0.1458856E+03  0.7546771E-02  0.1206053E+00
         21   -1    0    0  501  502  0.00000000000E+00  0.00000000000E+00  0.13222285447E+03  0.13222285447E+03  0.00000000000E+00 0. -1.
          2   -1    0    0  503    0 -0.00000000000E+00 -0.00000000000E+00 -0.57672377606E+03  0.57672377606E+03  0.00000000000E+00 0. -1.
         23    2    1    2    0    0  0.75870688757E+02  0.12589165519E+02 -0.28520830104E+03  0.30898097118E+03  0.90612455361E+02 0.  0.
         23    2    1    2    0    0 -0.84175121303E+02 -0.26660103318E+02  0.12764277275E+02  0.12868760116E+03  0.92743516018E+02 0.  0.
        -11    1    3    3    0    0  0.86799754843E+02 -0.62260620018E+01 -0.26628630370E+03  0.28014524237E+03  0.00000000000E+00 0. -1.
         11    1    3    3    0    0 -0.10929066086E+02  0.18815227520E+02 -0.18921997347E+02  0.28835728806E+02  0.00000000000E+00 0.  1.
        -13    1    4    4    0    0 -0.86256315798E+02  0.89955657488E+01 -0.84684297469E+01  0.87136596907E+02  0.00000000000E+00 0.  1.
         13    1    4    4    0    0  0.20811944955E+01 -0.35655669067E+02  0.21232707022E+02  0.41551004255E+02  0.00000000000E+00 0. -1.
         21    1    1    2  503  502  0.61050881057E+02  0.69295526843E+01 -0.20135420950E+03  0.21052018065E+03  0.00000000000E+00 0.  1.
          2    1    1    2  501    0 -0.52746448512E+02  0.71413851150E+01  0.29297311680E+02  0.60757877544E+02  0.00000000000E+00 0. -1.
<scales pt_clust_5="13000.00000" pt_clust_6="13000.00000" pt_clust_7="13000.00000" pt_clust_8="13000.00000" pt_clust_9="58.73456" pt_clust_10="53.22769"></scales>
<clustering>
<clus scale="   53.228">  1 10  2 -1</clus>
<clus scale="   58.735">  2  9  1 -1</clus>
<clus scale="   90.612">  5  6 -1 -1</clus>
<clus scale="   92.744">  7  8 -1 -1</clus>
<clus scale="  144.540">  2  5  1 -1</clus>
<clus scale="   53.228">  1  5  2 -1</clus>
</clustering>
</event>
<event>
10    2  0.3984345E-006  0.2155561E+03  0.7546771E-02  0.1138209E+00
         21   -1    0    0  501  502  0.00000000000E+00  0.00000000000E+00  0.42205714452E+03  0.42205714452E+03  0.00000000000E+00 0. -1.
          1   -1    0    0  503    0 -0.00000000000E+00 -0.00000000000E+00 -0.32086474532E+03  0.32086474532E+03  0.00000000000E+00 0. -1.
         23    2    1    2    0    0 -0.18849697471E+03 -0.84115232457E+02 -0.11404054228E+03  0.25282828122E+03  0.91161464964E+02 0.  0.
         23    2    1    2    0    0  0.16487447975E+03  0.44861641370E+02 -0.33787876575E+02  0.20193902911E+03  0.10218409825E+03 0.  0.
        -11    1    4    4    0    0  0.12525454299E+03  0.77174375151E+02 -0.16861448527E+02  0.14808407465E+03  0.00000000000E+00 0.  1.
         11    1    4    4    0    0  0.39619936758E+02 -0.32312733781E+02 -0.16926428048E+02  0.53854954457E+02  0.00000000000E+00 0. -1.
        -13    1    3    3    0    0 -0.98208068503E+02 -0.80573834592E+02 -0.32512564851E+02  0.13112602493E+03  0.00000000000E+00 0.  1.
         13    1    3    3    0    0 -0.90288906210E+02 -0.35413978650E+01 -0.81527977429E+02  0.12170225629E+03  0.00000000000E+00 0. -1.
         21    1    1    2  503  502 -0.92385144287E+01  0.35725216449E+02 -0.50132755827E-01  0.36900457348E+02  0.00000000000E+00 0. -1.
          1    1    1    2  501    0  0.32861009396E+02  0.35283746378E+01  0.24907095081E+03  0.25125412216E+03  0.00000000000E+00 0. -1.
<scales pt_clust_5="13000.00000" pt_clust_6="13000.00000" pt_clust_7="13000.00000" pt_clust_8="13000.00000" pt_clust_9="36.55313" pt_clust_10="33.04989"></scales>
<clustering>
<clus scale="   33.050">  1 10  2 -1</clus>
<clus scale="   36.553">  1  9  2 -1</clus>
<clus scale="   91.161">  7  8 -1 -1</clus>
<clus scale="  102.184">  5  6 -1 -1</clus>
<clus scale="  210.555">  2  7  1 -1</clus>
<clus scale="   33.050">  1  5  2 -1</clus>
</clustering>
</event>
<event>
10    2  0.3984345E-006  0.1399084E+03  0.7546771E-02  0.1213967E+00
          1   -1    0    0  503    0 -0.00000000000E+00  0.00000000000E+00  0.32803316104E+03  0.32803316104E+03  0.00000000000E+00 0. -1.
         21   -1    0    0  501  502  0.00000000000E+00 -0.00000000000E+00 -0.98348470396E+02  0.98348470396E+02  0.00000000000E+00 0.  1.
         23    2    1    2    0    0 -0.11454948932E+03  0.38055489465E+02  0.14635451222E+03  0.21001306411E+03  0.90089056319E+02 0.  0.
         23    2    1    2    0    0  0.76072001678E+02 -0.60446505548E+02  0.62386516675E+02  0.14789115640E+03  0.92406640491E+02 0.  0.
        -13    1    4    4    0    0  0.94553973683E+02 -0.51254049766E+02  0.67034887667E+02  0.12673242569E+03  0.00000000000E+00 0.  1.
         13    1    4    4    0    0 -0.18481972004E+02 -0.91924557823E+01 -0.46483709924E+01  0.21158730713E+02  0.00000000000E+00 0. -1.
        -13    1    3    3    0    0 -0.39812803065E+02  0.46331791736E+02  0.11149276234E+03  0.12713115381E+03  0.00000000000E+00 0. -1.
         13    1    3    3    0    0 -0.74736686254E+02 -0.82763022707E+01  0.34861749884E+02  0.82881910309E+02  0.00000000000E+00 0.  1.
         21    1    1    2  503  502  0.20423956002E+02 -0.80371418205E+01  0.24529311017E+02  0.32915356999E+02  0.00000000000E+00 0. -1.
          1    1    1    2  501    0  0.18053531639E+02  0.30428157903E+02 -0.35856492761E+01  0.35562053916E+02  0.00000000000E+00 0. -1.
<scales pt_clust_5="13000.00000" pt_clust_6="13000.00000" pt_clust_7="13000.00000" pt_clust_8="13000.00000" pt_clust_9="21.94843" pt_clust_10="35.58712"></scales>
<clustering>
<clus scale="   21.948">  1  9  2 -1</clus>
<clus scale="   35.587">  2 10  1 -1</clus>
<clus scale="   90.089">  7  8 -1 -1</clus>
<clus scale="   92.407">  5  6 -1 -1</clus>
<clus scale="  138.389">  1  7  2 -1</clus>
<clus scale="   35.587">  2  5  1 -1</clus>
</clustering>
</event>
<event>
10    2  0.3984345E-006  0.1104676E+03  0.7546771E-02  0.1262471E+00
         21   -1    0    0  501  502  0.00000000000E+00  0.00000000000E+00  0.38267143895E+03  0.38267143895E+03  0.00000000000E+00 0. -1.
          1   -1    0    0  503    0 -0.00000000000E+00 -0.00000000000E+00 -0.21494154215E+03  0.21494154215E+03  0.00000000000E+00 0. -1.
         23    2    1    2    0    0 -0.42275536235E+02  0.79246748794E+02 -0.14944030995E+03  0.19706517961E+03  0.91842313867E+02 0.  0.
         23    2    1    2    0    0  0.46717096746E+02 -0.47060682328E+02  0.26127412778E+03  0.28696855896E+03  0.98435710165E+02 0.  0.
        -11    1    3    3    0    0 -0.65167382436E+02  0.29865254609E+02 -0.10315171197E+03  0.12561447706E+03  0.00000000000E+00 0.  1.
         11    1    3    3    0    0  0.22891846201E+02  0.49381494185E+02 -0.46288597987E+02  0.71450702544E+02  0.00000000000E+00 0. -1.
        -13    1    4    4    0    0  0.13865109858E+02 -0.68318398860E+02  0.10621472321E+03  0.12704807091E+03  0.00000000000E+00 0. -1.
         13    1    4    4    0    0  0.32851986888E+02  0.21257716532E+02  0.15505940457E+03  0.15992048805E+03  0.00000000000E+00 0.  1.
         21    1    1    2  503  502  0.18089707762E+02 -0.42304693498E+02 -0.65052134571E+01  0.46467649188E+02  0.00000000000E+00 0.  1.
          1    1    1    2  501    0 -0.22531268274E+02  0.10118627032E+02  0.62401292432E+02  0.67111593337E+02  0.00000000000E+00 0. -1.
<scales pt_clust_5="13000.00000" pt_clust_6="13000.00000" pt_clust_7="13000.00000" pt_clust_8="13000.00000" pt_clust_9="44.88086" pt_clust_10="24.69908"></scales>
<clustering>
<clus scale="   24.699">  1 10  2 -1</clus>
<clus scale="   44.881">  2  9  1 -1</clus>
<clus scale="   91.842">  5  6 -1 -1</clus>
<clus scale="   98.436">  7  8 -1 -1</clus>
<clus scale="  104.635">  2  5  1 -1</clus>
<clus scale="   24.699">  1  5  2 -1</clus>
</clustering>
</event>
<event>
10    2  0.3984345E-006  0.2229999E+03  0.7546771E-02  0.1156384E+00
          2   -1    0    0  503    0 -0.00000000000E+00  0.00000000000E+00  0.38206359966E+03  0.38206359966E+03  0.00000000000E+00 0. -1.
         21   -1    0    0  501  502  0.00000000000E+00 -0.00000000000E+00 -0.29578674768E+03  0.29578674768E+03  0.00000000000E+00 0.  1.
         23    2    1    2    0    0  0.10168420844E+03 -0.15699162516E+02  0.94149501424E+01  0.13650174178E+03  0.89207299432E+02 0.  0.
         23    2    1    2    0    0 -0.43866122053E+02  0.18029147350E+03  0.10033626928E+03  0.22992808919E+03  0.91489382891E+02 0.  0.
        -11    1    4    4    0    0  0.16358238028E+02  0.12183837791E+03  0.61270196716E+02  0.13735435664E+03  0.00000000000E+00 0. -1.
         11    1    4    4    0    0 -0.60224360081E+02  0.58453095597E+02  0.39066072566E+02  0.92573732547E+02  0.00000000000E+00 0.  1.
        -11    1    3    3    0    0 -0.12388285906E+02 -0.15722205899E+02  0.10115198553E+02  0.22427095840E+02  0.00000000000E+00 0.  1.
         11    1    3    3    0    0  0.11407249435E+03  0.23043382871E-01 -0.70024841099E+00  0.11407464594E+03  0.00000000000E+00 0. -1.
         21    1    1    2  503  502 -0.73323577381E+02  0.48186184164E+02  0.27733054964E+02  0.92018355136E+02  0.00000000000E+00 0.  1.
          2    1    1    2  501    0  0.15505490990E+02 -0.21277849515E+03 -0.51207422407E+02  0.21940216125E+03  0.00000000000E+00 0. -1.
<scales pt_clust_5="13000.00000" pt_clust_6="13000.00000" pt_clust_7="13000.00000" pt_clust_8="13000.00000" pt_clust_9="87.73970" pt_clust_10="203.36822"></scales>
<clustering>
<clus scale="   87.740">  1  9  2 -1</clus>
<clus scale="   89.207">  7  8 -1 -1</clus>
<clus scale="   91.489">  5  6 -1 -1</clus>
<clus scale="  123.367">  1  7  2 -1</clus>
<clus scale="  203.368">  2 10  1 -1</clus>
<clus scale="  203.368">  2  5  1 -1</clus>
</clustering>
</event>
<event>
10    2  0.3984345E-006  0.1242081E+03  0.7546771E-02  0.1237102E+00
         21   -1    0    0  503  502  0.00000000000E+00  0.00000000000E+00  0.19654470512E+03  0.19654470512E+03  0.00000000000E+00 0. -1.
         -1   -1    0    0    0  501 -0.00000000000E+00 -0.00000000000E+00 -0.26135110282E+03  0.26135110282E+03  0.00000000000E+00 0.  1.
         23    2    1    2    0    0  0.30733237752E+02 -0.76832108567E+02 -0.12052634212E+03  0.17220260739E+03  0.90991395412E+02 0.  0.
         23    2    1    2    0    0 -0.60705543917E+01  0.11548173325E+03  0.90477392848E+02  0.17131480389E+03  0.88259396496E+02 0.  0.
        -11    1    3    3    0    0 -0.40620412813E+01 -0.82444777670E+02 -0.10533027399E+03  0.13382117980E+03  0.00000000000E+00 0.  1.
         11    1    3    3    0    0  0.34795279033E+02  0.56126691033E+01 -0.15196068128E+02  0.38381427592E+02  0.00000000000E+00 0. -1.
        -13    1    4    4    0    0  0.68361756246E+01  0.42994171758E+02 -0.11973994500E+02  0.45150953994E+02  0.00000000000E+00 0.  1.
         13    1    4    4    0    0 -0.12906730016E+02  0.72487561497E+02  0.10245138735E+03  0.12616384990E+03  0.00000000000E+00 0. -1.
         21    1    1    2  503  501 -0.35403985175E+02 -0.77846765699E+00 -0.58517632130E+02  0.68398548583E+02  0.00000000000E+00 0. -1.
         -1    1    1    2    0  502  0.10741301815E+02 -0.37871157030E+02  0.23760183701E+02  0.45979848075E+02  0.00000000000E+00 0.  1.
<scales pt_clust_5="13000.00000" pt_clust_6="13000.00000" pt_clust_7="13000.00000" pt_clust_8="13000.00000" pt_clust_9="35.41254" pt_clust_10="38.91226"></scales>
<clustering>
<clus scale="   35.413">  2  9  1 -1</clus>
<clus scale="   38.912">  1 10  2 -1</clus>
<clus scale="   88.259">  7  8 -1 -1</clus>
<clus scale="   90.991">  5  6 -1 -1</clus>
<clus scale="  122.221">  1  7  2 -1</clus>
<clus scale="   38.912">  1  5  2 -1</clus>
</clustering>
</event>
<event>
10    2  0.3984345E-006  0.1120512E+03  0.7546771E-02  0.1258588E+00
         21   -1    0    0  501  502  0.00000000000E+00  0.00000000000E+00  0.38469863224E+02  0.38469863224E+02  0.00000000000E+00 0.  1.
          1   -1    0    0  503    0 -0.00000000000E+00 -0.00000000000E+00 -0.58159277553E+03  0.58159277553E+03  0.00000000000E+00 0. -1.
         23    2    1    2    0    0 -0.41711147601E+02 -0.33968252975E+02 -0.22970219590E+03  0.25337752263E+03  0.92430558416E+02 0.  0.
         23    2    1    2    0    0  0.66467605692E+02  0.32701780853E+02 -0.25564686090E+03  0.28024812391E+03  0.87728811611E+02 0.  0.
        -13    1    3    3    0    0  0.14627190446E+02 -0.46880368298E+02 -0.10879250459E+03  0.11936302898E+03  0.00000000000E+00 0.  1.
         13    1    3    3    0    0 -0.56338338048E+02  0.12912115324E+02 -0.12090969131E+03  0.13401449365E+03  0.00000000000E+00 0. -1.
        -13    1    4    4    0    0  0.36442805180E+01  0.38154422140E+02 -0.16773595306E+03  0.17205926496E+03  0.00000000000E+00 0. -1.
         13    1    4    4    0    0  0.62823325174E+02 -0.54526412867E+01 -0.87910907846E+02  0.10818885895E+03  0.00000000000E+00 0.  1.
         21    1    1    2  503  502 -0.15206327963E+02 -0.25372972294E+02 -0.48216340679E+02  0.56567089739E+02  0.00000000000E+00 0.  1.
          1    1    1    2  501    0 -0.95501301279E+01  0.26639444415E+02 -0.95575148220E+01  0.29869902474E+02  0.00000000000E+00 0. -1.
<scales pt_clust_5="13000.00000" pt_clust_6="13000.00000" pt_clust_7="13000.00000" pt_clust_8="13000.00000" pt_clust_9="27.12773" pt_clust_10="28.29956"></scales>
<clustering>
<clus scale="   28.300">  1 10  2 -1</clus>
<clus scale="   27.128">  1  9  2 -1</clus>
<clus scale="   87.729">  7  8 -1 -1</clus>
<clus scale="   92.431">  5  6 -1 -1</clus>
<clus scale="  108.205">  1  7  2 -1</clus>
<clus scale="   28.300">  1  5  2 -1</clus>
</clustering>
</event>
<event>
10    2  0.3984345E-006  0.1128997E+03  0.7546771E-02  0.1255952E+00
         -3   -1    0    0    0  501 -0.00000000000E+00  0.00000000000E+00  0.64977560566E+03  0.64977560566E+03  0.00000000000E+00 0.  1.
         21   -1    0    0  503  502  0.00000000000E+00 -0.00000000000E+00 -0.67455953885E+02  0.67455953885E+02  0.00000000000E+00 0.  1.
         23    2    1    2    0    0 -0.74784779080E+02  0.84407656562E+00  0.19021827268E+03  0.22374377939E+03  0.91020942141E+02 0.  0.
         23    2    1    2    0    0  0.37212568788E+02 -0.87080394779E+02  0.10061829634E+03  0.16644898964E+03  0.92808696595E+02 0.  0.
        -11    1    4    4    0    0  0.22754503954E+02  0.12026011810E+02  0.18788230673E+01  0.25805472023E+02  0.00000000000E+00 0. -1.
         11    1    4    4    0    0  0.14458064834E+02 -0.99106406589E+02  0.98739473274E+02  0.14064351762E+03  0.00000000000E+00 0.  1.
        -11    1    3    3    0    0 -0.90959523647E+02  0.15571411805E+02  0.17234038084E+03  0.19549248240E+03  0.00000000000E+00 0.  1.
         11    1    3    3    0    0  0.16174744566E+02 -0.14727335239E+02  0.17877891841E+02  0.28251296992E+02  0.00000000000E+00 0. -1.
         21    1    1    2  503  501  0.64092105788E+02  0.53263200625E+02  0.26336121379E+03  0.27623159757E+03  0.00000000000E+00 0.  1.
         -3    1    1    2    0  502 -0.26519895495E+02  0.32973117589E+02  0.28121868961E+02  0.50807192940E+02  0.00000000000E+00 0.  1.
<scales pt_clust_5="13000.00000" pt_clust_6="13000.00000" pt_clust_7="13000.00000" pt_clust_8="13000.00000" pt_clust_9="83.55407" pt_clust_10="42.31467"></scales>
<clustering>
<clus scale="   42.315">  2 10  1 -1</clus>
<clus scale="   83.554">  1  9  2 -1</clus>
<clus scale="   91.021">  7  8 -1 -1</clus>
<clus scale="   92.809">  5  6 -1 -1</clus>
<clus scale="  111.435">  1  7  2 -1</clus>
<clus scale="   42.315">  2  5  1 -1</clus>
</clustering>
</event>
<event>
10    2  0.3984345E-006  0.1380057E+03  0.7546771E-02  0.1217279E+00
          1   -1    0    0  503    0 -0.00000000000E+00  0.00000000000E+00  0.40039561839E+03  0.40039561839E+03  0.00000000000E+00 0. -1.
         21   -1    0    0  501  502  0.00000000000E+00 -0.00000000000E+00 -0.24291574546E+03  0.24291574546E+03  0.00000000000E+00 0. -1.
         23    2    1    2    0    0 -0.93950855332E+02 -0.10959596604E+03  0.19142639006E+03  0.25846602944E+03  0.96553542518E+02 0.  0.
         23    2    1    2    0    0  0.49011004565E+02  0.39670940984E+02  0.92350536150E+02  0.14441052800E+03  0.91377879948E+02 0.  0.
        -13    1    3    3    0    0 -0.42419629972E+02 -0.55001155815E+02  0.21525593466E+02  0.72717971108E+02  0.00000000000E+00 0.  1.
         13    1    3    3    0    0 -0.51531225360E+02 -0.54594810229E+02  0.16990079660E+03  0.18574805833E+03  0.00000000000E+00 0. -1.
        -13    1    4    4    0    0  0.74632959582E+02  0.18593073231E+02  0.55642746639E+02  0.94931008010E+02  0.00000000000E+00 0. -1.
         13    1    4    4    0    0 -0.25621955017E+02  0.21077867754E+02  0.36707789511E+02  0.49479519993E+02  0.00000000000E+00 0.  1.
         21    1    1    2  503  502  0.39150041547E+02  0.11505911070E+02  0.44175020855E+02  0.60137710384E+02  0.00000000000E+00 0.  1.
          1    1    1    2  501    0  0.57898092198E+01  0.58419113989E+02 -0.17047207414E+03  0.18029709601E+03  0.00000000000E+00 0. -1.
<scales pt_clust_5="13000.00000" pt_clust_6="13000.00000" pt_clust_7="13000.00000" pt_clust_8="13000.00000" pt_clust_9="40.80578" pt_clust_10="58.92373"></scales>
<clustering>
<clus scale="   40.806">  1  9  2 -1</clus>
<clus scale="   58.924">  2 10  1 -1</clus>
<clus scale="   91.378">  7  8 -1 -1</clus>
<clus scale="   96.554">  5  6 -1 -1</clus>
<clus scale="  134.436">  2  7  1 -1</clus>
<clus scale="   58.924">  2  5  1 -1</clus>
</clustering>
</event>
<event>
10    2  0.3984345E-006  0.9669719E+02  0.7546771E-02  0.1288166E+00
         21   -1    0    0  501  502  0.00000000000E+00  0.00000000000E+00  0.40239351070E+03  0.40239351070E+03  0.00000000000E+00 0. -1.
          1   -1    0    0  503    0 -0.00000000000E+00 -0.00000000000E+00 -0.41878540732E+03  0.41878540732E+03  0.00000000000E+00 0. -1.
         23    2    1    2    0    0  0.15449898573E+02  0.16975545594E+02 -0.12277739089E+03  0.15392545740E+03  0.89954934326E+02 0.  0.
         23    2    1    2    0    0 -0.36300851529E+02 -0.19891768638E+02 -0.14624151410E+03  0.17736359499E+03  0.91421168783E+02 0.  0.
        -13    1    3    3    0    0  0.40992038752E+02  0.36847560768E+02 -0.10054654144E+03  0.11466340729E+03  0.00000000000E+00 0. -1.
         13    1    3    3    0    0 -0.25542140179E+02 -0.19872015174E+02 -0.22230849445E+02  0.39262050113E+02  0.00000000000E+00 0.  1.
        -13    1    4    4    0    0 -0.67085617606E+02 -0.18101437161E+02 -0.10340330302E+03  0.12458083798E+03  0.00000000000E+00 0.  1.
         13    1    4    4    0    0  0.30784766077E+02 -0.17903314773E+01 -0.42838211085E+02  0.52782757016E+02  0.00000000000E+00 0. -1.
         21    1    1    2  503  502  0.40413313463E+01 -0.39758326196E+02 -0.11379508085E+03  0.12060836325E+03  0.00000000000E+00 0.  1.
          1    1    1    2  501    0  0.16809621610E+02  0.42674549240E+02  0.36642208921E+03  0.36928150237E+03  0.00000000000E+00 0. -1.
<scales pt_clust_5="13000.00000" pt_clust_6="13000.00000" pt_clust_7="13000.00000" pt_clust_8="13000.00000" pt_clust_9="39.96319" pt_clust_10="45.69764"></scales>
<clustering>
<clus scale="   39.963">  2  9  1 -1</clus>
<clus scale="   45.698">  1 10  2 -1</clus>
<clus scale="   89.955">  5  6 -1 -1</clus>
<clus scale="   91.421">  7  8 -1 -1</clus>
<clus scale="   95.312">  2  5  1 -1</clus>
<clus scale="   45.698">  1  5  2 -1</clus>
</clustering>
</event>
<event>
10    2  0.3984345E-006  0.1264554E+03  0.7546771E-02  0.1241926E+00
         21   -1    0    0  501  502  0.00000000000E+00  0.00000000000E+00  0.19335373325E+03  0.19335373325E+03  0.00000000000E+00 0. -1.
          1   -1    0    0  503    0 -0.00000000000E+00 -0.00000000000E+00 -0.41147459942E+03  0.41147459942E+03  0.00000000000E+00 0. -1.
         23    2    1    2    0    0  0.58525682820E+02  0.39830820650E+01 -0.17273262048E+03  0.20610428091E+03  0.95923385788E+02 0.  0.
         23    2    1    2    0    0 -0.16285963051E+02 -0.18910073759E+02 -0.10124878039E+03  0.15824370948E+03  0.11902492419E+03 0.  0.
        -11    1    3    3    0    0 -0.68252951683E+01  0.25510727177E+02 -0.80212646357E+01  0.27599321397E+02  0.00000000000E+00 0.  1.
         11    1    3    3    0    0  0.65350977988E+02 -0.21527645112E+02 -0.16471135584E+03  0.17850495952E+03  0.00000000000E+00 0. -1.
        -13    1    4    4    0    0 -0.64752759258E+02 -0.27574774724E+02 -0.45214777656E+02  0.83652042122E+02  0.00000000000E+00 0.  1.
         13    1    4    4    0    0  0.48466796207E+02  0.86647009642E+01 -0.56034002736E+02  0.74591667363E+02  0.00000000000E+00 0. -1.
         21    1    1    2  503  502 -0.17808745392E+02  0.46208174202E+02 -0.82674665752E+02  0.96371402049E+02  0.00000000000E+00 0. -1.
          1    1    1    2  501    0 -0.24430974376E+02 -0.31281182508E+02  0.13853520045E+03  0.14410894022E+03  0.00000000000E+00 0. -1.
<scales pt_clust_5="13000.00000" pt_clust_6="13000.00000" pt_clust_7="13000.00000" pt_clust_8="13000.00000" pt_clust_9="47.04968" pt_clust_10="39.69112"></scales>
<clustering>
<clus scale="   39.691">  1 10  2 -1</clus>
<clus scale="   47.050">  2  9  1 -1</clus>
<clus scale="   95.923">  5  6 -1 -1</clus>
<clus scale="  105.002">  2  5  1 -1</clus>
<clus scale="  119.025">  7  8 -1 -1</clus>
<clus scale="   39.691">  1  5  2 -1</clus>
</clustering>
</event>
<event>
10    2  0.3984345E-006  0.1041928E+03  0.7546771E-02  0.1276424E+00
          1   -1    0    0  503    0 -0.00000000000E+00  0.00000000000E+00  0.10650585995E+03  0.10650585995E+03  0.00000000000E+00 0. -1.
         21   -1    0    0  501  502  0.00000000000E+00 -0.00000000000E+00 -0.24128657674E+03  0.24128657674E+03  0.00000000000E+00 0.  1.
         23    2    1    2    0    0  0.21963416968E+02  0.12272197071E+02  0.79631805029E+01  0.94535781109E+02  0.90777767984E+02 0.  0.
         23    2    1    2    0    0 -0.38670341426E+02  0.17699383382E+01 -0.50083186972E+02  0.11850356220E+03  0.10018103937E+03 0.  0.
        -11    1    3    3    0    0 -0.10992477478E+02  0.21048171588E+02  0.40790838470E+02  0.47199074052E+02  0.00000000000E+00 0. -1.
         11    1    3    3    0    0  0.32955894446E+02 -0.87759745163E+01 -0.32827657967E+02  0.47336707057E+02  0.00000000000E+00 0.  1.
        -11    1    4    4    0    0 -0.43782546976E+01 -0.23990208267E+02 -0.67834987293E+02  0.72085259990E+02  0.00000000000E+00 0. -1.
         11    1    4    4    0    0 -0.34292086728E+02  0.25760146605E+02  0.17751800321E+02  0.46418302208E+02  0.00000000000E+00 0.  1.
         21    1    1    2  503  502  0.56303320999E+02 -0.13298754167E+02 -0.60786782609E+02  0.83916349765E+02  0.00000000000E+00 0.  1.
          1    1    1    2  501    0 -0.39596396541E+02 -0.74338124255E+00 -0.31873927709E+02  0.50836743624E+02  0.00000000000E+00 0. -1.
<scales pt_clust_5="13000.00000" pt_clust_6="13000.00000" pt_clust_7="13000.00000" pt_clust_8="13000.00000" pt_clust_9="44.11245" pt_clust_10="39.60337"></scales>
<clustering>
<clus scale="   39.603">  2 10  1 -1</clus>
<clus scale="   44.112">  2  9  1 -1</clus>
<clus scale="   90.778">  5  6 -1 -1</clus>
<clus scale="   95.187">  1  5  2 -1</clus>
<clus scale="  100.181">  7  8 -1 -1</clus>
<clus scale="   39.603">  2  5  1 -1</clus>
</clustering>
</event>
<event>
10    2  0.3984345E-006  0.1340026E+03  0.7546771E-02  0.1222868E+00
          2   -1    0    0  503    0 -0.00000000000E+00  0.00000000000E+00  0.48221145943E+03  0.48221145943E+03  0.00000000000E+00 0. -1.
         21   -1    0    0  501  502  0.00000000000E+00 -0.00000000000E+00 -0.12309324883E+03  0.12309324883E+03  0.00000000000E+00 0.  1.
         23    2    1    2    0    0  0.43421208709E+02 -0.79398019599E+02  0.19849586275E+03  0.23496317230E+03  0.87279080677E+02 0.  0.
         23    2    1    2    0    0  0.27866887852E+02  0.97977767408E+02 -0.26334655880E+02  0.13996508137E+03  0.92306573755E+02 0.  0.
        -13    1    4    4    0    0  0.36559268781E+02  0.27705194884E+02 -0.47527783195E+02  0.66053373364E+02  0.00000000000E+00 0.  1.
         13    1    4    4    0    0 -0.86923809292E+01  0.70272572523E+02  0.21193127315E+02  0.73911708008E+02  0.00000000000E+00 0. -1.
        -13    1    3    3    0    0 -0.21865122346E+02 -0.48901374779E+02  0.80000992286E+02  0.96278693371E+02  0.00000000000E+00 0. -1.
         13    1    3    3    0    0  0.65286331056E+02 -0.30496644819E+02  0.11849487046E+03  0.13868447892E+03  0.00000000000E+00 0.  1.
         21    1    1    2  503  502 -0.44351708038E+02 -0.24846689431E+02  0.19504569638E+03  0.20156203923E+03  0.00000000000E+00 0. -1.
          2    1    1    2  501    0 -0.26936388523E+02  0.62669416216E+01 -0.80886926494E+01  0.28814415363E+02  0.00000000000E+00 0. -1.
<scales pt_clust_5="13000.00000" pt_clust_6="13000.00000" pt_clust_7="13000.00000" pt_clust_8="13000.00000" pt_clust_9="51.47691" pt_clust_10="27.65581"></scales>
<clustering>
<clus scale="   27.656">  2 10  1 -1</clus>
<clus scale="   51.477">  1  9  2 -1</clus>
<clus scale="   87.279">  7  8 -1 -1</clus>
<clus scale="   92.307">  5  6 -1 -1</clus>
<clus scale="  130.590">  1  7  2 -1</clus>
<clus scale="   27.656">  2  5  1 -1</clus>
</clustering>
</event>
<event>
10    2  0.3984345E-006  0.1324937E+03  0.7546771E-02  0.1245950E+00
          1   -1    0    0  503    0 -0.00000000000E+00  0.00000000000E+00  0.10702106926E+04  0.10702106926E+04  0.00000000000E+00 0. -1.
         21   -1    0    0  501  502  0.00000000000E+00 -0.00000000000E+00 -0.43363497236E+02  0.43363497236E+02  0.00000000000E+00 0.  1.
         23    2    1    2    0    0  0.96771573789E+02 -0.34286061414E+02  0.65515016936E+03  0.66944635892E+03  0.91631935275E+02 0.  0.
         23    2    1    2    0    0 -0.83607312977E+01  0.19297415948E+02  0.72310593405E+02  0.11206903826E+03  0.82996116343E+02 0.  0.
        -11    1    4    4    0    0  0.19418615538E+02  0.38389390171E+02  0.64396296294E+02  0.77444889331E+02  0.00000000000E+00 0.  1.
         11    1    4    4    0    0 -0.27779346836E+02 -0.19091974223E+02  0.79142971104E+01  0.34624148929E+02  0.00000000000E+00 0. -1.
        -13    1    3    3    0    0  0.72186868213E+02  0.22053303143E+02  0.39335108102E+03  0.40052760836E+03  0.00000000000E+00 0.  1.
         13    1    3    3    0    0  0.24584705577E+02 -0.56339364557E+02  0.26179908834E+03  0.26891875056E+03  0.00000000000E+00 0. -1.
         21    1    1    2  503  502 -0.80303698113E+02  0.39460558540E+02  0.29176435022E+03  0.30517577831E+03  0.00000000000E+00 0.  1.
          1    1    1    2  501    0 -0.81071443784E+01 -0.24471913074E+02  0.76220823648E+01  0.26883014323E+02  0.00000000000E+00 0. -1.
<scales pt_clust_5="13000.00000" pt_clust_6="13000.00000" pt_clust_7="13000.00000" pt_clust_8="13000.00000" pt_clust_9="95.69830" pt_clust_10="25.77984"></scales>
<clustering>
<clus scale="   25.780">  2 10  1 -1</clus>
<clus scale="   82.996">  5  6 -1 -1</clus>
<clus scale="   84.171">  2  5  1 -1</clus>
<clus scale="   91.632">  7  8 -1 -1</clus>
<clus scale="   95.698">  2  9  1 -1</clus>
<clus scale="   25.780">  2  5  1 -1</clus>
</clustering>
</event>
<event>
10    2  0.3984345E-006  0.1527754E+03  0.7546771E-02  0.1197208E+00
          3   -1    0    0  503    0 -0.00000000000E+00  0.00000000000E+00  0.97389799587E+03  0.97389799587E+03  0.00000000000E+00 0. -1.
         21   -1    0    0  501  502  0.00000000000E+00 -0.00000000000E+00 -0.68279769735E+02  0.68279769735E+02  0.00000000000E+00 0.  1.
         23    2    1    2    0    0  0.47155534186E+02 -0.70773111848E+02  0.36055054931E+03  0.38147553255E+03  0.91073627166E+02 0.  0.
         23    2    1    2    0    0 -0.29651752989E+02  0.16094102777E+03  0.24200971444E+03  0.30618786420E+03  0.91657326087E+02 0.  0.
        -11    1    4    4    0    0 -0.56901185680E+02  0.62345229100E+02  0.12417889895E+03  0.15015016306E+03  0.00000000000E+00 0. -1.
         11    1    4    4    0    0  0.27249432691E+02  0.98595798670E+02  0.11783081549E+03  0.15603770114E+03  0.00000000000E+00 0.  1.
        -11    1    3    3    0    0  0.69137263631E+02 -0.29642006612E+02  0.25948694080E+03  0.27017046882E+03  0.00000000000E+00 0. -1.
         11    1    3    3    0    0 -0.21981729444E+02 -0.41131105236E+02  0.10106360851E+03  0.11130506373E+03  0.00000000000E+00 0.  1.
         21    1    1    2  503  502 -0.15592160492E+02 -0.59085917832E+02  0.31521577372E+03  0.32108448289E+03  0.00000000000E+00 0. -1.
          3    1    1    2  501    0 -0.19116207055E+01 -0.31081998089E+02 -0.12157811330E+02  0.33429885960E+02  0.00000000000E+00 0. -1.
<scales pt_clust_5="13000.00000" pt_clust_6="13000.00000" pt_clust_7="13000.00000" pt_clust_8="13000.00000" pt_clust_9="63.08006" pt_clust_10="31.14073"></scales>
<clustering>
<clus scale="   31.141">  2 10  1 -1</clus>
<clus scale="   63.080">  1  9  2 -1</clus>
<clus scale="   91.074">  7  8 -1 -1</clus>
<clus scale="   91.657">  5  6 -1 -1</clus>
<clus scale="  152.426">  1  7  2 -1</clus>
<clus scale="   31.141">  2  5  1 -1</clus>
</clustering>
</event>
<event>
10    2  0.3984345E-006  0.1199769E+03  0.7546771E-02  0.1243601E+00
         21   -1    0    0  503  502  0.00000000000E+00  0.00000000000E+00  0.38859366565E+03  0.38859366565E+03  0.00000000000E+00 0. -1.
         -3   -1    0    0    0  501 -0.00000000000E+00 -0.00000000000E+00 -0.77473550389E+02  0.77473550389E+02  0.00000000000E+00 0.  1.
         23    2    1    2    0    0  0.84605556663E+02 -0.57661355839E+00  0.73565234852E+02  0.14571911045E+03  0.93079442797E+02 0.  0.
         23    2    1    2    0    0 -0.54562609066E+02 -0.49112390776E+02  0.11293538130E+03  0.16290811261E+03  0.91627220672E+02 0.  0.
        -11    1    3    3    0    0 -0.10162372549E+02 -0.22564773040E+02  0.17713875834E+01  0.24810897044E+02  0.00000000000E+00 0.  1.
         11    1    3    3    0    0  0.94767929212E+02  0.21988159481E+02  0.71793847268E+02  0.12090821341E+03  0.00000000000E+00 0. -1.
        -11    1    4    4    0    0 -0.61049455262E+02 -0.24298245397E+02  0.23364754139E+02  0.69737740522E+02  0.00000000000E+00 0.  1.
         11    1    4    4    0    0  0.64868461965E+01 -0.24814145379E+02  0.89570627161E+02  0.93170372085E+02  0.00000000000E+00 0. -1.
         21    1    1    2  503  501  0.16800570153E+02  0.17338794431E+02  0.45637135050E+01  0.24570723041E+02  0.00000000000E+00 0. -1.
         -3    1    1    2    0  502 -0.46843517751E+02  0.32350209904E+02  0.12005578560E+03  0.13286926993E+03  0.00000000000E+00 0.  1.
<scales pt_clust_5="13000.00000" pt_clust_6="13000.00000" pt_clust_7="13000.00000" pt_clust_8="13000.00000" pt_clust_9="24.14318" pt_clust_10="56.59656"></scales>
<clustering>
<clus scale="   24.143">  2  9  1 -1</clus>
<clus scale="   56.597">  1 10  2 -1</clus>
<clus scale="   91.627">  7  8 -1 -1</clus>
<clus scale="   93.079">  5  6 -1 -1</clus>
<clus scale="  118.854">  1  7  2 -1</clus>
<clus scale="   56.597">  1  5  2 -1</clus>
</clustering>
</event>
<event>
10    2  0.3984345E-006  0.1990429E+03  0.7546771E-02  0.1178734E+00
          3   -1    0    0  503    0 -0.00000000000E+00  0.00000000000E+00  0.20350061284E+03  0.20350061284E+03  0.00000000000E+00 0. -1.
         21   -1    0    0  501  502  0.00000000000E+00 -0.00000000000E+00 -0.50181722436E+03  0.50181722436E+03  0.00000000000E+00 0. -1.
         23    2    1    2    0    0 -0.31524159694E+02  0.13793063306E+02  0.85700434046E+01  0.98133008392E+02  0.91502024307E+02 0.  0.
         23    2    1    2    0    0 -0.15621417003E+03 -0.36053117326E+02 -0.22103373521E+03  0.28669115599E+03  0.87368258739E+02 0.  0.
        -11    1    4    4    0    0 -0.11173565448E+03  0.15344159289E+02 -0.11776637838E+03  0.16306201147E+03  0.00000000000E+00 0. -1.
         11    1    4    4    0    0 -0.44478515545E+02 -0.51397276615E+02 -0.10326735683E+03  0.12362914452E+03  0.00000000000E+00 0.  1.
        -13    1    3    3    0    0  0.10029514581E+02 -0.27992384598E+02 -0.16597898534E+02  0.34053707493E+02  0.00000000000E+00 0.  1.
         13    1    3    3    0    0 -0.41553674275E+02  0.41785447904E+02  0.25167941939E+02  0.64079300899E+02  0.00000000000E+00 0. -1.
         21    1    1    2  503  502 -0.29483788454E+02  0.30595743462E+02  0.48862758766E+02  0.64753088682E+02  0.00000000000E+00 0. -1.
          3    1    1    2  501    0  0.21722211818E+03 -0.83356894412E+01 -0.13471567848E+03  0.25574058413E+03  0.00000000000E+00 0. -1.
<scales pt_clust_5="13000.00000" pt_clust_6="13000.00000" pt_clust_7="13000.00000" pt_clust_8="13000.00000" pt_clust_9="42.48992" pt_clust_10="178.84319"></scales>
<clustering>
<clus scale="   42.490">  1  9  2 -1</clus>
<clus scale="   87.368">  5  6 -1 -1</clus>
<clus scale="   91.502">  7  8 -1 -1</clus>
<clus scale="  103.820">  1  7  2 -1</clus>
<clus scale="  178.843">  2 10  1 -1</clus>
<clus scale="  178.843">  2  5  1 -1</clus>
</clustering>
</event>
<event>
10    2  0.3984345E-006  0.1104755E+03  0.7546771E-02  0.1262161E+00
          2   -1    0    0  503    0 -0.00000000000E+00  0.00000000000E+00  0.71098488755E+03  0.71098488755E+03  0.00000000000E+00 0. -1.
         21   -1    0    0  501  502  0.00000000000E+00 -0.00000000000E+00 -0.87911429746E+02  0.87911429746E+02  0.00000000000E+00 0. -1.
         23    2    1    2    0    0  0.32067284651E+02 -0.35020637473E+02  0.44387569104E+03  0.45547418583E+03  0.90423166646E+02 0.  0.
         23    2    1    2    0    0 -0.10149000680E+02  0.10789330603E+03  0.11643014952E+03  0.18602014097E+03  0.96454888031E+02 0.  0.
        -11    1    3    3    0    0  0.63360183423E+02 -0.22659472392E+02  0.26137027088E+03  0.26989328082E+03  0.00000000000E+00 0. -1.
         11    1    3    3    0    0 -0.31292898772E+02 -0.12361165082E+02  0.18250542015E+03  0.18558090500E+03  0.00000000000E+00 0.  1.
        -13    1    4    4    0    0  0.29790528732E+02 -0.24994560380E+00  0.24410942676E+02  0.38515350151E+02  0.00000000000E+00 0.  1.
         13    1    4    4    0    0 -0.39939529412E+02  0.10814325164E+03  0.92019206849E+02  0.14750479081E+03  0.00000000000E+00 0. -1.
         21    1    1    2  503  502 -0.46181598667E+02 -0.43498748610E+02  0.90326759360E+02  0.11038027289E+03  0.00000000000E+00 0. -1.
          2    1    1    2  501    0  0.24263314697E+02 -0.29373919948E+02 -0.27559142120E+02  0.47021717616E+02  0.00000000000E+00 0. -1.
<scales pt_clust_5="13000.00000" pt_clust_6="13000.00000" pt_clust_7="13000.00000" pt_clust_8="13000.00000" pt_clust_9="64.37476" pt_clust_10="38.09902"></scales>
<clustering>
<clus scale="   38.099">  2 10  1 -1</clus>
<clus scale="   64.375">  2  9  1 -1</clus>
<clus scale="   90.423">  5  6 -1 -1</clus>
<clus scale="   96.455">  7  8 -1 -1</clus>
<clus scale="  105.250">  1  5  2 -1</clus>
<clus scale="   38.099">  2  5  1 -1</clus>
</clustering>
</event>
<event>
10    2  0.3984345E-006  0.9263982E+02  0.7546771E-02  0.1296633E+00
         21   -1    0    0  501  502  0.00000000000E+00  0.00000000000E+00  0.26977291228E+03  0.26977291228E+03  0.00000000000E+00 0. -1.
          1   -1    0    0  503    0 -0.00000000000E+00 -0.00000000000E+00 -0.24239387333E+03  0.24239387333E+03  0.00000000000E+00 0. -1.
         23    2    1    2    0    0 -0.27211896322E+02  0.25292407968E+02 -0.13801381231E+03  0.16971588977E+03  0.91517635743E+02 0.  0.
         23    2    1    2    0    0 -0.18830178019E+02  0.31055130511E+02 -0.42927082948E+02  0.10748642163E+03  0.91605674762E+02 0.  0.
        -11    1    3    3    0    0 -0.26712546285E+02 -0.94283794065E+01 -0.97318729008E+00  0.28344339131E+02  0.00000000000E+00 0.  1.
         11    1    3    3    0    0 -0.49935003743E+00  0.34720787375E+02 -0.13704062502E+03  0.14137155064E+03  0.00000000000E+00 0. -1.
        -11    1    4    4    0    0 -0.44007097600E+02  0.17461617364E+02 -0.58222385361E+02  0.75042513799E+02  0.00000000000E+00 0.  1.
         11    1    4    4    0    0  0.25176919581E+02  0.13593513147E+02  0.15295302413E+02  0.32443907829E+02  0.00000000000E+00 0. -1.
         21    1    1    2  503  502  0.20577682317E+02 -0.13260396173E+02  0.42495637774E+01  0.24846285607E+02  0.00000000000E+00 0.  1.
          1    1    1    2  501    0  0.25464392024E+02 -0.43087142306E+02  0.20407037043E+03  0.21011818860E+03  0.00000000000E+00 0. -1.
<scales pt_clust_5="13000.00000" pt_clust_6="13000.00000" pt_clust_7="13000.00000" pt_clust_8="13000.00000" pt_clust_9="24.48018" pt_clust_10="68.38917"></scales>
<clustering>
<clus scale="   24.480">  1  9  2 -1</clus>
<clus scale="   68.389">  1 10  2 -1</clus>
<clus scale="   91.518">  5  6 -1 -1</clus>
<clus scale="   91.606">  7  8 -1 -1</clus>
<clus scale="   92.553">  2  5  1 -1</clus>
<clus scale="   24.480">  1  5  2 -1</clus>
</clustering>
</event>
<event>
10    2  0.3984345E-006  0.1398759E+03  0.7546771E-02  0.1218990E+00
          2   -1    0    0  503    0 -0.00000000000E+00  0.00000000000E+00  0.12775855956E+04  0.12775855956E+04  0.00000000000E+00 0. -1.
         21   -1    0    0  501  502  0.00000000000E+00 -0.00000000000E+00 -0.29476272647E+02  0.29476272647E+02  0.00000000000E+00 0. -1.
         23    2    1    2    0    0 -0.60635005956E+02  0.72830769772E+02  0.50847091116E+03  0.52155150545E+03  0.67025221880E+02 0.  0.
         23    2    1    2    0    0  0.13090907435E+03 -0.37796616216E+02  0.57408318680E+03  0.59722964356E+03  0.92444425669E+02 0.  0.
        -11    1    4    4    0    0  0.13063648400E+03 -0.93696676207E+01  0.51865792076E+03  0.53493898754E+03  0.00000000000E+00 0. -1.
         11    1    4    4    0    0  0.27259035056E+00 -0.28426948595E+02  0.55425266037E+02  0.62290656018E+02  0.00000000000E+00 0.  1.
        -11    1    3    3    0    0 -0.70719783286E+02  0.40426096133E+02  0.33203511696E+03  0.34188137693E+03  0.00000000000E+00 0. -1.
         11    1    3    3    0    0  0.10084777330E+02  0.32404673638E+02  0.17643579420E+03  0.17967012852E+03  0.00000000000E+00 0.  1.
         21    1    1    2  503  502 -0.42538838466E+02 -0.42015343029E+02  0.12602793453E+03  0.13949151268E+03  0.00000000000E+00 0.  1.
          2    1    1    2  501    0 -0.27735229932E+02  0.69811894729E+01  0.39527290508E+02  0.48789206601E+02  0.00000000000E+00 0. -1.
<scales pt_clust_5="13000.00000" pt_clust_6="13000.00000" pt_clust_7="13000.00000" pt_clust_8="13000.00000" pt_clust_9="64.15050" pt_clust_10="28.60035"></scales>
<clustering>
<clus scale="   28.600">  2 10  1 -1</clus>
<clus scale="   64.151">  2  9  1 -1</clus>
<clus scale="   67.025">  7  8 -1 -1</clus>
<clus scale="   92.444">  5  6 -1 -1</clus>
<clus scale="  124.546">  1  7  2 -1</clus>
<clus scale="   28.600">  2  5  1 -1</clus>
</clustering>
</event>
<event>
10    2  0.3984345E-006  0.1166067E+03  0.7546771E-02  0.1248963E+00
          1   -1    0    0  503    0 -0.00000000000E+00  0.00000000000E+00  0.62446273907E+03  0.62446273907E+03  0.00000000000E+00 0. -1.
         21   -1    0    0  501  502  0.00000000000E+00 -0.00000000000E+00 -0.17179823592E+03  0.17179823592E+03  0.00000000000E+00 0.  1.
         23    2    1    2    0    0 -0.97835790524E+02  0.61308040936E+02  0.33907754801E+03  0.36922794183E+03  0.89583322520E+02 0.  0.
         23    2    1    2    0    0 -0.31296363305E+02 -0.75141892410E+02 -0.57601364575E+02  0.13372233665E+03  0.89095340890E+02 0.  0.
        -11    1    3    3    0    0 -0.65025504939E+02  0.83515575928E+02  0.26177575878E+03  0.28236450839E+03  0.00000000000E+00 0. -1.
         11    1    3    3    0    0 -0.32810285584E+02 -0.22207534992E+02  0.77301789228E+02  0.86863433436E+02  0.00000000000E+00 0.  1.
        -13    1    4    4    0    0  0.30009217465E+02 -0.27279224826E+02 -0.76037144331E+01  0.41261673659E+02  0.00000000000E+00 0. -1.
         13    1    4    4    0    0 -0.61305580770E+02 -0.47862667584E+02 -0.49997650142E+02  0.92460662995E+02  0.00000000000E+00 0.  1.
         21    1    1    2  503  502  0.10299866017E+03  0.15208083640E+02  0.21692473298E+03  0.24061660288E+03  0.00000000000E+00 0. -1.
          1    1    1    2  501    0  0.26133493654E+02 -0.13742321658E+01 -0.45736413257E+02  0.52694093618E+02  0.00000000000E+00 0. -1.
<scales pt_clust_5="13000.00000" pt_clust_6="13000.00000" pt_clust_7="13000.00000" pt_clust_8="13000.00000" pt_clust_9="106.59549" pt_clust_10="26.16960"></scales>
<clustering>
<clus scale="   26.170">  2 10  1 -1</clus>
<clus scale="   89.095">  7  8 -1 -1</clus>
<clus scale="   89.583">  5  6 -1 -1</clus>
<clus scale="  106.595">  1  9  2 -1</clus>
<clus scale="  116.232">  2  7  1 -1</clus>
<clus scale="   26.170">  2  5  1 -1</clus>
</clustering>
</event>
<event>
10    2  0.3984345E-006  0.1763351E+03  0.7546771E-02  0.1171521E+00
          1   -1    0    0  503    0 -0.00000000000E+00  0.00000000000E+00  0.75451646134E+03  0.75451646134E+03  0.00000000000E+00 0. -1.
         21   -1    0    0  501  502  0.00000000000E+00 -0.00000000000E+00 -0.14228670665E+03  0.14228670665E+03  0.00000000000E+00 0. -1.
         23    2    1    2    0    0  0.57480001431E+02 -0.13472283394E+03  0.54377542272E+03  0.57063506394E+03  0.92078625564E+02 0.  0.
         23    2    1    2    0    0 -0.60591748736E+02  0.16249199280E+03  0.43603703609E+02  0.20069849118E+03  0.91124056386E+02 0.  0.
        -11    1    3    3    0    0  0.31023263573E+02 -0.41656968892E+02  0.70477343844E+02  0.87548854564E+02  0.00000000000E+00 0.  1.
         11    1    3    3    0    0  0.26456737858E+02 -0.93065865048E+02  0.47329807888E+03  0.48308620937E+03  0.00000000000E+00 0. -1.
        -11    1    4    4    0    0  0.18101208471E+02  0.17048245760E+02 -0.10086291346E+02  0.26833369239E+02  0.00000000000E+00 0.  1.
         11    1    4    4    0    0 -0.78692957207E+02  0.14544374704E+03  0.53689994956E+02  0.17386512194E+03  0.00000000000E+00 0. -1.
         21    1    1    2  503  502 -0.28154401067E+02 -0.50066589919E+02  0.52762681600E+02  0.77995091482E+02  0.00000000000E+00 0. -1.
          1    1    1    2  501    0  0.31266148372E+02  0.22297431057E+02 -0.27912053246E+02  0.47474521400E+02  0.00000000000E+00 0. -1.
<scales pt_clust_5="13000.00000" pt_clust_6="13000.00000" pt_clust_7="13000.00000" pt_clust_8="13000.00000" pt_clust_9="53.28336" pt_clust_10="38.40244"></scales>
<clustering>
<clus scale="   38.402">  2 10  1 -1</clus>
<clus scale="   53.283">  2  9  1 -1</clus>
<clus scale="   91.124">  7  8 -1 -1</clus>
<clus scale="   92.079">  5  6 -1 -1</clus>
<clus scale="  175.838">  2  7  1 -1</clus>
<clus scale="   38.402">  2  5  1 -1</clus>
</clustering>
</event>
<event>
10    2  0.3984345E-006  0.1691670E+03  0.7546771E-02  0.1179169E+00
         21   -1    0    0  501  502  0.00000000000E+00  0.00000000000E+00  0.45869630748E+03  0.45869630748E+03  0.00000000000E+00 0. -1.
          2   -1    0    0  503    0 -0.00000000000E+00 -0.00000000000E+00 -0.33211224033E+03  0.33211224033E+03  0.00000000000E+00 0. -1.
         23    2    1    2    0    0 -0.22739362800E+02  0.16704480676E+03 -0.71013625507E+02  0.20368737244E+03  0.89579934131E+02 0.  0.
         23    2    1    2    0    0  0.86889301929E+01 -0.81872656846E+02  0.13098642383E+03  0.18037430042E+03  0.92729798750E+02 0.  0.
        -13    1    4    4    0    0 -0.12139912273E+02 -0.58314181829E+02  0.16729666333E+02  0.61869241211E+02  0.00000000000E+00 0.  1.
         13    1    4    4    0    0  0.20828842466E+02 -0.23558475017E+02  0.11425675750E+03  0.11850505921E+03  0.00000000000E+00 0. -1.
        -13    1    3    3    0    0 -0.27428632665E+02  0.43034261272E+01 -0.61760087815E+01  0.28442792598E+02  0.00000000000E+00 0.  1.
         13    1    3    3    0    0  0.46892698656E+01  0.16274138063E+03 -0.64837616726E+02  0.17524457984E+03  0.00000000000E+00 0. -1.
         21    1    1    2  503  502  0.20561806540E+02 -0.12083267763E+01 -0.16190313154E+03  0.16320806335E+03  0.00000000000E+00 0. -1.
          2    1    1    2  501    0 -0.65113739332E+01 -0.83963823137E+02  0.22851440035E+03  0.24353881160E+03  0.00000000000E+00 0. -1.
<scales pt_clust_5="13000.00000" pt_clust_6="13000.00000" pt_clust_7="13000.00000" pt_clust_8="13000.00000" pt_clust_9="20.59728" pt_clust_10="84.20380"></scales>
<clustering>
<clus scale="   20.597">  2  9  1 -1</clus>
<clus scale="   84.204">  1 10  2 -1</clus>
<clus scale="   89.580">  7  8 -1 -1</clus>
<clus scale="   92.730">  5  6 -1 -1</clus>
<clus scale="  167.461">  2  7  1 -1</clus>
<clus scale="   84.204">  1  5  2 -1</clus>
</clustering>
</event>
<event>
10    2  0.3984345E-006  0.9475898E+02  0.7546771E-02  0.1295092E+00
         -1   -1    0    0    0  501 -0.00000000000E+00  0.00000000000E+00  0.79076563256E+03  0.79076563256E+03  0.00000000000E+00 0.  1.
         21   -1    0    0  503  502  0.00000000000E+00 -0.00000000000E+00 -0.26716818386E+02  0.26716818386E+02  0.00000000000E+00 0.  1.
         23    2    1    2    0    0  0.46735693864E+01  0.48055742944E+01  0.32239398461E+03  0.33516490469E+03  0.91393086350E+02 0.  0.
         23    2    1    2    0    0 -0.36309602855E+02 -0.34025048474E+02  0.26725674868E+03  0.28494714880E+03  0.85396819098E+02 0.  0.
        -13    1    4    4    0    0  0.15946919566E+02 -0.13374460589E+02  0.12963382510E+02  0.24519986252E+02  0.00000000000E+00 0. -1.
         13    1    4    4    0    0 -0.52256522422E+02 -0.20650587885E+02  0.25429336617E+03  0.26042716255E+03  0.00000000000E+00 0.  1.
        -13    1    3    3    0    0 -0.80999316157E+01  0.46029012711E+02  0.13484766973E+03  0.14271710807E+03  0.00000000000E+00 0. -1.
         13    1    3    3    0    0  0.12773501002E+02 -0.41223438416E+02  0.18754631487E+03  0.19244779663E+03  0.00000000000E+00 0.  1.
         21    1    1    2  503  501  0.13975096453E+02 -0.19228376417E+02  0.12032670498E+03  0.12265214923E+03  0.00000000000E+00 0. -1.
         -1    1    1    2    0  502  0.17660937016E+02  0.48447850597E+02  0.54071375905E+02  0.74718248213E+02  0.00000000000E+00 0.  1.
<scales pt_clust_5="13000.00000" pt_clust_6="13000.00000" pt_clust_7="13000.00000" pt_clust_8="13000.00000" pt_clust_9="23.77044" pt_clust_10="50.32459"></scales>
<clustering>
<clus scale="   23.770">  1  9  2 -1</clus>
<clus scale="   50.325">  2 10  1 -1</clus>
<clus scale="   85.397">  5  6 -1 -1</clus>
<clus scale="   88.990">  2  5  1 -1</clus>
<clus scale="   91.393">  7  8 -1 -1</clus>
<clus scale="   50.325">  2  5  1 -1</clus>
</clustering>
</event>
<event>
10    2  0.3984345E-006  0.1087246E+03  0.7546771E-02  0.1276487E+00
         21   -1    0    0  501  502  0.00000000000E+00  0.00000000000E+00  0.29237495921E+03  0.29237495921E+03  0.00000000000E+00 0. -1.
          2   -1    0    0  503    0 -0.00000000000E+00 -0.00000000000E+00 -0.11487772314E+03  0.11487772314E+03  0.00000000000E+00 0. -1.
         23    2    1    2    0    0 -0.54727865921E+01 -0.28719532573E+02  0.97605186771E+01  0.88158262209E+02  0.82594482422E+02 0.  0.
         23    2    1    2    0    0  0.25438737755E+02 -0.25909758377E+02  0.38046327129E+02  0.12003333667E+03  0.10789825738E+03 0.  0.
        -11    1    4    4    0    0  0.33237617819E+02  0.27153678178E+02  0.49161319568E+02  0.65260223862E+02  0.00000000000E+00 0. -1.
         11    1    4    4    0    0 -0.77988800638E+01 -0.53063436555E+02 -0.11114992438E+02  0.54773112803E+02  0.00000000000E+00 0.  1.
        -11    1    3    3    0    0 -0.39595187188E+02 -0.16812865177E+02  0.24064404464E+02  0.49290433617E+02  0.00000000000E+00 0.  1.
         11    1    3    3    0    0  0.34122400596E+02 -0.11906667396E+02 -0.14303885787E+02  0.38867828593E+02  0.00000000000E+00 0. -1.
         21    1    1    2  503  502  0.17862484852E+01  0.46833822111E+02 -0.17529547684E+02  0.50038811129E+02  0.00000000000E+00 0. -1.
          2    1    1    2  501    0 -0.21752199649E+02  0.77954688390E+01  0.14721993795E+03  0.14902227234E+03  0.00000000000E+00 0. -1.
<scales pt_clust_5="13000.00000" pt_clust_6="13000.00000" pt_clust_7="13000.00000" pt_clust_8="13000.00000" pt_clust_9="47.71685" pt_clust_10="23.10687"></scales>
<clustering>
<clus scale="   23.107">  1 10  2 -1</clus>
<clus scale="   47.717">  2  9  1 -1</clus>
<clus scale="   82.594">  7  8 -1 -1</clus>
<clus scale="   83.671">  2  7  1 -1</clus>
<clus scale="  107.898">  5  6 -1 -1</clus>
<clus scale="   23.107">  1  5  2 -1</clus>
</clustering>
</event>
<event>
10    2  0.3984345E-006  0.1299167E+03  0.7546771E-02  0.1231679E+00
          2   -1    0    0  503    0 -0.00000000000E+00  0.00000000000E+00  0.31499506745E+02  0.31499506745E+02  0.00000000000E+00 0. -1.
         21   -1    0    0  501  502  0.00000000000E+00 -0.00000000000E+00 -0.12013322942E+04  0.12013322942E+04  0.00000000000E+00 0. -1.
         23    2    1    2    0    0 -0.94957092002E+02  0.20699440801E+02 -0.20484940616E+03  0.24754759589E+03  0.99353997674E+02 0.  0.
         23    2    1    2    0    0  0.52606220244E+02  0.16213898330E+02 -0.52359286864E+03  0.53331119967E+03  0.85094292962E+02 0.  0.
        -11    1    3    3    0    0 -0.72507253286E+02 -0.32186915349E+02 -0.13995155679E+03  0.16087180470E+03  0.00000000000E+00 0.  1.
         11    1    3    3    0    0 -0.22449838715E+02  0.52886356150E+02 -0.64897849372E+02  0.86675791189E+02  0.00000000000E+00 0. -1.
        -11    1    4    4    0    0 -0.17680393881E+02  0.24094849138E+02 -0.12772732355E+03  0.13117708361E+03  0.00000000000E+00 0. -1.
         11    1    4    4    0    0  0.70286614125E+02 -0.78809508078E+01 -0.39586554509E+03  0.40213411606E+03  0.00000000000E+00 0.  1.
         21    1    1    2  503  502 -0.71784026235E+01 -0.28463972786E+02 -0.55130578561E+02  0.62458849681E+02  0.00000000000E+00 0. -1.
          2    1    1    2  501    0  0.49529274381E+02 -0.84493663448E+01 -0.38625993407E+03  0.38951415568E+03  0.00000000000E+00 0. -1.
<scales pt_clust_5="13000.00000" pt_clust_6="13000.00000" pt_clust_7="13000.00000" pt_clust_8="13000.00000" pt_clust_9="29.35519" pt_clust_10="50.14017"></scales>
<clustering>
<clus scale="   29.355">  1  9  2 -1</clus>
<clus scale="   50.140">  2 10  1 -1</clus>
<clus scale="   85.094">  7  8 -1 -1</clus>
<clus scale="   99.354">  5  6 -1 -1</clus>
<clus scale="  119.366">  2  7  1 -1</clus>
<clus scale="   50.140">  2  5  1 -1</clus>
</clustering>
</event>
<event>
10    2  0.3984345E-006  0.1080048E+03  0.7546771E-02  0.1266593E+00
         21   -1    0    0  503  502  0.00000000000E+00  0.00000000000E+00  0.53513690105E+02  0.53513690105E+02  0.00000000000E+00 0. -1.
         -2   -1    0    0    0  501 -0.00000000000E+00 -0.00000000000E+00 -0.61479451782E+03  0.61479451782E+03  0.00000000000E+00 0.  1.
         23    2    1    2    0    0 -0.44417418736E+02  0.98811934101E+00 -0.36157867573E+03  0.37530817470E+03  0.90239701831E+02 0.  0.
         23    2    1    2    0    0  0.76711819689E+02 -0.39852564895E+02 -0.68371987308E+02  0.14588957728E+03  0.95583000074E+02 0.  0.
        -11    1    4    4    0    0 -0.35914658301E+01 -0.46513011018E+02 -0.36510937164E+02  0.59240251125E+02  0.00000000000E+00 0.  1.
         11    1    4    4    0    0  0.80303285519E+02  0.66604461229E+01 -0.31861050144E+02  0.86649326160E+02  0.00000000000E+00 0. -1.
        -13    1    3    3    0    0 -0.56452794150E+02 -0.23493054452E+02 -0.31851545020E+03  0.32433151803E+03  0.00000000000E+00 0.  1.
         13    1    3    3    0    0  0.12035375414E+02  0.24481173793E+02 -0.43063225532E+02  0.50976656666E+02  0.00000000000E+00 0. -1.
         21    1    1    2  503  501  0.73378157625E+01  0.21700971063E+02 -0.50919017239E+02  0.55834774127E+02  0.00000000000E+00 0. -1.
         -2    1    1    2    0  502 -0.39632216715E+02  0.17163474491E+02 -0.80411147438E+02  0.91275681815E+02  0.00000000000E+00 0.  1.
<scales pt_clust_5="13000.00000" pt_clust_6="13000.00000" pt_clust_7="13000.00000" pt_clust_8="13000.00000" pt_clust_9="22.90798" pt_clust_10="43.61809"></scales>
<clustering>
<clus scale="   22.908">  2  9  1 -1</clus>
<clus scale="   43.618">  1 10  2 -1</clus>
<clus scale="   90.240">  7  8 -1 -1</clus>
<clus scale="   95.583">  5  6 -1 -1</clus>
<clus scale="  103.306">  2  7  1 -1</clus>
<clus scale="   43.618">  1  5  2 -1</clus>
</clustering>
</event>
<event>
10    2  0.3984345E-006  0.1024827E+03  0.7546771E-02  0.1275368E+00
          2   -1    0    0  503    0 -0.00000000000E+00  0.00000000000E+00  0.31676799360E+03  0.31676799360E+03  0.00000000000E+00 0. -1.
         21   -1    0    0  501  502  0.00000000000E+00 -0.00000000000E+00 -0.23769331029E+03  0.23769331029E+03  0.00000000000E+00 0.  1.
         23    2    1    2    0    0 -0.54995556801E+02 -0.38700326217E+02  0.75393075438E+02  0.13660156447E+03  0.91943706012E+02 0.  0.
         23    2    1    2    0    0  0.25276723901E+02  0.17249601121E+02 -0.16985002590E+03  0.19533507080E+03  0.91489327667E+02 0.  0.
        -11    1    3    3    0    0 -0.75795010551E+02 -0.14100038426E+02  0.34286527273E+02  0.84375711318E+02  0.00000000000E+00 0. -1.
         11    1    3    3    0    0  0.20799453749E+02 -0.24600287791E+02  0.41106548166E+02  0.52225853155E+02  0.00000000000E+00 0.  1.
        -13    1    4    4    0    0  0.44664246573E+02 -0.10557019077E+02 -0.14812633280E+03  0.15507338922E+03  0.00000000000E+00 0.  1.
         13    1    4    4    0    0 -0.19387522672E+02  0.27806620198E+02 -0.21723693097E+02  0.40261681584E+02  0.00000000000E+00 0. -1.
         21    1    1    2  503  502  0.30870788399E+02  0.95280558711E+00  0.19226626758E+03  0.19473117640E+03  0.00000000000E+00 0. -1.
          2    1    1    2  501    0 -0.11519554982E+01  0.20497919509E+02 -0.18734633804E+02  0.27793492214E+02  0.00000000000E+00 0. -1.
<scales pt_clust_5="13000.00000" pt_clust_6="13000.00000" pt_clust_7="13000.00000" pt_clust_8="13000.00000" pt_clust_9="30.88273" pt_clust_10="20.53026"></scales>
<clustering>
<clus scale="   20.530">  2 10  1 -1</clus>
<clus scale="   30.883">  1  9  2 -1</clus>
<clus scale="   91.489">  7  8 -1 -1</clus>
<clus scale="   91.944">  5  6 -1 -1</clus>
<clus scale="  102.075">  2  7  1 -1</clus>
<clus scale="   20.530">  2  5  1 -1</clus>
</clustering>
</event>
<event>
10    2  0.3984345E-006  0.2198806E+03  0.7546771E-02  0.1148257E+00
         21   -1    0    0  501  502  0.00000000000E+00  0.00000000000E+00  0.26291742926E+03  0.26291742926E+03  0.00000000000E+00 0. -1.
          2   -1    0    0  503    0 -0.00000000000E+00 -0.00000000000E+00 -0.10932261925E+04  0.10932261925E+04  0.00000000000E+00 0. -1.
         23    2    1    2    0    0  0.41323001955E+02 -0.11677214512E+03 -0.71591228036E+03  0.73380003866E+03  0.10290179395E+03 0.  0.
         23    2    1    2    0    0  0.12878166328E+03 -0.12686934816E+03  0.54617522240E+02  0.19837059805E+03  0.60722912777E+02 0.  0.
        -11    1    4    4    0    0  0.78674144281E+02 -0.40750692612E+02  0.98747096594E+01  0.89150153212E+02  0.00000000000E+00 0. -1.
         11    1    4    4    0    0  0.50107518999E+02 -0.86118655546E+02  0.44742812581E+02  0.10922044484E+03  0.00000000000E+00 0.  1.
        -13    1    3    3    0    0 -0.28596713199E+02 -0.48731433874E+01 -0.12046965764E+03  0.12391310642E+03  0.00000000000E+00 0.  1.
         13    1    3    3    0    0  0.69919715155E+02 -0.11189900173E+03 -0.59544262273E+03  0.60988693224E+03  0.00000000000E+00 0. -1.
         21    1    1    2  503  502 -0.20308109245E+02  0.33784744788E+01 -0.13756497354E+03  0.13909692785E+03  0.00000000000E+00 0.  1.
          2    1    1    2  501    0 -0.14979655599E+03  0.24026301880E+03 -0.31449031603E+02  0.28487605722E+03  0.00000000000E+00 0. -1.
<scales pt_clust_5="13000.00000" pt_clust_6="13000.00000" pt_clust_7="13000.00000" pt_clust_8="13000.00000" pt_clust_9="20.58721" pt_clust_10="211.32971"></scales>
<clustering>
<clus scale="   20.587">  2  9  1 -1</clus>
<clus scale="   60.723">  5  6 -1 -1</clus>
<clus scale="  102.902">  7  8 -1 -1</clus>
<clus scale="  155.895">  2  7  1 -1</clus>
<clus scale="  211.330">  1 10  2 -1</clus>
<clus scale="  211.330">  1  5  2 -1</clus>
</clustering>
</event>
<event>
10    2  0.3984345E-006  0.9150581E+02  0.7546771E-02  0.1300792E+00
          1   -1    0    0  503    0 -0.00000000000E+00  0.00000000000E+00  0.39755837063E+03  0.39755837063E+03  0.00000000000E+00 0. -1.
         21   -1    0    0  501  502  0.00000000000E+00 -0.00000000000E+00 -0.17386694332E+03  0.17386694332E+03  0.00000000000E+00 0.  1.
         23    2    1    2    0    0  0.17757905558E+02 -0.19631099358E+02  0.21616487897E+03  0.23554641936E+03  0.89744846658E+02 0.  0.
         23    2    1    2    0    0 -0.12928260631E+02  0.22226996566E+02 -0.13932435963E+03  0.16632018350E+03  0.87120301606E+02 0.  0.
        -11    1    4    4    0    0  0.18437079851E+01 -0.31503918528E+02 -0.29651717624E+02  0.43302661579E+02  0.00000000000E+00 0.  1.
         11    1    4    4    0    0 -0.14771968616E+02  0.53730915094E+02 -0.10967264201E+03  0.12301752192E+03  0.00000000000E+00 0. -1.
        -13    1    3    3    0    0  0.26772325836E+02  0.29699290064E+02  0.65342974714E+02  0.76606198218E+02  0.00000000000E+00 0. -1.
         13    1    3    3    0    0 -0.90144202780E+01 -0.49330389422E+02  0.15082190426E+03  0.15894022114E+03  0.00000000000E+00 0.  1.
         21    1    1    2  503  502  0.51671097194E+00  0.24619993530E+02  0.13838565062E+03  0.14055959366E+03  0.00000000000E+00 0. -1.
          1    1    1    2  501    0 -0.53463558995E+01 -0.27215890738E+02  0.84652573461E+01  0.28999117435E+02  0.00000000000E+00 0. -1.
<scales pt_clust_5="13000.00000" pt_clust_6="13000.00000" pt_clust_7="13000.00000" pt_clust_8="13000.00000" pt_clust_9="24.62542" pt_clust_10="25.97721"></scales>
<clustering>
<clus scale="   24.625">  1  9  2 -1</clus>
<clus scale="   25.977">  2 10  1 -1</clus>
<clus scale="   87.120">  5  6 -1 -1</clus>
<clus scale="   88.933">  2  5  1 -1</clus>
<clus scale="   89.745">  7  8 -1 -1</clus>
<clus scale="   25.977">  2  5  1 -1</clus>
</clustering>
</event>
<event>
10    2  0.3984345E-006  0.1452789E+03  0.7546771E-02  0.1218895E+00
         21   -1    0    0  501  502  0.00000000000E+00  0.00000000000E+00  0.36543118222E+03  0.36543118222E+03  0.00000000000E+00 0. -1.
          2   -1    0    0  503    0 -0.00000000000E+00 -0.00000000000E+00 -0.34949739653E+03  0.34949739653E+03  0.00000000000E+00 0. -1.
         23    2    1    2    0    0 -0.10123896204E+02  0.72379706083E+02  0.11617354458E+03  0.16373808519E+03  0.89289153615E+02 0.  0.
         23    2    1    2    0    0 -0.16702261717E+03 -0.23019632738E+02 -0.21370440339E+03  0.28718351649E+03  0.91533283424E+02 0.  0.
        -13    1    4    4    0    0 -0.11424536095E+03 -0.12933594513E+02 -0.20163557146E+03  0.23211243837E+03  0.00000000000E+00 0. -1.
         13    1    4    4    0    0 -0.52777256220E+02 -0.10086038225E+02 -0.12068831932E+02  0.55071078121E+02  0.00000000000E+00 0.  1.
        -13    1    3    3    0    0 -0.42504506036E+02  0.53276014599E+02  0.10376824295E+03  0.12414835887E+03  0.00000000000E+00 0.  1.
         13    1    3    3    0    0  0.32380609832E+02  0.19103691484E+02  0.12405301631E+02  0.39589726318E+02  0.00000000000E+00 0. -1.
         21    1    1    2  503  502  0.71701046010E+02 -0.73680524217E+02 -0.57904933371E+01  0.10297276077E+03  0.00000000000E+00 0. -1.
          2    1    1    2  501    0  0.10544546737E+03  0.24320450873E+02  0.11925513784E+03  0.16103421630E+03  0.00000000000E+00 0. -1.
<scales pt_clust_5="13000.00000" pt_clust_6="13000.00000" pt_clust_7="13000.00000" pt_clust_8="13000.00000" pt_clust_9="102.80982" pt_clust_10="112.81676"></scales>
<clustering>
<clus scale="   89.289">  7  8 -1 -1</clus>
<clus scale="   91.533">  5  6 -1 -1</clus>
<clus scale="  102.810">  2  9  1 -1</clus>
<clus scale="  111.382">  2  7  1 -1</clus>
<clus scale="  112.817">  1 10  2 -1</clus>
<clus scale="  112.817">  1  5  2 -1</clus>
</clustering>
</event>
<event>
10    2  0.3984345E-006  0.1138049E+03  0.7546771E-02  0.1258951E+00
         -1   -1    0    0    0  501 -0.00000000000E+00  0.00000000000E+00  0.63795594396E+03  0.63795594396E+03  0.00000000000E+00 0.  1.
         21   -1    0    0  503  502  0.00000000000E+00 -0.00000000000E+00 -0.42982332745E+02  0.42982332745E+02  0.00000000000E+00 0.  1.
         23    2    1    2    0    0  0.20869258924E+02 -0.55218930133E+02  0.33150175029E+03  0.34927375572E+03  0.92812120851E+02 0.  0.
         23    2    1    2    0    0 -0.29354170750E+02  0.69681242677E+02  0.22233232856E+03  0.24764206890E+03  0.78598899765E+02 0.  0.
        -13    1    4    4    0    0  0.61701563276E+01  0.65428200573E+02  0.18314359739E+03  0.19457774160E+03  0.00000000000E+00 0.  1.
         13    1    4    4    0    0 -0.35524327077E+02  0.42530421043E+01  0.39188731166E+02  0.53064327300E+02  0.00000000000E+00 0. -1.
        -13    1    3    3    0    0  0.82850880197E+01 -0.80182553034E+02  0.21943104416E+03  0.23376883376E+03  0.00000000000E+00 0.  1.
         13    1    3    3    0    0  0.12584170905E+02  0.24963622900E+02  0.11207070612E+03  0.11550492196E+03  0.00000000000E+00 0. -1.
         21    1    1    2  503  501  0.23203213258E+02 -0.28507881960E+02  0.49812561431E+02  0.61906217100E+02  0.00000000000E+00 0.  1.
         -1    1    1    2    0  502 -0.14718301432E+02  0.14045569416E+02 -0.86730290576E+01  0.22116234994E+02  0.00000000000E+00 0.  1.
<scales pt_clust_5="13000.00000" pt_clust_6="13000.00000" pt_clust_7="13000.00000" pt_clust_8="13000.00000" pt_clust_9="32.33785" pt_clust_10="20.34469"></scales>
<clustering>
<clus scale="   20.345">  2 10  1 -1</clus>
<clus scale="   32.338">  2  9  1 -1</clus>
<clus scale="   78.599">  5  6 -1 -1</clus>
<clus scale="   92.812">  7  8 -1 -1</clus>
<clus scale="  102.544">  2  5  1 -1</clus>
<clus scale="   20.345">  2  5  1 -1</clus>
</clustering>
</event>
<event>
10    2  0.3984345E-006  0.1137845E+03  0.7546771E-02  0.1257253E+00
         21   -1    0    0  501  502  0.00000000000E+00  0.00000000000E+00  0.10448708819E+03  0.10448708819E+03  0.00000000000E+00 0. -1.
          2   -1    0    0  503    0 -0.00000000000E+00 -0.00000000000E+00 -0.51029518088E+03  0.51029518088E+03  0.00000000000E+00 0. -1.
         23    2    1    2    0    0 -0.17344852650E+02  0.84981459644E+02 -0.16418823482E+03  0.20523201104E+03  0.87405431778E+02 0.  0.
         23    2    1    2    0    0  0.32249417092E+02 -0.25649955331E+02 -0.13083982235E+03  0.16777371798E+03  0.96597185371E+02 0.  0.
        -11    1    3    3    0    0 -0.24537715474E+02  0.62369553167E+02 -0.16829593343E+03  0.18115071585E+03  0.00000000000E+00 0. -1.
         11    1    3    3    0    0  0.71928628237E+01  0.22611906477E+02  0.41076986100E+01  0.24081295190E+02  0.00000000000E+00 0.  1.
        -11    1    4    4    0    0 -0.31942269582E+02 -0.20411024573E+02 -0.31027240653E+02  0.48985795622E+02  0.00000000000E+00 0. -1.
         11    1    4    4    0    0  0.64191686674E+02 -0.52389307576E+01 -0.99812581696E+02  0.11878792236E+03  0.00000000000E+00 0.  1.
         21    1    1    2  503  502  0.10432339427E+02 -0.17761033092E+02 -0.16650888139E+03  0.16777811414E+03  0.00000000000E+00 0. -1.
          2    1    1    2  501    0 -0.25336903869E+02 -0.41570471221E+02  0.55728845867E+02  0.73998425908E+02  0.00000000000E+00 0. -1.
<scales pt_clust_5="13000.00000" pt_clust_6="13000.00000" pt_clust_7="13000.00000" pt_clust_8="13000.00000" pt_clust_9="20.59825" pt_clust_10="48.94487"></scales>
<clustering>
<clus scale="   20.598">  2  9  1 -1</clus>
<clus scale="   48.945">  1 10  2 -1</clus>
<clus scale="   87.405">  5  6 -1 -1</clus>
<clus scale="   96.597">  7  8 -1 -1</clus>
<clus scale="  106.092">  2  5  1 -1</clus>
<clus scale="   48.945">  1  5  2 -1</clus>
</clustering>
</event>
<event>
10    2  0.3984345E-006  0.1034832E+03  0.7546771E-02  0.1274111E+00
         21   -1    0    0  503  502  0.00000000000E+00  0.00000000000E+00  0.59653721858E+03  0.59653721858E+03  0.00000000000E+00 0. -1.
         -1   -1    0    0    0  501 -0.00000000000E+00 -0.00000000000E+00 -0.82563537129E+02  0.82563537129E+02  0.00000000000E+00 0.  1.
         23    2    1    2    0    0 -0.71619703402E+01  0.18554412037E+01 -0.13768363695E+01  0.91726767549E+02  0.91417546048E+02 0.  0.
         23    2    1    2    0    0 -0.36271855696E+02  0.46733297623E+02  0.37488926062E+03  0.39088678182E+03  0.93546084134E+02 0.  0.
        -11    1    3    3    0    0  0.50567819359E+01 -0.43810965999E+02  0.32887011744E+01  0.44224284514E+02  0.00000000000E+00 0.  1.
         11    1    3    3    0    0 -0.12218752276E+02  0.45666407203E+02 -0.46655375439E+01  0.47502483036E+02  0.00000000000E+00 0. -1.
        -13    1    4    4    0    0 -0.26401811721E+02 -0.19872364870E+02  0.56485464662E+02  0.65441380378E+02  0.00000000000E+00 0.  1.
         13    1    4    4    0    0 -0.98700439747E+01  0.66605662493E+02  0.31840379595E+03  0.32544540145E+03  0.00000000000E+00 0. -1.
         21    1    1    2  503  501  0.68337536991E+02 -0.81687330762E+01  0.27791575107E+02  0.74223438407E+02  0.00000000000E+00 0. -1.
         -1    1    1    2    0  502 -0.24903710955E+02 -0.40420005751E+02  0.11266968210E+03  0.12226376793E+03  0.00000000000E+00 0.  1.
<scales pt_clust_5="13000.00000" pt_clust_6="13000.00000" pt_clust_7="13000.00000" pt_clust_8="13000.00000" pt_clust_9="66.85962" pt_clust_10="47.47601"></scales>
<clustering>
<clus scale="   47.476">  1 10  2 -1</clus>
<clus scale="   66.860">  2  9  1 -1</clus>
<clus scale="   91.418">  5  6 -1 -1</clus>
<clus scale="   93.546">  7  8 -1 -1</clus>
<clus scale="  101.563">  2  5  1 -1</clus>
<clus scale="   47.476">  1  5  2 -1</clus>
</clustering>
</event>
<event>
10    2  0.3984345E-006  0.9410486E+02  0.7546771E-02  0.1294576E+00
         21   -1    0    0  501  502  0.00000000000E+00  0.00000000000E+00  0.53164474794E+03  0.53164474794E+03  0.00000000000E+00 0. -1.
          2   -1    0    0  503    0 -0.00000000000E+00 -0.00000000000E+00 -0.30340549488E+03  0.30340549488E+03  0.00000000000E+00 0. -1.
         23    2    1    2    0    0 -0.51763841507E+01  0.12277635612E+02 -0.16991702875E+03  0.19237467916E+03  0.89211463583E+02 0.  0.
         23    2    1    2    0    0 -0.22517100776E+02  0.41812496105E+02 -0.42442542239E+01  0.10330827280E+03  0.91647590675E+02 0.  0.
        -13    1    3    3    0    0 -0.35813115527E+02 -0.87620907630E+01 -0.13967605356E+03  0.14446021396E+03  0.00000000000E+00 0. -1.
         13    1    3    3    0    0  0.30636731377E+02  0.21039726375E+02 -0.30240975185E+02  0.47914465201E+02  0.00000000000E+00 0.  1.
        -13    1    4    4    0    0 -0.31773400386E+02  0.62077031090E+02  0.17794830238E+02  0.71970568597E+02  0.00000000000E+00 0. -1.
         13    1    4    4    0    0  0.92562996108E+01 -0.20264534984E+02 -0.22039084462E+02  0.31337704200E+02  0.00000000000E+00 0.  1.
         21    1    1    2  503  502 -0.34965003114E+02 -0.26131289195E+02 -0.58721571386E+02  0.73168426686E+02  0.00000000000E+00 0. -1.
          2    1    1    2  501    0  0.62658488040E+02 -0.27958842522E+02  0.46112210743E+03  0.46619886417E+03  0.00000000000E+00 0. -1.
<scales pt_clust_5="13000.00000" pt_clust_6="13000.00000" pt_clust_7="13000.00000" pt_clust_8="13000.00000" pt_clust_9="43.65084" pt_clust_10="68.38700"></scales>
<clustering>
<clus scale="   43.651">  2  9  1 -1</clus>
<clus scale="   68.387">  1 10  2 -1</clus>
<clus scale="   89.211">  5  6 -1 -1</clus>
<clus scale="   91.648">  7  8 -1 -1</clus>
<clus scale="   91.734">  2  5  1 -1</clus>
<clus scale="   68.387">  1  5  2 -1</clus>
</clustering>
</event>
<event>
10    2  0.3984345E-006  0.9361304E+02  0.7546771E-02  0.1294354E+00
         -3   -1    0    0    0  501 -0.00000000000E+00  0.00000000000E+00  0.87461346703E+02  0.87461346703E+02  0.00000000000E+00 0.  1.
         21   -1    0    0  503  502  0.00000000000E+00 -0.00000000000E+00 -0.82918913111E+03  0.82918913111E+03  0.00000000000E+00 0.  1.
         23    2    1    2    0    0 -0.21069686883E+02 -0.21559170364E+02 -0.14399859194E+03  0.17272314888E+03  0.90492884511E+02 0.  0.
         23    2    1    2    0    0 -0.13301284077E+02  0.47044597928E+02 -0.32169408996E+03  0.33774820548E+03  0.90535321495E+02 0.  0.
        -11    1    4    4    0    0  0.23702793474E+02  0.13674753188E+02 -0.25539644971E+02  0.37431200334E+02  0.00000000000E+00 0.  1.
         11    1    4    4    0    0 -0.37004077552E+02  0.33369844740E+02 -0.29615444499E+03  0.30031700515E+03  0.00000000000E+00 0. -1.
        -13    1    3    3    0    0 -0.38087679439E+02  0.17355353588E+02 -0.31233785386E+02  0.52224792702E+02  0.00000000000E+00 0.  1.
         13    1    3    3    0    0  0.17017992556E+02 -0.38914523952E+02 -0.11276480655E+03  0.12049835618E+03  0.00000000000E+00 0. -1.
         21    1    1    2  503  501  0.33180870099E+02  0.18280136137E+02  0.58006145906E+02  0.69280924363E+02  0.00000000000E+00 0.  1.
         -3    1    1    2    0  502  0.11901008611E+01 -0.43765563701E+02 -0.33404124842E+03  0.33689819909E+03  0.00000000000E+00 0.  1.
<scales pt_clust_5="13000.00000" pt_clust_6="13000.00000" pt_clust_7="13000.00000" pt_clust_8="13000.00000" pt_clust_9="37.88316" pt_clust_10="42.78755"></scales>
<clustering>
<clus scale="   37.883">  1  9  2 -1</clus>
<clus scale="   42.788">  2 10  1 -1</clus>
<clus scale="   90.493">  7  8 -1 -1</clus>
<clus scale="   90.535">  5  6 -1 -1</clus>
<clus scale="   93.572">  1  7  2 -1</clus>
<clus scale="   42.788">  2  5  1 -1</clus>
</clustering>
</event>
<event>
10    2  0.3984345E-006  0.1039612E+03  0.7546771E-02  0.1273407E+00
          1   -1    0    0  503    0 -0.00000000000E+00  0.00000000000E+00  0.21748076915E+03  0.21748076915E+03  0.00000000000E+00 0. -1.
         21   -1    0    0  501  502  0.00000000000E+00 -0.00000000000E+00 -0.39271646562E+03  0.39271646562E+03  0.00000000000E+00 0. -1.
         23    2    1    2    0    0  0.23103120557E+02 -0.26882361990E+02  0.81521186283E+02  0.12775648068E+03  0.91758372794E+02 0.  0.
         23    2    1    2    0    0 -0.39591798748E+02 -0.16893765919E+02 -0.20540540097E+03  0.22795848406E+03  0.88998774461E+02 0.  0.
        -13    1    4    4    0    0 -0.32138180813E+02 -0.52788313724E+02 -0.11881101478E+03  0.13392358255E+03  0.00000000000E+00 0. -1.
         13    1    4    4    0    0 -0.74536179350E+01  0.35894547805E+02 -0.86594386189E+02  0.94034901510E+02  0.00000000000E+00 0.  1.
        -13    1    3    3    0    0  0.57243047299E+02 -0.20449300276E+02  0.36546802415E+02  0.70926786989E+02  0.00000000000E+00 0. -1.
         13    1    3    3    0    0 -0.34139926742E+02 -0.64330617137E+01  0.44974383869E+02  0.56829693694E+02  0.00000000000E+00 0.  1.
         21    1    1    2  503  502  0.19650619339E+02 -0.86094401079E+01  0.95841425568E+02  0.98213278910E+02  0.00000000000E+00 0. -1.
          1    1    1    2  501    0 -0.31619411476E+01  0.52385568016E+02 -0.14719290736E+03  0.15626899112E+03  0.00000000000E+00 0. -1.
<scales pt_clust_5="13000.00000" pt_clust_6="13000.00000" pt_clust_7="13000.00000" pt_clust_8="13000.00000" pt_clust_9="21.45389" pt_clust_10="52.11750"></scales>
<clustering>
<clus scale="   21.454">  1  9  2 -1</clus>
<clus scale="   52.118">  2 10  1 -1</clus>
<clus scale="   88.999">  5  6 -1 -1</clus>
<clus scale="   91.758">  7  8 -1 -1</clus>
<clus scale="  101.534">  2  5  1 -1</clus>
<clus scale="   52.118">  2  5  1 -1</clus>
</clustering>
</event>
<event>
10    2  0.3984345E-006  0.9316463E+02  0.7546771E-02  0.1297509E+00
         -1   -1    0    0    0  501 -0.00000000000E+00  0.00000000000E+00  0.20063467887E+03  0.20063467887E+03  0.00000000000E+00 0.  1.
         21   -1    0    0  503  502  0.00000000000E+00 -0.00000000000E+00 -0.21874726296E+03  0.21874726296E+03  0.00000000000E+00 0.  1.
         23    2    1    2    0    0 -0.52201061628E+01  0.75745682008E+01  0.47096875145E+02  0.10014167678E+03  0.87895484463E+02 0.  0.
         23    2    1    2    0    0  0.59490835826E+01 -0.10505450011E+02  0.21275212843E+01  0.92409670822E+02  0.91592930072E+02 0.  0.
        -11    1    3    3    0    0  0.25076987817E+02 -0.29847910710E+02  0.29461242777E+02  0.48864280591E+02  0.00000000000E+00 0. -1.
         11    1    3    3    0    0 -0.30297093980E+02  0.37422478910E+02  0.17635632368E+02  0.51277396194E+02  0.00000000000E+00 0.  1.
        -13    1    4    4    0    0  0.33610357680E+02 -0.14194137781E+02 -0.31857215198E+02  0.48435646490E+02  0.00000000000E+00 0. -1.
         13    1    4    4    0    0 -0.27661274097E+02  0.36886877700E+01  0.33984736483E+02  0.43974024332E+02  0.00000000000E+00 0.  1.
         21    1    1    2  503  501  0.49922875672E+00  0.38678399081E+02  0.72671654610E+02  0.82325191579E+02  0.00000000000E+00 0.  1.
         -1    1    1    2    0  502 -0.12282061765E+01 -0.35747517270E+02 -0.14000863513E+03  0.14450540264E+03  0.00000000000E+00 0.  1.
<scales pt_clust_5="13000.00000" pt_clust_6="13000.00000" pt_clust_7="13000.00000" pt_clust_8="13000.00000" pt_clust_9="36.42506" pt_clust_10="35.76861"></scales>
<clustering>
<clus scale="   35.769">  2 10  1 -1</clus>
<clus scale="   36.425">  1  9  2 -1</clus>
<clus scale="   87.895">  5  6 -1 -1</clus>
<clus scale="   89.532">  1  5  2 -1</clus>
<clus scale="   91.593">  7  8 -1 -1</clus>
<clus scale="   35.769">  2  5  1 -1</clus>
</clustering>
</event>
<event>
10    2  0.3984345E-006  0.1100118E+03  0.7546771E-02  0.1265509E+00
          1   -1    0    0  503    0 -0.00000000000E+00  0.00000000000E+00  0.26400152400E+03  0.26400152400E+03  0.00000000000E+00 0. -1.
         21   -1    0    0  501  502  0.00000000000E+00 -0.00000000000E+00 -0.75568203287E+02  0.75568203287E+02  0.00000000000E+00 0.  1.
         23    2    1    2    0    0  0.18203197703E+02  0.66033293905E+02  0.11055243143E+03  0.15813419163E+03  0.89960158714E+02 0.  0.
         23    2    1    2    0    0 -0.28231021827E+02 -0.62220536428E+02  0.25442604565E+02  0.10617824017E+03  0.77188773871E+02 0.  0.
        -11    1    4    4    0    0  0.30554457295E+01 -0.53312162110E+02 -0.13850812698E+02  0.55166723574E+02  0.00000000000E+00 0.  1.
         11    1    4    4    0    0 -0.31286467557E+02 -0.89083743177E+01  0.39293417263E+02  0.51011516596E+02  0.00000000000E+00 0. -1.
        -13    1    3    3    0    0 -0.17922389314E+02  0.17663107406E+02  0.91395141695E+02  0.94795935184E+02  0.00000000000E+00 0.  1.
         13    1    3    3    0    0  0.36125587017E+02  0.48370186499E+02  0.19157289736E+02  0.63338256443E+02  0.00000000000E+00 0. -1.
         21    1    1    2  503  502  0.16078064950E+02 -0.26174647436E+02  0.27657798488E+02  0.41334854035E+02  0.00000000000E+00 0. -1.
          1    1    1    2  501    0 -0.60502408257E+01  0.22361889959E+02  0.24780486229E+02  0.33922441456E+02  0.00000000000E+00 0. -1.
<scales pt_clust_5="13000.00000" pt_clust_6="13000.00000" pt_clust_7="13000.00000" pt_clust_8="13000.00000" pt_clust_9="28.58495" pt_clust_10="23.16592"></scales>
<clustering>
<clus scale="   23.166">  2 10  1 -1</clus>
<clus scale="   28.585">  1  9  2 -1</clus>
<clus scale="   77.189">  5  6 -1 -1</clus>
<clus scale="   89.960">  7  8 -1 -1</clus>
<clus scale="   99.839">  2  5  1 -1</clus>
<clus scale="   23.166">  2  5  1 -1</clus>
</clustering>
</event>
<event>
10    2  0.3984345E-006  0.1732285E+03  0.7546771E-02  0.1188683E+00
         -2   -1    0    0    0  501 -0.00000000000E+00  0.00000000000E+00  0.51148836180E+03  0.51148836180E+03  0.00000000000E+00 0.  1.
         21   -1    0    0  503  502  0.00000000000E+00 -0.00000000000E+00 -0.20182356487E+03  0.20182356487E+03  0.00000000000E+00 0.  1.
         23    2    1    2    0    0 -0.89444680588E+00  0.89443981800E+02  0.28283227122E+03  0.31033307230E+03  0.91167407565E+02 0.  0.
         23    2    1    2    0    0 -0.13931066133E+03 -0.83783289958E+02 -0.10769492956E+02  0.18670548195E+03  0.91191309755E+02 0.  0.
        -11    1    3    3    0    0 -0.31081622045E+02  0.64922212287E+02  0.98817536755E+02  0.12225328808E+03  0.00000000000E+00 0.  1.
         11    1    3    3    0    0  0.30187175239E+02  0.24521769513E+02  0.18401473446E+03  0.18807978421E+03  0.00000000000E+00 0. -1.
        -13    1    4    4    0    0 -0.10375710325E+03 -0.13595674526E+02  0.10590950023E+02  0.10517864356E+03  0.00000000000E+00 0.  1.
         13    1    4    4    0    0 -0.35553558082E+02 -0.70187615432E+02 -0.21360442979E+02  0.81526838382E+02  0.00000000000E+00 0. -1.
         21    1    1    2  503  501  0.13060584434E+03  0.19129348682E+02  0.88451285645E+02  0.15889445708E+03  0.00000000000E+00 0. -1.
         -2    1    1    2    0  502  0.95992637907E+01 -0.24790040524E+02 -0.50849266979E+02  0.57378915351E+02  0.00000000000E+00 0.  1.
<scales pt_clust_5="13000.00000" pt_clust_6="13000.00000" pt_clust_7="13000.00000" pt_clust_8="13000.00000" pt_clust_9="147.28293" pt_clust_10="26.58368"></scales>
<clustering>
<clus scale="   26.584">  2 10  1 -1</clus>
<clus scale="   91.167">  5  6 -1 -1</clus>
<clus scale="   91.191">  7  8 -1 -1</clus>
<clus scale="  126.112">  1  5  2 -1</clus>
<clus scale="  147.283">  1  9  2 -1</clus>
<clus scale="   26.584">  2  5  1 -1</clus>
</clustering>
</event>
<event>
10    2  0.3984345E-006  0.1037179E+03  0.7546771E-02  0.1273159E+00
         21   -1    0    0  501  502  0.00000000000E+00  0.00000000000E+00  0.23892902501E+03  0.23892902501E+03  0.00000000000E+00 0. -1.
          3   -1    0    0  503    0 -0.00000000000E+00 -0.00000000000E+00 -0.49618101761E+03  0.49618101761E+03  0.00000000000E+00 0. -1.
         23    2    1    2    0    0 -0.21628987504E+02 -0.60738862705E+02 -0.26041293327E+03  0.28271836410E+03  0.89206250020E+02 0.  0.
         23    2    1    2    0    0  0.78603552223E+02  0.54248083816E+02  0.10694977558E+03  0.16827206889E+03  0.88067369958E+02 0.  0.
        -11    1    3    3    0    0 -0.55651253644E+02 -0.34987201867E+02 -0.13314957451E+03  0.14849234162E+03  0.00000000000E+00 0. -1.
         11    1    3    3    0    0  0.34022266140E+02 -0.25751660838E+02 -0.12726335876E+03  0.13422602248E+03  0.00000000000E+00 0.  1.
        -11    1    4    4    0    0  0.96783111703E+02  0.42958704939E+02  0.10033069184E+03  0.14587209729E+03  0.00000000000E+00 0. -1.
         11    1    4    4    0    0 -0.18179559479E+02  0.11289378877E+02  0.66190837397E+01  0.22399971604E+02  0.00000000000E+00 0.  1.
         21    1    1    2  503  502  0.29372948558E+02  0.96743464090E+01 -0.17154834905E+03  0.17431350821E+03  0.00000000000E+00 0.  1.
          3    1    1    2  501    0 -0.86347513277E+02 -0.31835675200E+01  0.67759514135E+02  0.10980610141E+03  0.00000000000E+00 0. -1.
<scales pt_clust_5="13000.00000" pt_clust_6="13000.00000" pt_clust_7="13000.00000" pt_clust_8="13000.00000" pt_clust_9="30.92512" pt_clust_10="84.47581"></scales>
<clustering>
<clus scale="   30.925">  2  9  1 -1</clus>
<clus scale="   84.476">  1 10  2 -1</clus>
<clus scale="   88.067">  7  8 -1 -1</clus>
<clus scale="   89.206">  5  6 -1 -1</clus>
<clus scale="  102.740">  1  7  2 -1</clus>
<clus scale="   84.476">  1  5  2 -1</clus>
</clustering>
</event>
<event>
10    2  0.3984345E-006  0.1595801E+03  0.7546771E-02  0.1189833E+00
          1   -1    0    0  503    0 -0.00000000000E+00  0.00000000000E+00  0.93691235374E+03  0.93691235374E+03  0.00000000000E+00 0. -1.
         21   -1    0    0  501  502  0.00000000000E+00 -0.00000000000E+00 -0.10251490146E+03  0.10251490146E+03  0.00000000000E+00 0.  1.
         23    2    1    2    0    0 -0.23364496685E+02 -0.10001623848E+03  0.28490643689E+03  0.31750198811E+03  0.95324115557E+02 0.  0.
         23    2    1    2    0    0 -0.10035720162E+03  0.15565631466E+03  0.48468183218E+03  0.52684875442E+03  0.91392972236E+02 0.  0.
        -11    1    4    4    0    0 -0.57198107223E+02  0.14844521926E+03  0.33415309296E+03  0.37008903811E+03  0.00000000000E+00 0.  1.
         11    1    4    4    0    0 -0.43159094396E+02  0.72110953925E+01  0.15052873922E+03  0.15675971631E+03  0.00000000000E+00 0. -1.
        -13    1    3    3    0    0 -0.22734456199E+02  0.10374562676E+02  0.26096357516E+02  0.36131799360E+02  0.00000000000E+00 0.  1.
         13    1    3    3    0    0 -0.63004048634E+00 -0.11039080116E+03  0.25881007937E+03  0.28137018875E+03  0.00000000000E+00 0. -1.
         21    1    1    2  503  502  0.84461644352E+02 -0.71733577737E+02  0.92553683265E+02  0.14438026121E+03  0.00000000000E+00 0.  1.
          1    1    1    2  501    0  0.39260053953E+02  0.16093501564E+02 -0.27744500057E+02  0.50696251463E+02  0.00000000000E+00 0. -1.
<scales pt_clust_5="13000.00000" pt_clust_6="13000.00000" pt_clust_7="13000.00000" pt_clust_8="13000.00000" pt_clust_9="119.79621" pt_clust_10="42.43056"></scales>
<clustering>
<clus scale="   42.431">  2 10  1 -1</clus>
<clus scale="   91.393">  5  6 -1 -1</clus>
<clus scale="   95.324">  7  8 -1 -1</clus>
<clus scale="  119.796">  2  9  1 -1</clus>
<clus scale="  157.263">  2  5  1 -1</clus>
<clus scale="   42.431">  2  5  1 -1</clus>
</clustering>
</event>
<event>
10    2  0.3984345E-006  0.3252029E+03  0.7546771E-02  0.1113069E+00
          2   -1    0    0  503    0 -0.00000000000E+00  0.00000000000E+00  0.14987565679E+04  0.14987565679E+04  0.00000000000E+00 0. -1.
         21   -1    0    0  501  502  0.00000000000E+00 -0.00000000000E+00 -0.25986005676E+03  0.25986005676E+03  0.00000000000E+00 0.  1.
         23    2    1    2    0    0  0.70193797445E+02 -0.13117224278E+02  0.40128064927E+03  0.41719217260E+03  0.89016395297E+02 0.  0.
         23    2    1    2    0    0 -0.17269222803E+03 -0.21857087804E+03 -0.19955209666E+02  0.29384457485E+03  0.91381559566E+02 0.  0.
        -11    1    4    4    0    0 -0.43804001724E+02 -0.66183323011E+01  0.47387503104E+01  0.44553884724E+02  0.00000000000E+00 0. -1.
         11    1    4    4    0    0 -0.12888822630E+03 -0.21195254574E+03 -0.24693959977E+02  0.24929069013E+03  0.00000000000E+00 0.  1.
        -13    1    3    3    0    0  0.52055297069E+02  0.34876130334E+02  0.23134551626E+03  0.23968071744E+03  0.00000000000E+00 0. -1.
         13    1    3    3    0    0  0.18138500376E+02 -0.47993354612E+02  0.16993513300E+03  0.17751145516E+03  0.00000000000E+00 0.  1.
         21    1    1    2  503  502  0.10770649564E+03  0.28436423813E+03  0.91811447823E+03  0.96715970980E+03  0.00000000000E+00 0. -1.
          2    1    1    2  501    0 -0.52080650584E+01 -0.52676135809E+02 -0.60543406706E+02  0.80420167378E+02  0.00000000000E+00 0. -1.
<scales pt_clust_5="13000.00000" pt_clust_6="13000.00000" pt_clust_7="13000.00000" pt_clust_8="13000.00000" pt_clust_9="312.09990" pt_clust_10="52.93297"></scales>
<clustering>
<clus scale="   52.933">  2 10  1 -1</clus>
<clus scale="   89.016">  7  8 -1 -1</clus>
<clus scale="   91.382">  5  6 -1 -1</clus>
<clus scale="  114.260">  1  7  2 -1</clus>
<clus scale="  312.100">  1  9  2 -1</clus>
<clus scale="   52.933">  2  5  1 -1</clus>
</clustering>
</event>
<event>
10    2  0.3984345E-006  0.1737497E+03  0.7546771E-02  0.1192390E+00
         -3   -1    0    0    0  501 -0.00000000000E+00  0.00000000000E+00  0.25872835960E+03  0.25872835960E+03  0.00000000000E+00 0.  1.
         21   -1    0    0  503  502  0.00000000000E+00 -0.00000000000E+00 -0.31609215776E+03  0.31609215776E+03  0.00000000000E+00 0. -1.
         23    2    1    2    0    0 -0.67656281137E+02 -0.37040052339E+01  0.10906692764E+03  0.15798251723E+03  0.92042321861E+02 0.  0.
         23    2    1    2    0    0  0.82885520987E+02 -0.11679161620E+03 -0.11484583588E+03  0.21090178868E+03  0.10382536898E+03 0.  0.
        -11    1    4    4    0    0  0.48893304395E+02  0.29789928544E+01 -0.14760210821E+02  0.51159490190E+02  0.00000000000E+00 0.  1.
         11    1    4    4    0    0  0.33992216593E+02 -0.11977060906E+03 -0.10008562506E+03  0.15974229849E+03  0.00000000000E+00 0. -1.
        -13    1    3    3    0    0 -0.56913215119E+02 -0.31831354744E+02  0.10998047107E+03  0.12785950577E+03  0.00000000000E+00 0. -1.
         13    1    3    3    0    0 -0.10743066018E+02  0.28127349510E+02 -0.91354342288E+00  0.30123011461E+02  0.00000000000E+00 0.  1.
         21    1    1    2  503  501  0.11291263793E+01 -0.22933895898E+02  0.31801108678E+02  0.39224342195E+02  0.00000000000E+00 0.  1.
         -3    1    1    2    0  502 -0.16358366230E+02  0.14342951733E+03 -0.83385998602E+02  0.16671186926E+03  0.00000000000E+00 0.  1.
<scales pt_clust_5="13000.00000" pt_clust_6="13000.00000" pt_clust_7="13000.00000" pt_clust_8="13000.00000" pt_clust_9="22.96167" pt_clust_10="139.31715"></scales>
<clustering>
<clus scale="   22.962">  1  9  2 -1</clus>
<clus scale="   92.042">  7  8 -1 -1</clus>
<clus scale="  103.825">  5  6 -1 -1</clus>
<clus scale="  115.160">  1  7  2 -1</clus>
<clus scale="  139.317">  2 10  1 -1</clus>
<clus scale="  139.317">  2  5  1 -1</clus>
</clustering>
</event>
<event>
10    2  0.3984345E-006  0.1473361E+03  0.7546771E-02  0.1203878E+00
         21   -1    0    0  501  502  0.00000000000E+00  0.00000000000E+00  0.16271259173E+03  0.16271259173E+03  0.00000000000E+00 0. -1.
          1   -1    0    0  503    0 -0.00000000000E+00 -0.00000000000E+00 -0.36563884089E+03  0.36563884089E+03  0.00000000000E+00 0. -1.
         23    2    1    2    0    0  0.87944332633E+02  0.54036101105E+02 -0.85823129508E+02  0.16236705041E+03  0.91341905139E+02 0.  0.
         23    2    1    2    0    0 -0.12743607393E+03 -0.43752063346E+01 -0.12062236597E+02  0.15703941458E+03  0.90866852103E+02 0.  0.
        -11    1    3    3    0    0  0.56957865572E+02 -0.12597522157E+02 -0.61969459676E+02  0.85106462431E+02  0.00000000000E+00 0. -1.
         11    1    3    3    0    0  0.30986467062E+02  0.66633623262E+02 -0.23853669833E+02  0.77260587977E+02  0.00000000000E+00 0.  1.
        -11    1    4    4    0    0 -0.42019853423E+02  0.22092176853E+01  0.38945072107E+02  0.57334696004E+02  0.00000000000E+00 0. -1.
         11    1    4    4    0    0 -0.85416220510E+02 -0.65844240199E+01 -0.51007308703E+02  0.99704718580E+02  0.00000000000E+00 0.  1.
         21    1    1    2  503  502  0.32874381065E+02  0.32686141378E+02 -0.11664677303E+03  0.12552122700E+03  0.00000000000E+00 0.  1.
          1    1    1    2  501    0  0.66173602352E+01 -0.82347036149E+02  0.11605889979E+02  0.83423740633E+02  0.00000000000E+00 0. -1.
<scales pt_clust_5="13000.00000" pt_clust_6="13000.00000" pt_clust_7="13000.00000" pt_clust_8="13000.00000" pt_clust_9="46.35848" pt_clust_10="78.38754"></scales>
<clustering>
<clus scale="   46.358">  2  9  1 -1</clus>
<clus scale="   78.388">  1 10  2 -1</clus>
<clus scale="   90.867">  7  8 -1 -1</clus>
<clus scale="   91.342">  5  6 -1 -1</clus>
<clus scale="  147.042">  1  7  2 -1</clus>
<clus scale="   78.388">  1  5  2 -1</clus>
</clustering>
</event>
<event>
10    2  0.3984345E-006  0.1183781E+03  0.7546771E-02  0.1245858E+00
          4   -1    0    0  503    0 -0.00000000000E+00  0.00000000000E+00  0.62026792001E+03  0.62026792001E+03  0.00000000000E+00 0. -1.
         21   -1    0    0  501  502  0.00000000000E+00 -0.00000000000E+00 -0.56080018765E+02  0.56080018765E+02  0.00000000000E+00 0. -1.
         23    2    1    2    0    0  0.72902187433E+02  0.45522306331E+02  0.36029261588E+03  0.38127223443E+03  0.90392136731E+02 0.  0.
         23    2    1    2    0    0 -0.49504054286E+02 -0.28890039674E+02  0.12062757850E+03  0.16137427152E+03  0.90583425807E+02 0.  0.
        -11    1    3    3    0    0  0.58132157487E+02  0.72377620811E+02  0.24572727652E+03  0.26267805800E+03  0.00000000000E+00 0. -1.
         11    1    3    3    0    0  0.14770029947E+02 -0.26855314480E+02  0.11456533936E+03  0.11859417643E+03  0.00000000000E+00 0.  1.
        -11    1    4    4    0    0 -0.57247209675E+02  0.17632553126E+02  0.71427208505E+02  0.93220148360E+02  0.00000000000E+00 0. -1.
         11    1    4    4    0    0  0.77431553888E+01 -0.46522592800E+02  0.49200369991E+02  0.68154123158E+02  0.00000000000E+00 0.  1.
         21    1    1    2  503  502  0.38017439960E+02 -0.16494430497E+02  0.45768271195E+02  0.61742421613E+02  0.00000000000E+00 0. -1.
          4    1    1    2  501    0 -0.61415573107E+02 -0.13783615991E+00  0.37499435669E+02  0.71959011210E+02  0.00000000000E+00 0. -1.
<scales pt_clust_5="13000.00000" pt_clust_6="13000.00000" pt_clust_7="13000.00000" pt_clust_8="13000.00000" pt_clust_9="41.44143" pt_clust_10="48.17646"></scales>
<clustering>
<clus scale="   41.441">  2  9  1 -1</clus>
<clus scale="   48.176">  2 10  1 -1</clus>
<clus scale="   90.392">  5  6 -1 -1</clus>
<clus scale="   90.583">  7  8 -1 -1</clus>
<clus scale="  118.232">  1  5  2 -1</clus>
<clus scale="   41.441">  2  5  1 -1</clus>
</clustering>
</event>
<event>
10    2  0.3984345E-006  0.9200608E+02  0.7546771E-02  0.1300124E+00
         21   -1    0    0  501  502  0.00000000000E+00  0.00000000000E+00  0.87918608091E+02  0.87918608091E+02  0.00000000000E+00 0. -1.
          1   -1    0    0  503    0 -0.00000000000E+00 -0.00000000000E+00 -0.27689984077E+03  0.27689984077E+03  0.00000000000E+00 0. -1.
         23    2    1    2    0    0 -0.75642053949E+01  0.60571799387E+01 -0.15540102131E+03  0.18068825629E+03  0.91678033930E+02 0.  0.
         23    2    1    2    0    0 -0.12089273267E+01  0.32981144324E+02 -0.51013842278E+02  0.10713021810E+03  0.88234087177E+02 0.  0.
        -11    1    4    4    0    0 -0.41884613673E+02  0.21358626469E+01 -0.14530517620E+02  0.44384892859E+02  0.00000000000E+00 0.  1.
         11    1    4    4    0    0  0.40675686347E+02  0.30845281677E+02 -0.36483324658E+02  0.62745325241E+02  0.00000000000E+00 0. -1.
        -11    1    3    3    0    0  0.89603295620E+01 -0.22995112462E+02 -0.32296807556E+01  0.24889627173E+02  0.00000000000E+00 0.  1.
         11    1    3    3    0    0 -0.16524534957E+02  0.29052292401E+02 -0.15217134055E+03  0.15579862912E+03  0.00000000000E+00 0. -1.
         21    1    1    2  503  502 -0.20395341352E+02 -0.57595212261E+01 -0.11515657676E+02  0.24119544053E+02  0.00000000000E+00 0. -1.
          1    1    1    2  501    0  0.29168474074E+02 -0.33278803037E+02  0.28949288585E+02  0.52880430415E+02  0.00000000000E+00 0. -1.
<scales pt_clust_5="13000.00000" pt_clust_6="13000.00000" pt_clust_7="13000.00000" pt_clust_8="13000.00000" pt_clust_9="21.19297" pt_clust_10="40.82729"></scales>
<clustering>
<clus scale="   21.193">  1  9  2 -1</clus>
<clus scale="   40.827">  1 10  2 -1</clus>
<clus scale="   88.234">  5  6 -1 -1</clus>
<clus scale="   88.575">  1  5  2 -1</clus>
<clus scale="   91.678">  7  8 -1 -1</clus>
<clus scale="   21.193">  1  5  2 -1</clus>
</clustering>
</event>
<event>
10    2  0.3984345E-006  0.2803811E+03  0.7546771E-02  0.1127789E+00
         21   -1    0    0  501  502  0.00000000000E+00  0.00000000000E+00  0.19847242159E+03  0.19847242159E+03  0.00000000000E+00 0. -1.
          2   -1    0    0  503    0 -0.00000000000E+00 -0.00000000000E+00 -0.10770536890E+04  0.10770536890E+04  0.00000000000E+00 0. -1.
         23    2    1    2    0    0 -0.13059075480E+02 -0.75237991102E+02 -0.37372869407E+03  0.39197317024E+03  0.90213827452E+02 0.  0.
         23    2    1    2    0    0 -0.21925888299E+03  0.14267996899E+03 -0.24036584662E+03  0.36649629583E+03  0.90065328013E+02 0.  0.
        -11    1    3    3    0    0  0.38137858012E+02 -0.43695059308E+02 -0.18984951918E+03  0.19851094266E+03  0.00000000000E+00 0.  1.
         11    1    3    3    0    0 -0.51196933492E+02 -0.31542931794E+02 -0.18387917489E+03  0.19346222759E+03  0.00000000000E+00 0. -1.
        -11    1    4    4    0    0 -0.15816400299E+03  0.14629867842E+03 -0.18863063387E+03  0.28635759321E+03  0.00000000000E+00 0. -1.
         11    1    4    4    0    0 -0.61094879996E+02 -0.36187094273E+01 -0.51735212751E+02  0.80138702623E+02  0.00000000000E+00 0.  1.
         21    1    1    2  503  502 -0.34321763414E+02 -0.85060618637E+01 -0.24032719616E+03  0.24291458941E+03  0.00000000000E+00 0. -1.
          2    1    1    2  501    0  0.26663972188E+03 -0.58935916028E+02 -0.24159530596E+02  0.27414205515E+03  0.00000000000E+00 0. -1.
<scales pt_clust_5="13000.00000" pt_clust_6="13000.00000" pt_clust_7="13000.00000" pt_clust_8="13000.00000" pt_clust_9="35.36010" pt_clust_10="265.52171"></scales>
<clustering>
<clus scale="   35.360">  2  9  1 -1</clus>
<clus scale="   90.065">  7  8 -1 -1</clus>
<clus scale="   90.214">  5  6 -1 -1</clus>
<clus scale="  123.409">  2  5  1 -1</clus>
<clus scale="  265.522">  1 10  2 -1</clus>
<clus scale="  265.522">  1  5  2 -1</clus>
</clustering>
</event>
<event>
10    2  0.3984345E-006  0.1714268E+03  0.7546771E-02  0.1177894E+00
         21   -1    0    0  501  502  0.00000000000E+00  0.00000000000E+00  0.54845507099E+02  0.54845507099E+02  0.00000000000E+00 0. -1.
          2   -1    0    0  503    0 -0.00000000000E+00 -0.00000000000E+00 -0.18632440714E+04  0.18632440714E+04  0.00000000000E+00 0. -1.
         23    2    1    2    0    0 -0.11239510279E+03  0.15302945585E+03 -0.10413281359E+04  0.10633915306E+04  0.10191460820E+03 0.  0.
         23    2    1    2    0    0  0.83796648785E+02 -0.87919908988E+02 -0.33210678167E+03  0.36534242389E+03  0.91806228133E+02 0.  0.
        -11    1    4    4    0    0  0.99395880742E+02 -0.72158223660E+02 -0.22881760912E+03  0.25969953522E+03  0.00000000000E+00 0.  1.
         11    1    4    4    0    0 -0.15599231956E+02 -0.15761685328E+02 -0.10328917255E+03  0.10564288868E+03  0.00000000000E+00 0. -1.
        -11    1    3    3    0    0 -0.10575525671E+03  0.58881407600E+02 -0.57170325203E+03  0.58437642224E+03  0.00000000000E+00 0. -1.
         11    1    3    3    0    0 -0.66398460829E+01  0.94148048254E+02 -0.46962488383E+03  0.47901510838E+03  0.00000000000E+00 0.  1.
         21    1    1    2  503  502  0.46012949884E+02 -0.52369380040E+02 -0.45476049849E+03  0.46007266220E+03  0.00000000000E+00 0.  1.
          2    1    1    2  501    0 -0.17414495876E+02 -0.12740166826E+02  0.19796851669E+02  0.29282961827E+02  0.00000000000E+00 0. -1.
<scales pt_clust_5="13000.00000" pt_clust_6="13000.00000" pt_clust_7="13000.00000" pt_clust_8="13000.00000" pt_clust_9="69.56877" pt_clust_10="21.57722"></scales>
<clustering>
<clus scale="   21.577">  1 10  2 -1</clus>
<clus scale="   69.569">  2  9  1 -1</clus>
<clus scale="   91.806">  5  6 -1 -1</clus>
<clus scale="  101.915">  7  8 -1 -1</clus>
<clus scale="  165.617">  1  5  2 -1</clus>
<clus scale="   21.577">  1  5  2 -1</clus>
</clustering>
</event>
<event>
10    2  0.3984345E-006  0.1483399E+03  0.7546771E-02  0.1202581E+00
         21   -1    0    0  503  502  0.00000000000E+00  0.00000000000E+00  0.69723582941E+03  0.69723582941E+03  0.00000000000E+00 0.  1.
         -4   -1    0    0    0  501 -0.00000000000E+00 -0.00000000000E+00 -0.21037843201E+03  0.21037843201E+03  0.00000000000E+00 0.  1.
         23    2    1    2    0    0 -0.20765145796E+02 -0.73202001366E+02  0.64172248940E+00  0.11820433364E+03  0.90455118145E+02 0.  0.
         23    2    1    2    0    0  0.16632995596E+03  0.11273525144E+03  0.16552205618E+02  0.22086278271E+03  0.90174841886E+02 0.  0.
        -11    1    4    4    0    0  0.15533087706E+02  0.18081144167E+02 -0.28553612889E+02  0.37195609917E+02  0.00000000000E+00 0.  1.
         11    1    4    4    0    0  0.15079686825E+03  0.94654107269E+02  0.45105818508E+02  0.18366717279E+03  0.00000000000E+00 0. -1.
        -13    1    3    3    0    0  0.30067038052E+02 -0.53546247047E+02 -0.11223744180E+02  0.62427556282E+02  0.00000000000E+00 0.  1.
         13    1    3    3    0    0 -0.50832183848E+02 -0.19655754320E+02  0.11865466669E+02  0.55776777354E+02  0.00000000000E+00 0. -1.
         21    1    1    2  503  501 -0.35536906401E+02 -0.35141948866E+01 -0.35460390557E+02  0.50325546006E+02  0.00000000000E+00 0. -1.
         -4    1    1    2    0  502 -0.11002790376E+03 -0.36019055183E+02  0.50512385985E+03  0.51822159906E+03  0.00000000000E+00 0.  1.
<scales pt_clust_5="13000.00000" pt_clust_6="13000.00000" pt_clust_7="13000.00000" pt_clust_8="13000.00000" pt_clust_9="35.71024" pt_clust_10="117.13725"></scales>
<clustering>
<clus scale="   35.710">  2  9  1 -1</clus>
<clus scale="   90.175">  5  6 -1 -1</clus>
<clus scale="   90.455">  7  8 -1 -1</clus>
<clus scale="  117.137">  1 10  2 -1</clus>
<clus scale="  148.169">  1  5  2 -1</clus>
<clus scale="  117.137">  1  5  2 -1</clus>
</clustering>
</event>
<event>
10    2  0.3984345E-006  0.1004444E+03  0.7546771E-02  0.1279800E+00
         21   -1    0    0  501  502  0.00000000000E+00  0.00000000000E+00  0.12736275476E+03  0.12736275476E+03  0.00000000000E+00 0. -1.
          3   -1    0    0  503    0 -0.00000000000E+00 -0.00000000000E+00 -0.44274130262E+03  0.44274130262E+03  0.00000000000E+00 0. -1.
         23    2    1    2    0    0 -0.27019393725E+02 -0.11001591791E+02 -0.23447037889E+03  0.25421993822E+03  0.93810104722E+02 0.  0.
         23    2    1    2    0    0  0.25853143305E+02 -0.57080458470E+02 -0.13744653281E+03  0.17734829236E+03  0.92920953848E+02 0.  0.
        -13    1    4    4    0    0  0.46503758006E+02 -0.60384551193E+02 -0.59631437520E+02  0.96771906420E+02  0.00000000000E+00 0.  1.
         13    1    4    4    0    0 -0.20650614700E+02  0.33040927231E+01 -0.77815095294E+02  0.80576385944E+02  0.00000000000E+00 0. -1.
        -13    1    3    3    0    0 -0.36167271538E+02 -0.40459252620E+02 -0.20309996857E+03  0.21022516473E+03  0.00000000000E+00 0. -1.
         13    1    3    3    0    0  0.91478778135E+01  0.29457660828E+02 -0.31370410324E+02  0.43994773483E+02  0.00000000000E+00 0.  1.
         21    1    1    2  503  502 -0.25029436981E+02  0.35161127828E+01 -0.22025215407E+02  0.33525302063E+02  0.00000000000E+00 0.  1.
          3    1    1    2  501    0  0.26195687401E+02  0.64565937479E+02  0.78563579253E+02  0.10501052474E+03  0.00000000000E+00 0. -1.
<scales pt_clust_5="13000.00000" pt_clust_6="13000.00000" pt_clust_7="13000.00000" pt_clust_8="13000.00000" pt_clust_9="25.27520" pt_clust_10="69.48600"></scales>
<clustering>
<clus scale="   25.275">  2  9  1 -1</clus>
<clus scale="   69.486">  1 10  2 -1</clus>
<clus scale="   92.921">  5  6 -1 -1</clus>
<clus scale="   93.810">  7  8 -1 -1</clus>
<clus scale="   99.614">  1  5  2 -1</clus>
<clus scale="   69.486">  1  5  2 -1</clus>
</clustering>
</event>
<event>
10    2  0.3984345E-006  0.1535368E+03  0.7546771E-02  0.1200192E+00
         21   -1    0    0  501  502  0.00000000000E+00  0.00000000000E+00  0.14826705418E+03  0.14826705418E+03  0.00000000000E+00 0. -1.
          2   -1    0    0  503    0 -0.00000000000E+00 -0.00000000000E+00 -0.47779132750E+03  0.47779132750E+03  0.00000000000E+00 0. -1.
         23    2    1    2    0    0 -0.59750460977E+02  0.50254569026E+01 -0.64939761549E+02  0.13782238427E+03  0.10574717099E+03 0.  0.
         23    2    1    2    0    0  0.15868297128E+03  0.74980910481E+02 -0.18136788538E+03  0.26666443081E+03  0.86099863539E+02 0.  0.
        -11    1    4    4    0    0  0.15727430614E+03  0.45214103575E+02 -0.16613789679E+03  0.23319803448E+03  0.00000000000E+00 0. -1.
         11    1    4    4    0    0  0.14086651338E+01  0.29766806905E+02 -0.15229988586E+02  0.33466396327E+02  0.00000000000E+00 0.  1.
        -11    1    3    3    0    0 -0.67580532029E+02 -0.28689206346E+02 -0.71627250068E+02  0.10257027748E+03  0.00000000000E+00 0. -1.
         11    1    3    3    0    0  0.78300710513E+01  0.33714663248E+02  0.66874885189E+01  0.35252106792E+02  0.00000000000E+00 0.  1.
         21    1    1    2  503  502 -0.15218324751E+02 -0.13674897589E+02 -0.10964907127E+03  0.11154155756E+03  0.00000000000E+00 0. -1.
          2    1    1    2  501    0 -0.83714185547E+02 -0.66331469794E+02  0.26432444873E+02  0.11003000904E+03  0.00000000000E+00 0. -1.
<scales pt_clust_5="13000.00000" pt_clust_6="13000.00000" pt_clust_7="13000.00000" pt_clust_8="13000.00000" pt_clust_9="20.45972" pt_clust_10="109.13251"></scales>
<clustering>
<clus scale="   20.460">  2  9  1 -1</clus>
<clus scale="   86.100">  5  6 -1 -1</clus>
<clus scale="  105.747">  7  8 -1 -1</clus>
<clus scale="  109.133">  1 10  2 -1</clus>
<clus scale="  140.728">  1  5  2 -1</clus>
<clus scale="  109.133">  1  5  2 -1</clus>
</clustering>
</event>
<event>
10    2  0.3984345E-006  0.1598631E+03  0.7546771E-02  0.1189695E+00
          1   -1    0    0  503    0 -0.00000000000E+00  0.00000000000E+00  0.96622026481E+03  0.96622026481E+03  0.00000000000E+00 0. -1.
         21   -1    0    0  501  502  0.00000000000E+00 -0.00000000000E+00 -0.84808777641E+02  0.84808777641E+02  0.00000000000E+00 0.  1.
         23    2    1    2    0    0  0.15330628283E+03 -0.12264724393E+02  0.75213762857E+03  0.77310266153E+03  0.91233070397E+02 0.  0.
         23    2    1    2    0    0 -0.11025859493E+03 -0.45509544595E+02  0.60167980587E+02  0.15885677280E+03  0.85948891628E+02 0.  0.
        -11    1    3    3    0    0  0.16473799675E+02 -0.36240801467E+02  0.17817173783E+03  0.18256491976E+03  0.00000000000E+00 0.  1.
         11    1    3    3    0    0  0.13683248315E+03  0.23976077074E+02  0.57396589074E+03  0.59053774176E+03  0.00000000000E+00 0. -1.
        -13    1    4    4    0    0 -0.56529600981E+02 -0.44726992105E+02 -0.74723605922E+01  0.72470240669E+02  0.00000000000E+00 0.  1.
         13    1    4    4    0    0 -0.53728993948E+02 -0.78255248992E+00  0.67640341179E+02  0.86386532132E+02  0.00000000000E+00 0. -1.
         21    1    1    2  503  502 -0.21609735950E+02  0.13136718980E+02  0.64567449560E+02  0.69343417972E+02  0.00000000000E+00 0.  1.
          1    1    1    2  501    0 -0.21437951950E+02  0.44637550008E+02  0.45384284602E+01  0.49726190156E+02  0.00000000000E+00 0. -1.
<scales pt_clust_5="13000.00000" pt_clust_6="13000.00000" pt_clust_7="13000.00000" pt_clust_8="13000.00000" pt_clust_9="25.28941" pt_clust_10="50.15993"></scales>
<clustering>
<clus scale="   25.289">  1  9  2 -1</clus>
<clus scale="   50.160">  2 10  1 -1</clus>
<clus scale="   85.949">  7  8 -1 -1</clus>
<clus scale="   91.233">  5  6 -1 -1</clus>
<clus scale="  156.907">  2  7  1 -1</clus>
<clus scale="   50.160">  2  5  1 -1</clus>
</clustering>
</event>
<event>
10    2  0.3984345E-006  0.1077625E+03  0.7546771E-02  0.1265785E+00
          1   -1    0    0  503    0 -0.00000000000E+00  0.00000000000E+00  0.52873885895E+03  0.52873885895E+03  0.00000000000E+00 0. -1.
         21   -1    0    0  501  502  0.00000000000E+00 -0.00000000000E+00 -0.60907626115E+02  0.60907626115E+02  0.00000000000E+00 0.  1.
         23    2    1    2    0    0  0.20708129910E+02 -0.40359922792E+02  0.30065953037E+03  0.31828543134E+03  0.94083540455E+02 0.  0.
         23    2    1    2    0    0 -0.20255294717E+02  0.16558602740E+02  0.23594750427E+02  0.98196544589E+02  0.91659068470E+02 0.  0.
        -11    1    3    3    0    0  0.47631192378E+02 -0.47132155434E+02  0.26358256620E+03  0.27196679902E+03  0.00000000000E+00 0. -1.
         11    1    3    3    0    0 -0.26923062468E+02  0.67722326421E+01  0.37076964176E+02  0.46318632321E+02  0.00000000000E+00 0.  1.
        -13    1    4    4    0    0  0.28191577915E+02  0.22004062804E+02 -0.12122240533E+02  0.37760992582E+02  0.00000000000E+00 0.  1.
         13    1    4    4    0    0 -0.48446872632E+02 -0.54454600639E+01  0.35716990960E+02  0.60435552007E+02  0.00000000000E+00 0. -1.
         21    1    1    2  503  502  0.23155332084E+02 -0.10700435970E+02  0.12472167077E+03  0.12730343237E+03  0.00000000000E+00 0. -1.
          1    1    1    2  501    0 -0.23608167277E+02  0.34501756022E+02  0.18855281265E+02  0.45861076769E+02  0.00000000000E+00 0. -1.
<scales pt_clust_5="13000.00000" pt_clust_6="13000.00000" pt_clust_7="13000.00000" pt_clust_8="13000.00000" pt_clust_9="25.50821" pt_clust_10="40.05928"></scales>
<clustering>
<clus scale="   25.508">  1  9  2 -1</clus>
<clus scale="   40.059">  2 10  1 -1</clus>
<clus scale="   91.659">  7  8 -1 -1</clus>
<clus scale="   94.084">  5  6 -1 -1</clus>
<clus scale="  105.652">  2  7  1 -1</clus>
<clus scale="   40.059">  2  5  1 -1</clus>
</clustering>
</event>
<event>
10    2  0.3984345E-006  0.9815791E+02  0.7546771E-02  0.1285059E+00
         21   -1    0    0  503  502  0.00000000000E+00  0.00000000000E+00  0.97364655493E+02  0.97364655493E+02  0.00000000000E+00 0. -1.
         -1   -1    0    0    0  501 -0.00000000000E+00 -0.00000000000E+00 -0.55863547795E+03  0.55863547795E+03  0.00000000000E+00 0.  1.
         23    2    1    2    0    0  0.96213824101E+01  0.44150063322E+02 -0.34950503070E+03  0.36447799624E+03  0.92998086930E+02 0.  0.
         23    2    1    2    0    0 -0.62786150670E+02  0.22016000228E+02 -0.17552334155E+01  0.11303697941E+03  0.91364505627E+02 0.  0.
        -13    1    3    3    0    0 -0.32842904592E+02  0.21921375848E+02 -0.65692419712E+02  0.76646572714E+02  0.00000000000E+00 0.  1.
         13    1    3    3    0    0  0.42464287002E+02  0.22228687474E+02 -0.28381261098E+03  0.28783142353E+03  0.00000000000E+00 0. -1.
        -13    1    4    4    0    0  0.17012059228E+02  0.23377374889E+02 -0.14286629316E+02  0.32249334769E+02  0.00000000000E+00 0. -1.
         13    1    4    4    0    0 -0.79798209897E+02 -0.13613746610E+01  0.12531395901E+02  0.80787644643E+02  0.00000000000E+00 0.  1.
         21    1    1    2  503  501  0.18411798947E+02 -0.40309242693E+02 -0.12501993164E+03  0.13264167028E+03  0.00000000000E+00 0. -1.
         -1    1    1    2    0  502  0.34752969313E+02 -0.25856820856E+02  0.15009373291E+02  0.45843487514E+02  0.00000000000E+00 0.  1.
<scales pt_clust_5="13000.00000" pt_clust_6="13000.00000" pt_clust_7="13000.00000" pt_clust_8="13000.00000" pt_clust_9="46.49132" pt_clust_10="43.31679"></scales>
<clustering>
<clus scale="   43.317">  1 10  2 -1</clus>
<clus scale="   46.491">  2  9  1 -1</clus>
<clus scale="   91.365">  7  8 -1 -1</clus>
<clus scale="   92.998">  5  6 -1 -1</clus>
<clus scale="   96.612">  1  7  2 -1</clus>
<clus scale="   43.317">  1  5  2 -1</clus>
</clustering>
</event>
<event>
10    2  0.3984345E-006  0.1270828E+03  0.7546771E-02  0.1244604E+00
         21   -1    0    0  501  502  0.00000000000E+00  0.00000000000E+00  0.99732787486E+02  0.99732787486E+02  0.00000000000E+00 0. -1.
          4   -1    0    0  503    0 -0.00000000000E+00 -0.00000000000E+00 -0.46264670272E+03  0.46264670272E+03  0.00000000000E+00 0. -1.
         23    2    1    2    0    0  0.44648108770E+02  0.11065446298E+01 -0.29979393118E+03  0.32650131175E+03  0.12137556321E+03 0.  0.
         23    2    1    2    0    0  0.25833066272E+02  0.31658777605E+02 -0.83742022978E+01  0.99635902195E+02  0.90485138170E+02 0.  0.
        -11    1    4    4    0    0  0.50462758835E+02 -0.84091258986E+01  0.30036394290E+01  0.51246709918E+02  0.00000000000E+00 0. -1.
         11    1    4    4    0    0 -0.24629692562E+02  0.40067903503E+02 -0.11377841727E+02  0.48389192277E+02  0.00000000000E+00 0.  1.
        -13    1    3    3    0    0  0.54198960750E+02 -0.45242925528E+02 -0.24043984983E+03  0.25059084389E+03  0.00000000000E+00 0. -1.
         13    1    3    3    0    0 -0.95508519800E+01  0.46349470158E+02 -0.59354081353E+02  0.75910467860E+02  0.00000000000E+00 0.  1.
         21    1    1    2  503  502  0.20056788028E+02 -0.59508043171E+01 -0.33436747626E+02  0.39442399899E+02  0.00000000000E+00 0.  1.
          4    1    1    2  501    0 -0.90537963071E+02 -0.26814517917E+02 -0.21309034131E+02  0.96799876362E+02  0.00000000000E+00 0. -1.
<scales pt_clust_5="13000.00000" pt_clust_6="13000.00000" pt_clust_7="13000.00000" pt_clust_8="13000.00000" pt_clust_9="20.92097" pt_clust_10="92.00841"></scales>
<clustering>
<clus scale="   20.921">  2  9  1 -1</clus>
<clus scale="   90.485">  5  6 -1 -1</clus>
<clus scale="   92.008">  1 10  2 -1</clus>
<clus scale="   98.008">  1  5  2 -1</clus>
<clus scale="  121.376">  7  8 -1 -1</clus>
<clus scale="   92.008">  1  5  2 -1</clus>
</clustering>
</event>
<event>
10    2  0.3984345E-006  0.1492305E+03  0.7546771E-02  0.1201801E+00
         21   -1    0    0  501  502  0.00000000000E+00  0.00000000000E+00  0.12054019256E+03  0.12054019256E+03  0.00000000000E+00 0. -1.
          2   -1    0    0  503    0 -0.00000000000E+00 -0.00000000000E+00 -0.88483708402E+03  0.88483708402E+03  0.00000000000E+00 0. -1.
         23    2    1    2    0    0 -0.13748624833E+03  0.34391987021E+02 -0.60577745712E+03  0.62900769591E+03  0.92731206742E+02 0.  0.
         23    2    1    2    0    0  0.67992297962E+02  0.40293458687E+01 -0.10977051486E+03  0.15787679545E+03  0.90754219732E+02 0.  0.
        -11    1    4    4    0    0 -0.50798095995E+01  0.25015122400E+02 -0.64561965901E+02  0.69424838892E+02  0.00000000000E+00 0. -1.
         11    1    4    4    0    0  0.73072107561E+02 -0.20985776531E+02 -0.45208548955E+02  0.88451956556E+02  0.00000000000E+00 0.  1.
        -11    1    3    3    0    0 -0.32804235320E+02  0.42051254510E+02 -0.11007891855E+03  0.12231841305E+03  0.00000000000E+00 0.  1.
         11    1    3    3    0    0 -0.10468201301E+03 -0.76592674886E+01 -0.49569853857E+03  0.50668928286E+03  0.00000000000E+00 0. -1.
         21    1    1    2  503  502  0.11703622396E+03 -0.28726857918E+02 -0.93466948438E+02  0.15250829661E+03  0.00000000000E+00 0.  1.
          2    1    1    2  501    0 -0.47542273591E+02 -0.96944749719E+01  0.44718028956E+02  0.65984488608E+02  0.00000000000E+00 0. -1.
<scales pt_clust_5="13000.00000" pt_clust_6="13000.00000" pt_clust_7="13000.00000" pt_clust_8="13000.00000" pt_clust_9="101.08553" pt_clust_10="48.52062"></scales>
<clustering>
<clus scale="   48.521">  1 10  2 -1</clus>
<clus scale="   90.754">  5  6 -1 -1</clus>
<clus scale="   92.731">  7  8 -1 -1</clus>
<clus scale="  101.086">  1  9  2 -1</clus>
<clus scale="  148.010">  1  5  2 -1</clus>
<clus scale="   48.521">  1  5  2 -1</clus>
</clustering>
</event>
<event>
10    2  0.3984345E-006  0.1510776E+03  0.7546771E-02  0.1220971E+00
         21   -1    0    0  501  502  0.00000000000E+00  0.00000000000E+00  0.13845266582E+03  0.13845266582E+03  0.00000000000E+00 0.  1.
          1   -1    0    0  503    0 -0.00000000000E+00 -0.00000000000E+00 -0.43542343981E+03  0.43542343981E+03  0.00000000000E+00 0. -1.
         23    2    1    2    0    0 -0.16906883238E+02 -0.67948071468E+01 -0.19013361639E+03  0.21252612925E+03  0.93190940706E+02 0.  0.
         23    2    1    2    0    0  0.11710725055E+03  0.14526054988E+01 -0.82644363292E+02  0.16947749534E+03  0.90422964162E+02 0.  0.
        -11    1    4    4    0    0  0.26198690540E+02 -0.24640082799E+02  0.97446076809E+01  0.37262077844E+02  0.00000000000E+00 0.  1.
         11    1    4    4    0    0  0.90908560013E+02  0.26092688298E+02 -0.92388970973E+02  0.13221541750E+03  0.00000000000E+00 0. -1.
        -11    1    3    3    0    0 -0.49419593042E+02 -0.27350761841E+02 -0.11188929616E+03  0.12533784322E+03  0.00000000000E+00 0. -1.
         11    1    3    3    0    0  0.32512709804E+02  0.20555954694E+02 -0.78244320233E+02  0.87188286030E+02  0.00000000000E+00 0.  1.
         21    1    1    2  503  502 -0.12604375904E+03  0.38060640397E+02 -0.52210970100E+02  0.14163907278E+03  0.00000000000E+00 0.  1.
          1    1    1    2  501    0  0.25843391726E+02 -0.32718438749E+02  0.28018175790E+02  0.50233408252E+02  0.00000000000E+00 0. -1.
<scales pt_clust_5="13000.00000" pt_clust_6="13000.00000" pt_clust_7="13000.00000" pt_clust_8="13000.00000" pt_clust_9="121.02946" pt_clust_10="41.69385"></scales>
<clustering>
<clus scale="   41.694">  1 10  2 -1</clus>
<clus scale="   90.423">  5  6 -1 -1</clus>
<clus scale="   93.191">  7  8 -1 -1</clus>
<clus scale="   94.817">  2  7  1 -1</clus>
<clus scale="  121.029">  1  9  2 -1</clus>
<clus scale="   41.694">  1  5  2 -1</clus>
</clustering>
</event>
<event>
10    2  0.3984345E-006  0.1005786E+03  0.7546771E-02  0.1279491E+00
          4   -1    0    0  503    0 -0.00000000000E+00  0.00000000000E+00  0.92529233221E+02  0.92529233221E+02  0.00000000000E+00 0. -1.
         21   -1    0    0  501  502  0.00000000000E+00 -0.00000000000E+00 -0.30602583944E+03  0.30602583944E+03  0.00000000000E+00 0.  1.
         23    2    1    2    0    0  0.48100767547E+02 -0.85221965089E+01 -0.71555816081E+02  0.12573523735E+03  0.91119720278E+02 0.  0.
         23    2    1    2    0    0  0.18743794956E+01  0.54821770209E+02 -0.11199361132E+03  0.15495194174E+03  0.91970622942E+02 0.  0.
        -11    1    3    3    0    0  0.73856780183E+02 -0.11494211044E+02 -0.39610643312E+02  0.84592812520E+02  0.00000000000E+00 0.  1.
         11    1    3    3    0    0 -0.25756012636E+02  0.29720145348E+01 -0.31945172769E+02  0.41142424826E+02  0.00000000000E+00 0. -1.
        -11    1    4    4    0    0  0.12448905489E+02 -0.22931904043E+02 -0.14668671637E+02  0.29933549714E+02  0.00000000000E+00 0.  1.
         11    1    4    4    0    0 -0.10574525993E+02  0.77753674252E+02 -0.97324939685E+02  0.12501839202E+03  0.00000000000E+00 0. -1.
         21    1    1    2  503  502 -0.51607778764E+01 -0.30516404018E+02  0.28824270553E+02  0.42293298705E+02  0.00000000000E+00 0. -1.
          4    1    1    2  501    0 -0.44814369166E+02 -0.15783169682E+02 -0.58771449364E+02  0.75574594867E+02  0.00000000000E+00 0. -1.
<scales pt_clust_5="13000.00000" pt_clust_6="13000.00000" pt_clust_7="13000.00000" pt_clust_8="13000.00000" pt_clust_9="30.94971" pt_clust_10="49.88528"></scales>
<clustering>
<clus scale="   30.950">  1  9  2 -1</clus>
<clus scale="   49.885">  2 10  1 -1</clus>
<clus scale="   91.120">  5  6 -1 -1</clus>
<clus scale="   91.971">  7  8 -1 -1</clus>
<clus scale="   99.801">  1  5  2 -1</clus>
<clus scale="   49.885">  2  5  1 -1</clus>
</clustering>
</event>
<event>
10    2  0.3984345E-006  0.1424839E+03  0.7546771E-02  0.1217864E+00
         21   -1    0    0  501  502  0.00000000000E+00  0.00000000000E+00  0.13012633146E+03  0.13012633146E+03  0.00000000000E+00 0. -1.
          2   -1    0    0  503    0 -0.00000000000E+00 -0.00000000000E+00 -0.86911948892E+03  0.86911948892E+03  0.00000000000E+00 0. -1.
         23    2    1    2    0    0  0.66566140329E+02  0.34459867096E+02 -0.85804945177E+02  0.14805722103E+03  0.94551142792E+02 0.  0.
         23    2    1    2    0    0 -0.92548824923E+02 -0.10669094673E+02 -0.36593912372E+03  0.38829434227E+03  0.90454073398E+02 0.  0.
        -11    1    4    4    0    0  0.12207638095E+02 -0.19906878250E+02 -0.47310663994E+02  0.52759919987E+02  0.00000000000E+00 0. -1.
         11    1    4    4    0    0 -0.10475646302E+03  0.92377835764E+01 -0.31862845973E+03  0.33553442229E+03  0.00000000000E+00 0.  1.
        -13    1    3    3    0    0  0.11983049385E+02 -0.20862226154E+02  0.88054716382E+01  0.25619568370E+02  0.00000000000E+00 0. -1.
         13    1    3    3    0    0  0.54583090943E+02  0.55322093250E+02 -0.94610416815E+02  0.12243765266E+03  0.00000000000E+00 0.  1.
         21    1    1    2  503  502  0.38739051322E+02 -0.16057948015E+03 -0.28027952602E+03  0.32533535967E+03  0.00000000000E+00 0. -1.
          2    1    1    2  501    0 -0.12756366728E+02  0.13678870773E+03 -0.69695625321E+01  0.13755889741E+03  0.00000000000E+00 0. -1.
<scales pt_clust_5="13000.00000" pt_clust_6="13000.00000" pt_clust_7="13000.00000" pt_clust_8="13000.00000" pt_clust_9="142.48391" pt_clust_10="13000.00000"></scales>
<clustering>
<clus scale="   90.454">  5  6 -1 -1</clus>
<clus scale="   94.551">  7  8 -1 -1</clus>
<clus scale="  120.658">  2  7  1 -1</clus>
<clus scale="  108.293">  2  5  1 -1</clus>
<clus scale="  142.484">  2  9  1 -1</clus>
<clus scale="  142.484">  1  5  2 -1</clus>
</clustering>
</event>
<event>
10    2  0.3984345E-006  0.1234275E+03  0.7546771E-02  0.1238679E+00
          4   -1    0    0  503    0 -0.00000000000E+00  0.00000000000E+00  0.55409521220E+03  0.55409521220E+03  0.00000000000E+00 0. -1.
         21   -1    0    0  501  502  0.00000000000E+00 -0.00000000000E+00 -0.35061956787E+03  0.35061956787E+03  0.00000000000E+00 0. -1.
         23    2    1    2    0    0 -0.89112579992E+02 -0.28950782979E+02  0.20654940938E+03  0.24352248242E+03  0.88664204615E+02 0.  0.
         23    2    1    2    0    0  0.65733454832E+02  0.83199217588E+02  0.59986944007E+02  0.15293587507E+03  0.92455132576E+02 0.  0.
        -11    1    3    3    0    0 -0.10220231766E+03 -0.57564713155E+01  0.16353480850E+03  0.19293025758E+03  0.00000000000E+00 0. -1.
         11    1    3    3    0    0  0.13089737667E+02 -0.23194311663E+02  0.43014600880E+02  0.50592224843E+02  0.00000000000E+00 0.  1.
        -11    1    4    4    0    0  0.28934455553E+02 -0.16500229211E+02  0.22710188354E+02  0.40313929816E+02  0.00000000000E+00 0.  1.
         11    1    4    4    0    0  0.36798999278E+02  0.99699446798E+02  0.37276755653E+02  0.11262194525E+03  0.00000000000E+00 0. -1.
         21    1    1    2  503  502  0.24948460680E+02  0.10448408826E+02  0.21808631184E+03  0.21975721683E+03  0.00000000000E+00 0. -1.
          4    1    1    2  501    0 -0.15693355198E+01 -0.64696843435E+02 -0.28114702089E+03  0.28849920575E+03  0.00000000000E+00 0. -1.
<scales pt_clust_5="13000.00000" pt_clust_6="13000.00000" pt_clust_7="13000.00000" pt_clust_8="13000.00000" pt_clust_9="27.04801" pt_clust_10="64.59524"></scales>
<clustering>
<clus scale="   27.048">  1  9  2 -1</clus>
<clus scale="   64.595">  2 10  1 -1</clus>
<clus scale="   88.664">  5  6 -1 -1</clus>
<clus scale="   92.455">  7  8 -1 -1</clus>
<clus scale="  120.614">  1  5  2 -1</clus>
<clus scale="   64.595">  2  5  1 -1</clus>
</clustering>
</event>
<event>
10    2  0.3984345E-006  0.1169774E+03  0.7546771E-02  0.1248222E+00
         -1   -1    0    0    0  501 -0.00000000000E+00  0.00000000000E+00  0.13415962225E+03  0.13415962225E+03  0.00000000000E+00 0.  1.
         21   -1    0    0  503  502  0.00000000000E+00 -0.00000000000E+00 -0.18590134028E+03  0.18590134028E+03  0.00000000000E+00 0. -1.
         23    2    1    2    0    0  0.50283800637E+02 -0.55365783947E+02  0.11426378528E+02  0.11726194716E+03  0.89587786479E+02 0.  0.
         23    2    1    2    0    0 -0.39601802751E+01  0.77914177685E+02 -0.67502859798E+02  0.13674168223E+03  0.89751598685E+02 0.  0.
        -11    1    3    3    0    0 -0.17535878849E+02 -0.42676033096E+02  0.14004996975E+02  0.48217121316E+02  0.00000000000E+00 0.  1.
         11    1    3    3    0    0  0.67819679486E+02 -0.12689750851E+02 -0.25786184474E+01  0.69044825840E+02  0.00000000000E+00 0. -1.
        -13    1    4    4    0    0 -0.27054509027E+02  0.31012443558E+02  0.10838789880E+02  0.42558165846E+02  0.00000000000E+00 0.  1.
         13    1    4    4    0    0  0.23094328752E+02  0.46901734127E+02 -0.78341649678E+02  0.94183516386E+02  0.00000000000E+00 0. -1.
         21    1    1    2  503  501 -0.11546152477E+02 -0.20238896188E+02  0.17139499482E+02  0.28925576890E+02  0.00000000000E+00 0. -1.
         -1    1    1    2    0  502 -0.34777467885E+02 -0.23094975508E+01 -0.12804736244E+02  0.37131756243E+02  0.00000000000E+00 0.  1.
<scales pt_clust_5="13000.00000" pt_clust_6="13000.00000" pt_clust_7="13000.00000" pt_clust_8="13000.00000" pt_clust_9="23.30078" pt_clust_10="36.32418"></scales>
<clustering>
<clus scale="   23.301">  1  9  2 -1</clus>
<clus scale="   36.324">  2 10  1 -1</clus>
<clus scale="   89.588">  5  6 -1 -1</clus>
<clus scale="   89.752">  7  8 -1 -1</clus>
<clus scale="  116.852">  1  5  2 -1</clus>
<clus scale="   36.324">  2  5  1 -1</clus>
</clustering>
</event>
<event>
10    2  0.3984345E-006  0.9982528E+02  0.7546771E-02  0.1282610E+00
         21   -1    0    0  501  502  0.00000000000E+00  0.00000000000E+00  0.28489434354E+02  0.28489434354E+02  0.00000000000E+00 0.  1.
          2   -1    0    0  503    0 -0.00000000000E+00 -0.00000000000E+00 -0.74333058866E+03  0.74333058866E+03  0.00000000000E+00 0. -1.
         23    2    1    2    0    0 -0.81384659828E+01  0.23304233745E+02 -0.32621511196E+03  0.33957763973E+03  0.91034895472E+02 0.  0.
         23    2    1    2    0    0  0.49640424693E+02 -0.33416095610E+02 -0.20435927321E+03  0.23004577665E+03  0.87049064311E+02 0.  0.
        -11    1    4    4    0    0  0.28583381170E+02 -0.53965753097E+02 -0.71788013488E+02  0.94248772231E+02  0.00000000000E+00 0.  1.
         11    1    4    4    0    0  0.21057043523E+02  0.20549657487E+02 -0.13257125972E+03  0.13579700441E+03  0.00000000000E+00 0. -1.
        -13    1    3    3    0    0  0.68911462864E+01 -0.29999613122E+02 -0.57559048133E+02  0.65272572392E+02  0.00000000000E+00 0.  1.
         13    1    3    3    0    0 -0.15029612269E+02  0.53303846868E+02 -0.26865606383E+03  0.27430506734E+03  0.00000000000E+00 0. -1.
         21    1    1    2  503  502 -0.16778332802E+02  0.13563234808E+02 -0.17378970118E+03  0.17512376773E+03  0.00000000000E+00 0. -1.
          2    1    1    2  501    0 -0.24723625908E+02 -0.34513729427E+01 -0.10477067959E+02  0.27072838902E+02  0.00000000000E+00 0. -1.
<scales pt_clust_5="13000.00000" pt_clust_6="13000.00000" pt_clust_7="13000.00000" pt_clust_8="13000.00000" pt_clust_9="21.57484" pt_clust_10="25.45522"></scales>
<clustering>
<clus scale="   21.575">  2  9  1 -1</clus>
<clus scale="   25.455">  1 10  2 -1</clus>
<clus scale="   87.049">  5  6 -1 -1</clus>
<clus scale="   91.035">  7  8 -1 -1</clus>
<clus scale="   96.204">  1  5  2 -1</clus>
<clus scale="   25.455">  1  5  2 -1</clus>
</clustering>
</event>
<event>
10    2  0.3984345E-006  0.9988303E+02  0.7546771E-02  0.1281424E+00
         -3   -1    0    0    0  501 -0.00000000000E+00  0.00000000000E+00  0.57385222929E+02  0.57385222929E+02  0.00000000000E+00 0.  1.
         21   -1    0    0  503  502  0.00000000000E+00 -0.00000000000E+00 -0.37759986027E+03  0.37759986027E+03  0.00000000000E+00 0.  1.
         23    2    1    2    0    0 -0.40737053538E+02  0.29403584619E+02 -0.95775604280E+02  0.14125729615E+03  0.90865719724E+02 0.  0.
         23    2    1    2    0    0  0.16918976468E+02 -0.32261019586E+02 -0.17586142543E+03  0.20208857438E+03  0.92658112368E+02 0.  0.
        -11    1    4    4    0    0  0.43711084409E+02 -0.50166211318E+02 -0.12998795897E+03  0.14602800121E+03  0.00000000000E+00 0.  1.
         11    1    4    4    0    0 -0.26792107941E+02  0.17905191732E+02 -0.45873466462E+02  0.56060573169E+02  0.00000000000E+00 0. -1.
        -11    1    3    3    0    0  0.20528357946E+02  0.36592603919E+02 -0.34648915000E+02  0.54414882635E+02  0.00000000000E+00 0. -1.
         11    1    3    3    0    0 -0.61265411484E+02 -0.71890193001E+01 -0.61126689280E+02  0.86842413515E+02  0.00000000000E+00 0.  1.
         21    1    1    2  503  501  0.18889433237E+02 -0.18668212927E+02  0.10508646377E+02  0.28561241405E+02  0.00000000000E+00 0.  1.
         -3    1    1    2    0  502  0.49286438331E+01  0.21525647895E+02 -0.59086254001E+02  0.63077971267E+02  0.00000000000E+00 0.  1.
<scales pt_clust_5="13000.00000" pt_clust_6="13000.00000" pt_clust_7="13000.00000" pt_clust_8="13000.00000" pt_clust_9="26.23166" pt_clust_10="22.08269"></scales>
<clustering>
<clus scale="   22.083">  2 10  1 -1</clus>
<clus scale="   26.232">  1  9  2 -1</clus>
<clus scale="   90.866">  7  8 -1 -1</clus>
<clus scale="   92.658">  5  6 -1 -1</clus>
<clus scale="   98.223">  1  7  2 -1</clus>
<clus scale="   22.083">  2  5  1 -1</clus>
</clustering>
</event>
<event>
10    2  0.3984345E-006  0.1287588E+03  0.7546771E-02  0.1229620E+00
         21   -1    0    0  501  502  0.00000000000E+00  0.00000000000E+00  0.27094387996E+03  0.27094387996E+03  0.00000000000E+00 0. -1.
          2   -1    0    0  503    0 -0.00000000000E+00 -0.00000000000E+00 -0.37296394887E+03  0.37296394887E+03  0.00000000000E+00 0. -1.
         23    2    1    2    0    0  0.69139011091E+02 -0.51304418446E+02 -0.11390008374E+03  0.16977818102E+03  0.91864331847E+02 0.  0.
         23    2    1    2    0    0 -0.10580092701E+03  0.76178655350E+02  0.16677088727E+03  0.23121516769E+03  0.93010221170E+02 0.  0.
        -11    1    3    3    0    0  0.29402801592E+02  0.24169248106E+02 -0.20272526948E+02  0.43123690059E+02  0.00000000000E+00 0.  1.
         11    1    3    3    0    0  0.39736209499E+02 -0.75473666552E+02 -0.93627556795E+02  0.12665449096E+03  0.00000000000E+00 0. -1.
        -11    1    4    4    0    0 -0.93202225069E+02  0.19820895999E+02  0.68936836134E+02  0.11760871588E+03  0.00000000000E+00 0. -1.
         11    1    4    4    0    0 -0.12598701937E+02  0.56357759351E+02  0.97834051136E+02  0.11360645180E+03  0.00000000000E+00 0.  1.
         21    1    1    2  503  502 -0.41381633028E+02 -0.32639938652E+02 -0.15580731717E+03  0.16448016668E+03  0.00000000000E+00 0.  1.
          2    1    1    2  501    0  0.78043548944E+02  0.77657017485E+01  0.91644473237E+00  0.78434313450E+02  0.00000000000E+00 0. -1.
<scales pt_clust_5="13000.00000" pt_clust_6="13000.00000" pt_clust_7="13000.00000" pt_clust_8="13000.00000" pt_clust_9="52.70489" pt_clust_10="70.53066"></scales>
<clustering>
<clus scale="   52.705">  2  9  1 -1</clus>
<clus scale="   70.531">  1 10  2 -1</clus>
<clus scale="   91.864">  5  6 -1 -1</clus>
<clus scale="   93.010">  7  8 -1 -1</clus>
<clus scale="  127.934">  2  5  1 -1</clus>
<clus scale="   70.531">  1  5  2 -1</clus>
</clustering>
</event>
<event>
10    2  0.3984345E-006  0.2350212E+03  0.7546771E-02  0.1124034E+00
         21   -1    0    0  501  502  0.00000000000E+00  0.00000000000E+00  0.89936407653E+02  0.89936407653E+02  0.00000000000E+00 0.  1.
          2   -1    0    0  503    0 -0.00000000000E+00 -0.00000000000E+00 -0.11209400383E+04  0.11209400383E+04  0.00000000000E+00 0. -1.
         23    2    1    2    0    0  0.77123817777E+02 -0.17637717272E+03 -0.61694339691E+03  0.65293624304E+03  0.93003183660E+02 0.  0.
         23    2    1    2    0    0 -0.15183597869E+03  0.20059222033E+03 -0.26524400233E+03  0.37407623841E+03  0.79292169121E+02 0.  0.
        -11    1    3    3    0    0  0.16900932446E+02 -0.13010278424E+03 -0.46373843673E+03  0.48193953323E+03  0.00000000000E+00 0. -1.
         11    1    3    3    0    0  0.60222885331E+02 -0.46274388471E+02 -0.15320496018E+03  0.17099670982E+03  0.00000000000E+00 0.  1.
        -13    1    4    4    0    0 -0.15255053078E+03  0.15486507132E+03 -0.20864291449E+03  0.30130834791E+03  0.00000000000E+00 0.  1.
         13    1    4    4    0    0  0.71455208944E+00  0.45727149018E+02 -0.56601087844E+02  0.72767890495E+02  0.00000000000E+00 0. -1.
         21    1    1    2  503  502  0.47487207688E+02  0.57745116799E+01 -0.13128497831E+03  0.13972875656E+03  0.00000000000E+00 0. -1.
          2    1    1    2  501    0  0.27224953228E+02 -0.29989559299E+02 -0.17531253101E+02  0.44135207946E+02  0.00000000000E+00 0. -1.
<scales pt_clust_5="13000.00000" pt_clust_6="13000.00000" pt_clust_7="13000.00000" pt_clust_8="13000.00000" pt_clust_9="49.16021" pt_clust_10="40.50397"></scales>
<clustering>
<clus scale="   40.504">  1 10  2 -1</clus>
<clus scale="   49.160">  2  9  1 -1</clus>
<clus scale="   79.292">  7  8 -1 -1</clus>
<clus scale="   93.003">  5  6 -1 -1</clus>
<clus scale="  229.940">  1  7  2 -1</clus>
<clus scale="   40.504">  1  5  2 -1</clus>
</clustering>
</event>
<event>
10    2  0.3984345E-006  0.3161885E+03  0.7546771E-02  0.1077425E+00
          2   -1    0    0  503    0 -0.00000000000E+00  0.00000000000E+00  0.13990873806E+04  0.13990873806E+04  0.00000000000E+00 0. -1.
         21   -1    0    0  501  502  0.00000000000E+00 -0.00000000000E+00 -0.43289186257E+03  0.43289186257E+03  0.00000000000E+00 0. -1.
         23    2    1    2    0    0  0.25668649775E+02  0.24747328453E+03  0.80292375678E+03  0.84551458143E+03  0.91139684422E+02 0.  0.
         23    2    1    2    0    0 -0.13530575147E+02 -0.28864651832E+03 -0.16109008382E+03  0.34309145229E+03  0.90894667203E+02 0.  0.
        -11    1    3    3    0    0  0.50807256686E+02  0.16607813663E+03  0.44740350261E+03  0.47993043136E+03  0.00000000000E+00 0. -1.
         11    1    3    3    0    0 -0.25138606911E+02  0.81395147900E+02  0.35552025416E+03  0.36558415007E+03  0.00000000000E+00 0.  1.
        -11    1    4    4    0    0 -0.39950647045E+02 -0.24433523977E+03 -0.15253626113E+03  0.29079730836E+03  0.00000000000E+00 0.  1.
         11    1    4    4    0    0  0.26420071898E+02 -0.44311278555E+02 -0.85538226852E+01  0.52294143925E+02  0.00000000000E+00 0. -1.
         21    1    1    2  503  502 -0.85209060620E+01  0.63979403322E+02  0.48086415178E+03  0.48517656823E+03  0.00000000000E+00 0. -1.
          2    1    1    2  501    0 -0.36171685665E+01 -0.22806169530E+02 -0.15650230673E+03  0.15819664120E+03  0.00000000000E+00 0. -1.
<scales pt_clust_5="13000.00000" pt_clust_6="13000.00000" pt_clust_7="13000.00000" pt_clust_8="13000.00000" pt_clust_9="64.37118" pt_clust_10="23.09124"></scales>
<clustering>
<clus scale="   23.091">  2 10  1 -1</clus>
<clus scale="   64.371">  1  9  2 -1</clus>
<clus scale="   90.895">  7  8 -1 -1</clus>
<clus scale="   91.140">  5  6 -1 -1</clus>
<clus scale="  316.118">  2  7  1 -1</clus>
<clus scale="   23.091">  2  5  1 -1</clus>
</clustering>
</event>
<event>
10    2  0.3984345E-006  0.1087332E+03  0.7546771E-02  0.1270693E+00
          1   -1    0    0  503    0 -0.00000000000E+00  0.00000000000E+00  0.10057723338E+03  0.10057723338E+03  0.00000000000E+00 0. -1.
         21   -1    0    0  501  502  0.00000000000E+00 -0.00000000000E+00 -0.62569341218E+03  0.62569341218E+03  0.00000000000E+00 0.  1.
         23    2    1    2    0    0 -0.69032962248E+01 -0.42698521947E+02 -0.15122875491E+03  0.18991690262E+03  0.10643060798E+03 0.  0.
         23    2    1    2    0    0  0.79345581130E+01  0.33563544714E+02 -0.32545888623E+03  0.33964912622E+03  0.90821658020E+02 0.  0.
        -11    1    4    4    0    0 -0.62309543295E+01  0.63582378943E+02 -0.20801790461E+03  0.21760742713E+03  0.00000000000E+00 0. -1.
         11    1    4    4    0    0  0.14165512443E+02 -0.30018834230E+02 -0.11744098163E+03  0.12204169909E+03  0.00000000000E+00 0.  1.
        -13    1    3    3    0    0 -0.40934828173E+02  0.93947286287E+01 -0.24213945055E+02  0.48479234923E+02  0.00000000000E+00 0. -1.
         13    1    3    3    0    0  0.34031531948E+02 -0.52093250575E+02 -0.12701480986E+03  0.14143766770E+03  0.00000000000E+00 0.  1.
         21    1    1    2  503  502  0.10926171423E+02  0.48219885859E+02  0.61798883966E+02  0.79143165679E+02  0.00000000000E+00 0. -1.
          1    1    1    2  501    0 -0.11957433311E+02 -0.39084908625E+02 -0.11022742162E+03  0.11756145104E+03  0.00000000000E+00 0. -1.
<scales pt_clust_5="13000.00000" pt_clust_6="13000.00000" pt_clust_7="13000.00000" pt_clust_8="13000.00000" pt_clust_9="48.75163" pt_clust_10="40.87310"></scales>
<clustering>
<clus scale="   40.873">  2 10  1 -1</clus>
<clus scale="   48.752">  1  9  2 -1</clus>
<clus scale="   90.822">  5  6 -1 -1</clus>
<clus scale="   93.509">  2  5  1 -1</clus>
<clus scale="  106.431">  7  8 -1 -1</clus>
<clus scale="   40.873">  2  5  1 -1</clus>
</clustering>
</event>
<event>
10    2  0.3984345E-006  0.1078902E+03  0.7546771E-02  0.1265361E+00
          1   -1    0    0  503    0 -0.00000000000E+00  0.00000000000E+00  0.25645727902E+03  0.25645727902E+03  0.00000000000E+00 0. -1.
         21   -1    0    0  501  502  0.00000000000E+00 -0.00000000000E+00 -0.10553458397E+03  0.10553458397E+03  0.00000000000E+00 0.  1.
         23    2    1    2    0    0 -0.56571887955E+02 -0.29002112828E+02  0.71155423409E+02  0.13343643994E+03  0.93277479432E+02 0.  0.
         23    2    1    2    0    0  0.35935612141E+02  0.15482562104E+02  0.23694183088E+02  0.10208407351E+03  0.91261524215E+02 0.  0.
        -11    1    3    3    0    0 -0.71908157881E+02 -0.61470760374E+01  0.19263662215E+02  0.74697111026E+02  0.00000000000E+00 0.  1.
         11    1    3    3    0    0  0.15336269926E+02 -0.22855036791E+02  0.51891761194E+02  0.58739328918E+02  0.00000000000E+00 0. -1.
        -13    1    4    4    0    0  0.13118556003E+02 -0.17381763321E+02 -0.28784541996E+02  0.36093933917E+02  0.00000000000E+00 0.  1.
         13    1    4    4    0    0  0.22817056138E+02  0.32864325425E+02  0.52478725084E+02  0.65990139588E+02  0.00000000000E+00 0. -1.
         21    1    1    2  503  502 -0.14601308149E+02 -0.26732184478E+02  0.65420666249E+02  0.72164197904E+02  0.00000000000E+00 0.  1.
          1    1    1    2  501    0  0.35237583963E+02  0.40251735202E+02 -0.93475776993E+01  0.54307151639E+02  0.00000000000E+00 0. -1.
<scales pt_clust_5="13000.00000" pt_clust_6="13000.00000" pt_clust_7="13000.00000" pt_clust_8="13000.00000" pt_clust_9="30.45994" pt_clust_10="49.94149"></scales>
<clustering>
<clus scale="   30.460">  1  9  2 -1</clus>
<clus scale="   49.941">  2 10  1 -1</clus>
<clus scale="   91.262">  7  8 -1 -1</clus>
<clus scale="   93.277">  5  6 -1 -1</clus>
<clus scale="  106.152">  2  7  1 -1</clus>
<clus scale="   49.941">  2  5  1 -1</clus>
</clustering>
</event>
<event>
10    2  0.3984345E-006  0.9537610E+02  0.7546771E-02  0.1290986E+00
         21   -1    0    0  501  502  0.00000000000E+00  0.00000000000E+00  0.74025421243E+02  0.74025421243E+02  0.00000000000E+00 0. -1.
          2   -1    0    0  503    0 -0.00000000000E+00 -0.00000000000E+00 -0.73351494331E+03  0.73351494331E+03  0.00000000000E+00 0. -1.
         23    2    1    2    0    0  0.16978298421E+02 -0.13140109243E+02 -0.17756776014E+03  0.20042600177E+03  0.90439745999E+02 0.  0.
         23    2    1    2    0    0  0.73778300849E+02 -0.29955310407E+02 -0.25651351591E+03  0.28379412775E+03  0.91648048532E+02 0.  0.
        -11    1    4    4    0    0  0.14362433057E+02  0.23718995590E+02 -0.20261577427E+02  0.34342419177E+02  0.00000000000E+00 0.  1.
         11    1    4    4    0    0  0.59415867792E+02 -0.53674305997E+02 -0.23625193849E+03  0.24945170857E+03  0.00000000000E+00 0. -1.
        -11    1    3    3    0    0  0.45137650043E+02 -0.27807195762E+02 -0.67272687821E+02  0.85651982547E+02  0.00000000000E+00 0. -1.
         11    1    3    3    0    0 -0.28159351622E+02  0.14667086519E+02 -0.11029507232E+03  0.11477401923E+03  0.00000000000E+00 0.  1.
         21    1    1    2  503  502 -0.29992873069E+02 -0.30856987874E+01 -0.24311040059E+03  0.24497297983E+03  0.00000000000E+00 0. -1.
          2    1    1    2  501    0 -0.60763726201E+02  0.46181118437E+02  0.17702154575E+02  0.78347255207E+02  0.00000000000E+00 0. -1.
<scales pt_clust_5="13000.00000" pt_clust_6="13000.00000" pt_clust_7="13000.00000" pt_clust_8="13000.00000" pt_clust_9="30.15119" pt_clust_10="77.69532"></scales>
<clustering>
<clus scale="   30.151">  2  9  1 -1</clus>
<clus scale="   77.695">  1 10  2 -1</clus>
<clus scale="   90.440">  7  8 -1 -1</clus>
<clus scale="   91.648">  5  6 -1 -1</clus>
<clus scale="   94.216">  2  7  1 -1</clus>
<clus scale="   77.695">  1  5  2 -1</clus>
</clustering>
</event>
<event>
10    2  0.3984345E-006  0.1373915E+03  0.7546771E-02  0.1217516E+00
         21   -1    0    0  501  502  0.00000000000E+00  0.00000000000E+00  0.22326789825E+03  0.22326789825E+03  0.00000000000E+00 0. -1.
          3   -1    0    0  503    0 -0.00000000000E+00 -0.00000000000E+00 -0.49076257798E+03  0.49076257798E+03  0.00000000000E+00 0. -1.
         23    2    1    2    0    0 -0.10353798404E+03  0.40966366100E+02 -0.56444676599E+01  0.14397487925E+03  0.91096369583E+02 0.  0.
         23    2    1    2    0    0  0.75374381260E+02 -0.52468839276E+02 -0.58577482104E+02  0.14023587829E+03  0.88320460282E+02 0.  0.
        -11    1    3    3    0    0 -0.80946803092E+02 -0.14804108009E+02  0.66561545137E+01  0.82558166995E+02  0.00000000000E+00 0.  1.
         11    1    3    3    0    0 -0.22591180946E+02  0.55770474109E+02 -0.12300622174E+02  0.61416712259E+02  0.00000000000E+00 0. -1.
        -13    1    4    4    0    0  0.32273372825E+02  0.19490352296E+02  0.38822229542E+00  0.37704046767E+02  0.00000000000E+00 0. -1.
         13    1    4    4    0    0  0.43101008435E+02 -0.71959191572E+02 -0.58965704399E+02  0.10253183152E+03  0.00000000000E+00 0.  1.
         21    1    1    2  503  502  0.98463558018E+02  0.70104309506E+01 -0.29676947918E+03  0.31275604259E+03  0.00000000000E+00 0. -1.
          3    1    1    2  501    0 -0.70299955241E+02  0.44920422259E+01  0.93496749214E+02  0.11706367611E+03  0.00000000000E+00 0. -1.
<scales pt_clust_5="13000.00000" pt_clust_6="13000.00000" pt_clust_7="13000.00000" pt_clust_8="13000.00000" pt_clust_9="93.98604" pt_clust_10="70.44333"></scales>
<clustering>
<clus scale="   70.443">  1 10  2 -1</clus>
<clus scale="   88.320">  7  8 -1 -1</clus>
<clus scale="   91.096">  5  6 -1 -1</clus>
<clus scale="   93.986">  2  9  1 -1</clus>
<clus scale="  135.567">  1  7  2 -1</clus>
<clus scale="   70.443">  1  5  2 -1</clus>
</clustering>
</event>
<event>
10    2  0.1178746E-005  0.1743518E+03  0.7546771E-02  0.1201878E+00
         21   -1    0    0  501  502  0.00000000000E+00  0.00000000000E+00  0.48735569583E+03  0.48735569583E+03  0.00000000000E+00 0. -1.
          1   -1    0    0  503    0 -0.00000000000E+00 -0.00000000000E+00 -0.48918781157E+03  0.48918781157E+03  0.00000000000E+00 0. -1.
         23    2    1    2    0    0 -0.54351169261E+01 -0.19178684240E+02  0.58110767916E+02  0.10890272483E+03  0.89919851549E+02 0.  0.
         23    2    1    2    0    0  0.35523530014E+02 -0.80168358390E+02 -0.40673436742E+03  0.42653721295E+03  0.93873646584E+02 0.  0.
        -11    1    3    3    0    0  0.25888841902E+02  0.21820139644E+02  0.43797724084E+02  0.55358750564E+02  0.00000000000E+00 0. -1.
         11    1    3    3    0    0 -0.31323958828E+02 -0.40998823883E+02  0.14313043832E+02  0.53543974266E+02  0.00000000000E+00 0.  1.
        -13    1    4    4    0    0 -0.10317443276E+02 -0.31837910823E+02 -0.33314129325E+02  0.47222170789E+02  0.00000000000E+00 0.  1.
         13    1    4    4    0    0  0.45840973290E+02 -0.48330447567E+02 -0.37342023809E+03  0.37931504216E+03  0.00000000000E+00 0. -1.
         21    1    1    2  503  502  0.40966452551E+01 -0.45746316141E+02 -0.16194898494E+02  0.48700951532E+02  0.00000000000E+00 0.  1.
          1    1    1    2  501    0 -0.34185058343E+02  0.14509335877E+03  0.36298638226E+03  0.39240261808E+03  0.00000000000E+00 0. -1.
<scales pt_clust_5="13000.00000" pt_clust_6="13000.00000" pt_clust_7="13000.00000" pt_clust_8="13000.00000" pt_clust_9="45.92938" pt_clust_10="146.92276"></scales>
<clustering>
<clus scale="   45.929">  2  9  1 -1</clus>
<clus scale="   89.920">  5  6 -1 -1</clus>
<clus scale="   92.653">  2  5  1 -1</clus>
<clus scale="   93.874">  7  8 -1 -1</clus>
<clus scale="  146.923">  1 10  2 -1</clus>
<clus scale="  146.923">  1  5  2 -1</clus>
</clustering>
</event>
<event>
10    2  0.3984345E-006  0.1199880E+03  0.7546771E-02  0.1243213E+00
         21   -1    0    0  503  502  0.00000000000E+00  0.00000000000E+00  0.27611178227E+03  0.27611178227E+03  0.00000000000E+00 0. -1.
         -3   -1    0    0    0  501 -0.00000000000E+00 -0.00000000000E+00 -0.14904756262E+03  0.14904756262E+03  0.00000000000E+00 0.  1.
         23    2    1    2    0    0 -0.18860708628E+02  0.55154844687E+02 -0.13577000178E+02  0.10891558411E+03  0.90997177455E+02 0.  0.
         23    2    1    2    0    0  0.84157410433E+02 -0.98622636600E+02  0.55863780418E+02  0.16779187528E+03  0.90688793497E+02 0.  0.
        -11    1    3    3    0    0  0.78786451058E+01 -0.23485280905E+02 -0.12727838790E+00  0.24771912879E+02  0.00000000000E+00 0.  1.
         11    1    3    3    0    0 -0.26739353734E+02  0.78640125592E+02 -0.13449721790E+02  0.84143671227E+02  0.00000000000E+00 0. -1.
        -13    1    4    4    0    0  0.35145807034E+01 -0.73549163544E+02  0.22562015034E+02  0.77012182529E+02  0.00000000000E+00 0. -1.
         13    1    4    4    0    0  0.80642829729E+02 -0.25073473056E+02  0.33301765384E+02  0.90779692748E+02  0.00000000000E+00 0.  1.
         21    1    1    2  503  501 -0.63238548106E+02  0.66987688130E+02  0.45794151504E+02  0.10287647272E+03  0.00000000000E+00 0. -1.
         -3    1    1    2    0  502 -0.20581536981E+01 -0.23519896217E+02  0.38983287905E+02  0.45575412786E+02  0.00000000000E+00 0.  1.
<scales pt_clust_5="13000.00000" pt_clust_6="13000.00000" pt_clust_7="13000.00000" pt_clust_8="13000.00000" pt_clust_9="87.31449" pt_clust_10="23.60978"></scales>
<clustering>
<clus scale="   23.610">  1 10  2 -1</clus>
<clus scale="   87.314">  1  9  2 -1</clus>
<clus scale="   90.689">  7  8 -1 -1</clus>
<clus scale="   90.997">  5  6 -1 -1</clus>
<clus scale="  119.754">  1  7  2 -1</clus>
<clus scale="   23.610">  1  5  2 -1</clus>
</clustering>
</event>
<event>
10    2  0.3984345E-006  0.1075111E+03  0.7546771E-02  0.1266369E+00
         21   -1    0    0  501  502  0.00000000000E+00  0.00000000000E+00  0.16045627615E+03  0.16045627615E+03  0.00000000000E+00 0. -1.
          2   -1    0    0  503    0 -0.00000000000E+00 -0.00000000000E+00 -0.22653932795E+03  0.22653932795E+03  0.00000000000E+00 0. -1.
         23    2    1    2    0    0 -0.23695213357E+02 -0.35256164730E+02 -0.85297710430E+02  0.13195645106E+03  0.91281680983E+02 0.  0.
         23    2    1    2    0    0  0.18600608876E+02  0.80955702810E+02 -0.56711969584E+02  0.13399707013E+03  0.88539024391E+02 0.  0.
        -11    1    3    3    0    0 -0.65713654874E+01 -0.57804482522E+02 -0.85770093372E+02  0.10363903686E+03  0.00000000000E+00 0. -1.
         11    1    3    3    0    0 -0.17123847870E+02  0.22548317792E+02  0.47238294244E+00  0.28317414196E+02  0.00000000000E+00 0.  1.
        -13    1    4    4    0    0 -0.40472055470E+01  0.44136574343E+02  0.17873986865E+02  0.47790129461E+02  0.00000000000E+00 0.  1.
         13    1    4    4    0    0  0.22647814423E+02  0.36819128467E+02 -0.74585956450E+02  0.86206940665E+02  0.00000000000E+00 0. -1.
         21    1    1    2  503  502 -0.67219013448E+01 -0.24427436775E+02 -0.13259833854E+02  0.28595573415E+02  0.00000000000E+00 0. -1.
          2    1    1    2  501    0  0.11816505826E+02 -0.21272101305E+02  0.89186462061E+02  0.92446509501E+02  0.00000000000E+00 0. -1.
<scales pt_clust_5="13000.00000" pt_clust_6="13000.00000" pt_clust_7="13000.00000" pt_clust_8="13000.00000" pt_clust_9="27.31300" pt_clust_10="24.33376"></scales>
<clustering>
<clus scale="   24.334">  1 10  2 -1</clus>
<clus scale="   27.313">  1  9  2 -1</clus>
<clus scale="   88.539">  7  8 -1 -1</clus>
<clus scale="   91.282">  5  6 -1 -1</clus>
<clus scale="  105.192">  1  7  2 -1</clus>
<clus scale="   24.334">  1  5  2 -1</clus>
</clustering>
</event>
<event>
10    2  0.3984345E-006  0.1296382E+03  0.7546771E-02  0.1229663E+00
         21   -1    0    0  501  502  0.00000000000E+00  0.00000000000E+00  0.16259830616E+03  0.16259830616E+03  0.00000000000E+00 0. -1.
          1   -1    0    0  503    0 -0.00000000000E+00 -0.00000000000E+00 -0.33929221601E+03  0.33929221601E+03  0.00000000000E+00 0. -1.
         23    2    1    2    0    0 -0.36699799295E+02 -0.12620192096E+03 -0.53814036016E+02  0.17176606820E+03  0.96611756993E+02 0.  0.
         23    2    1    2    0    0  0.39886217152E+02  0.58057616253E+02  0.45124431368E+02  0.12332865073E+03  0.90620884249E+02 0.  0.
        -13    1    4    4    0    0 -0.10066313221E+02  0.36167996757E+02  0.56288262275E+02  0.67659612187E+02  0.00000000000E+00 0. -1.
         13    1    4    4    0    0  0.49952530373E+02  0.21889619496E+02 -0.11163830907E+02  0.55669038548E+02  0.00000000000E+00 0.  1.
        -13    1    3    3    0    0 -0.32918730943E+02 -0.16126273030E+01  0.60178753917E+01  0.33503107884E+02  0.00000000000E+00 0.  1.
         13    1    3    3    0    0 -0.37810683525E+01 -0.12458929366E+03 -0.59831911408E+02  0.13826296031E+03  0.00000000000E+00 0. -1.
         21    1    1    2  503  502  0.36056983704E+02  0.72536649783E+02 -0.11655756268E+03  0.14194131552E+03  0.00000000000E+00 0. -1.
          1    1    1    2  501    0 -0.39243401561E+02 -0.43923450760E+01 -0.51446742519E+02  0.64854487718E+02  0.00000000000E+00 0. -1.
<scales pt_clust_5="13000.00000" pt_clust_6="13000.00000" pt_clust_7="13000.00000" pt_clust_8="13000.00000" pt_clust_9="79.30782" pt_clust_10="39.48846"></scales>
<clustering>
<clus scale="   39.488">  1 10  2 -1</clus>
<clus scale="   79.308">  2  9  1 -1</clus>
<clus scale="   90.621">  5  6 -1 -1</clus>
<clus scale="   96.612">  7  8 -1 -1</clus>
<clus scale="  125.237">  1  5  2 -1</clus>
<clus scale="   39.488">  1  5  2 -1</clus>
</clustering>
</event>
<event>
10    2  0.3984345E-006  0.1022995E+03  0.7546771E-02  0.1278428E+00
         21   -1    0    0  503  502  0.00000000000E+00  0.00000000000E+00  0.31688539074E+03  0.31688539074E+03  0.00000000000E+00 0.  1.
         -1   -1    0    0    0  501 -0.00000000000E+00 -0.00000000000E+00 -0.85705833176E+02  0.85705833176E+02  0.00000000000E+00 0.  1.
         23    2    1    2    0    0 -0.41618961147E+00  0.50741900714E+02 -0.21997622014E+02  0.10343585007E+03  0.87408043133E+02 0.  0.
         23    2    1    2    0    0  0.40212353732E+01 -0.30705009907E+02  0.18274925771E+03  0.20758887700E+03  0.93471293411E+02 0.  0.
        -11    1    3    3    0    0  0.60141266292E+01 -0.23009869088E+02  0.55902514698E+01  0.24431019341E+02  0.00000000000E+00 0. -1.
         11    1    3    3    0    0 -0.64303162407E+01  0.73751769802E+02 -0.27587873484E+02  0.79004830733E+02  0.00000000000E+00 0.  1.
        -13    1    4    4    0    0 -0.36193665959E+02 -0.38861774125E+01  0.13431777939E+03  0.13916303277E+03  0.00000000000E+00 0. -1.
         13    1    4    4    0    0  0.40214901332E+02 -0.26818832494E+02  0.48431478323E+02  0.68425844226E+02  0.00000000000E+00 0.  1.
         21    1    1    2  503  501  0.18837785030E+02 -0.10506673877E+02  0.55706338923E+01  0.22277439323E+02  0.00000000000E+00 0.  1.
         -1    1    1    2    0  502 -0.22442830792E+02 -0.95302169305E+01  0.64857287973E+02  0.69289057519E+02  0.00000000000E+00 0.  1.
<scales pt_clust_5="13000.00000" pt_clust_6="13000.00000" pt_clust_7="13000.00000" pt_clust_8="13000.00000" pt_clust_9="21.56971" pt_clust_10="24.00838"></scales>
<clustering>
<clus scale="   21.570">  2  9  1 -1</clus>
<clus scale="   24.008">  1 10  2 -1</clus>
<clus scale="   87.408">  5  6 -1 -1</clus>
<clus scale="   93.471">  7  8 -1 -1</clus>
<clus scale="   96.791">  2  5  1 -1</clus>
<clus scale="   24.008">  1  5  2 -1</clus>
</clustering>
</event>
<event>
10    2  0.3984345E-006  0.1846080E+03  0.7546771E-02  0.1166555E+00
          1   -1    0    0  503    0 -0.00000000000E+00  0.00000000000E+00  0.48350427498E+02  0.48350427498E+02  0.00000000000E+00 0. -1.
         21   -1    0    0  501  502  0.00000000000E+00 -0.00000000000E+00 -0.11640269554E+04  0.11640269554E+04  0.00000000000E+00 0.  1.
         23    2    1    2    0    0 -0.14324673100E+03  0.10849462113E+03 -0.29388985992E+03  0.34993623745E+03  0.61590679164E+02 0.  0.
         23    2    1    2    0    0  0.11459493525E+03 -0.10502990768E+03 -0.59391746465E+03  0.62071779660E+03  0.91593381350E+02 0.  0.
        -11    1    3    3    0    0  0.44033822125E+00  0.22447048380E+02 -0.36603418434E+02  0.42940355376E+02  0.00000000000E+00 0.  1.
         11    1    3    3    0    0 -0.14368706922E+03  0.86047572751E+02 -0.25728644149E+03  0.30699588208E+03  0.00000000000E+00 0. -1.
        -13    1    4    4    0    0  0.26015837369E+02 -0.74416107245E+02 -0.18316604134E+03  0.19941007876E+03  0.00000000000E+00 0. -1.
         13    1    4    4    0    0  0.88579097877E+02 -0.30613800432E+02 -0.41075142331E+03  0.42130771784E+03  0.00000000000E+00 0.  1.
         21    1    1    2  503  502  0.17767309117E+02 -0.30628350106E+02 -0.48878413038E+02  0.60356212312E+02  0.00000000000E+00 0.  1.
          1    1    1    2  501    0  0.10884486639E+02  0.27163636653E+02 -0.17899079026E+03  0.18136713651E+03  0.00000000000E+00 0. -1.
<scales pt_clust_5="13000.00000" pt_clust_6="13000.00000" pt_clust_7="13000.00000" pt_clust_8="13000.00000" pt_clust_9="34.43125" pt_clust_10="29.26321"></scales>
<clustering>
<clus scale="   29.263">  2 10  1 -1</clus>
<clus scale="   34.431">  1  9  2 -1</clus>
<clus scale="   61.591">  5  6 -1 -1</clus>
<clus scale="   91.593">  7  8 -1 -1</clus>
<clus scale="  171.710">  1  5  2 -1</clus>
<clus scale="   29.263">  2  5  1 -1</clus>
</clustering>
</event>
<event>
10    2  0.3984345E-006  0.3279154E+03  0.7546771E-02  0.1115665E+00
          2   -1    0    0  503    0 -0.00000000000E+00  0.00000000000E+00  0.67462309068E+03  0.67462309068E+03  0.00000000000E+00 0. -1.
         21   -1    0    0  501  502  0.00000000000E+00 -0.00000000000E+00 -0.29932301725E+03  0.29932301725E+03  0.00000000000E+00 0.  1.
         23    2    1    2    0    0  0.13295913486E+02 -0.43822365919E+02  0.21050445176E+03  0.23477334079E+03  0.93323181825E+02 0.  0.
         23    2    1    2    0    0 -0.63590568262E+02 -0.27791408687E+03  0.18039344944E+03  0.34940673810E+03  0.90902541063E+02 0.  0.
        -11    1    4    4    0    0 -0.28127024297E+02 -0.22173705681E+03  0.99310874764E+02  0.24458352706E+03  0.00000000000E+00 0.  1.
         11    1    4    4    0    0 -0.35463543965E+02 -0.56177030058E+02  0.81082574675E+02  0.10482321104E+03  0.00000000000E+00 0. -1.
        -11    1    3    3    0    0  0.47118362476E+02 -0.30319486608E+02  0.17562599601E+03  0.18434723168E+03  0.00000000000E+00 0.  1.
         11    1    3    3    0    0 -0.33822448990E+02 -0.13502879311E+02  0.34878455746E+02  0.50426109116E+02  0.00000000000E+00 0. -1.
         21    1    1    2  503  502  0.39368038197E+02  0.33892336522E+03  0.27286374759E+02  0.34229144916E+03  0.00000000000E+00 0.  1.
          2    1    1    2  501    0  0.10926616580E+02 -0.17186912425E+02 -0.42884202529E+02  0.47474579883E+02  0.00000000000E+00 0. -1.
<scales pt_clust_5="13000.00000" pt_clust_6="13000.00000" pt_clust_7="13000.00000" pt_clust_8="13000.00000" pt_clust_9="315.06388" pt_clust_10="20.36617"></scales>
<clustering>
<clus scale="   20.366">  2 10  1 -1</clus>
<clus scale="   90.903">  5  6 -1 -1</clus>
<clus scale="   93.323">  7  8 -1 -1</clus>
<clus scale="  104.370">  1  7  2 -1</clus>
<clus scale="  315.064">  2  9  1 -1</clus>
<clus scale="   20.366">  2  5  1 -1</clus>
</clustering>
</event>
<event>
10    2  0.3984345E-006  0.9909283E+02  0.7546771E-02  0.1290091E+00
         21   -1    0    0  501  502  0.00000000000E+00  0.00000000000E+00  0.14122151576E+03  0.14122151576E+03  0.00000000000E+00 0.  1.
          2   -1    0    0  503    0 -0.00000000000E+00 -0.00000000000E+00 -0.44864847968E+03  0.44864847968E+03  0.00000000000E+00 0. -1.
         23    2    1    2    0    0 -0.13482039016E+02 -0.66525292073E+02 -0.33223145764E+03  0.35112453336E+03  0.91122536294E+02 0.  0.
         23    2    1    2    0    0  0.23046250591E+02 -0.31426457716E+02  0.34499443323E+02  0.92142435294E+02  0.76034629489E+02 0.  0.
        -11    1    4    4    0    0  0.46348565833E+02 -0.27974030843E+02  0.40763370186E+02  0.67767162441E+02  0.00000000000E+00 0.  1.
         11    1    4    4    0    0 -0.23302315241E+02 -0.34524268729E+01 -0.62639268638E+01  0.24375272853E+02  0.00000000000E+00 0. -1.
        -13    1    3    3    0    0 -0.42482385129E+02 -0.63265257432E+02 -0.28961961610E+03  0.29947749143E+03  0.00000000000E+00 0. -1.
         13    1    3    3    0    0  0.29000346113E+02 -0.32600346404E+01 -0.42611841538E+02  0.51647041927E+02  0.00000000000E+00 0.  1.
         21    1    1    2  503  502  0.77398310464E+01  0.20749813290E+02 -0.52262487252E+02  0.56761142606E+02  0.00000000000E+00 0. -1.
          2    1    1    2  501    0 -0.17304042621E+02  0.77201936499E+02  0.42567537654E+02  0.89841884175E+02  0.00000000000E+00 0. -1.
<scales pt_clust_5="13000.00000" pt_clust_6="13000.00000" pt_clust_7="13000.00000" pt_clust_8="13000.00000" pt_clust_9="22.14633" pt_clust_10="80.23347"></scales>
<clustering>
<clus scale="   22.146">  2  9  1 -1</clus>
<clus scale="   76.035">  5  6 -1 -1</clus>
<clus scale="   80.233">  1 10  2 -1</clus>
<clus scale="   85.424">  1  5  2 -1</clus>
<clus scale="   91.123">  7  8 -1 -1</clus>
<clus scale="   80.233">  1  5  2 -1</clus>
</clustering>
</event>
<event>
10    2  0.3984345E-006  0.1139963E+03  0.7546771E-02  0.1255186E+00
         -3   -1    0    0    0  501 -0.00000000000E+00  0.00000000000E+00  0.48136438502E+02  0.48136438502E+02  0.00000000000E+00 0.  1.
         21   -1    0    0  503  502  0.00000000000E+00 -0.00000000000E+00 -0.60787467408E+03  0.60787467408E+03  0.00000000000E+00 0. -1.
         23    2    1    2    0    0  0.37110268591E+02 -0.29806244445E+02 -0.13776793887E+03  0.17515577774E+03  0.97128560428E+02 0.  0.
         23    2    1    2    0    0 -0.80226667703E+02  0.12725655611E+02 -0.20946013187E+03  0.24287747110E+03  0.92291162102E+02 0.  0.
        -11    1    4    4    0    0 -0.59917967005E+02  0.50994746521E+02 -0.14898955349E+03  0.16848891356E+03  0.00000000000E+00 0. -1.
         11    1    4    4    0    0 -0.20308700698E+02 -0.38269090910E+02 -0.60470578375E+02  0.74388557535E+02  0.00000000000E+00 0.  1.
        -13    1    3    3    0    0 -0.23399993540E+01 -0.57122290265E+02 -0.54128755974E+02  0.78729625080E+02  0.00000000000E+00 0.  1.
         13    1    3    3    0    0  0.39450267945E+02  0.27316045820E+02 -0.83639182900E+02  0.96426152658E+02  0.00000000000E+00 0. -1.
         21    1    1    2  503  501  0.94552665147E+01  0.23025118607E+02 -0.22891394082E+01  0.24995965893E+02  0.00000000000E+00 0.  1.
         -3    1    1    2    0  502  0.33661132597E+02 -0.59445297726E+01 -0.21022102543E+03  0.21298189786E+03  0.00000000000E+00 0.  1.
<scales pt_clust_5="13000.00000" pt_clust_6="13000.00000" pt_clust_7="13000.00000" pt_clust_8="13000.00000" pt_clust_9="24.89093" pt_clust_10="34.39328"></scales>
<clustering>
<clus scale="   24.891">  1  9  2 -1</clus>
<clus scale="   34.393">  2 10  1 -1</clus>
<clus scale="   92.291">  5  6 -1 -1</clus>
<clus scale="   97.129">  7  8 -1 -1</clus>
<clus scale="  109.904">  2  5  1 -1</clus>
<clus scale="   34.393">  2  5  1 -1</clus>
</clustering>
</event>
<event>
10    2  0.3984345E-006  0.1116261E+03  0.7546771E-02  0.1258315E+00
         21   -1    0    0  503  502  0.00000000000E+00  0.00000000000E+00  0.33677620536E+03  0.33677620536E+03  0.00000000000E+00 0.  1.
         -4   -1    0    0    0  501 -0.00000000000E+00 -0.00000000000E+00 -0.14973976984E+03  0.14973976984E+03  0.00000000000E+00 0.  1.
         23    2    1    2    0    0 -0.73001895826E+02  0.14259055570E+02 -0.76611046480E+02  0.13950255790E+03  0.89772566846E+02 0.  0.
         23    2    1    2    0    0  0.73204604863E+02  0.25261408705E+02  0.15706814810E+03  0.19768344709E+03  0.91713080650E+02 0.  0.
        -13    1    3    3    0    0 -0.63593881472E+02  0.47867466593E+02 -0.64864153762E+02  0.10267830619E+03  0.00000000000E+00 0.  1.
         13    1    3    3    0    0 -0.94080143539E+01 -0.33608411023E+02 -0.11746892719E+02  0.36824251711E+02  0.00000000000E+00 0. -1.
        -13    1    4    4    0    0  0.37229276486E+02  0.48390220948E+02  0.39854923849E+02  0.72911230041E+02  0.00000000000E+00 0.  1.
         13    1    4    4    0    0  0.35975328378E+02 -0.23128812243E+02  0.11721322425E+03  0.12477221705E+03  0.00000000000E+00 0. -1.
         21    1    1    2  503  501  0.14511535183E+02 -0.21495566940E+02 -0.11937390760E+02  0.28550750421E+02  0.00000000000E+00 0.  1.
         -4    1    1    2    0  502 -0.14714244220E+02 -0.18024897335E+02  0.11851672466E+03  0.12077921979E+03  0.00000000000E+00 0.  1.
<scales pt_clust_5="13000.00000" pt_clust_6="13000.00000" pt_clust_7="13000.00000" pt_clust_8="13000.00000" pt_clust_9="26.20581" pt_clust_10="23.26813"></scales>
<clustering>
<clus scale="   23.268">  1 10  2 -1</clus>
<clus scale="   26.206">  2  9  1 -1</clus>
<clus scale="   89.773">  5  6 -1 -1</clus>
<clus scale="   91.713">  7  8 -1 -1</clus>
<clus scale="  110.037">  2  5  1 -1</clus>
<clus scale="   23.268">  1  5  2 -1</clus>
</clustering>
</event>
<event>
10    2  0.3984345E-006  0.1335951E+03  0.7546771E-02  0.1222302E+00
         21   -1    0    0  501  502  0.00000000000E+00  0.00000000000E+00  0.47080681763E+03  0.47080681763E+03  0.00000000000E+00 0. -1.
          1   -1    0    0  503    0 -0.00000000000E+00 -0.00000000000E+00 -0.12612724405E+03  0.12612724405E+03  0.00000000000E+00 0. -1.
         23    2    1    2    0    0 -0.11973416690E+03 -0.39617824724E+02  0.61812622561E+02  0.16677639101E+03  0.89931760405E+02 0.  0.
         23    2    1    2    0    0  0.69142571160E+02  0.29666864184E+02  0.40345965461E+02  0.12374339196E+03  0.89575734142E+02 0.  0.
        -11    1    4    4    0    0  0.49159444102E+02 -0.13756696819E+02 -0.12428247267E+02  0.52539118587E+02  0.00000000000E+00 0.  1.
         11    1    4    4    0    0  0.19983127058E+02  0.43423561003E+02  0.52774212728E+02  0.71204273371E+02  0.00000000000E+00 0. -1.
        -11    1    3    3    0    0 -0.21612243962E+02 -0.26925781413E+02  0.58321737328E+02  0.67775451594E+02  0.00000000000E+00 0.  1.
         11    1    3    3    0    0 -0.98121922939E+02 -0.12692043311E+02  0.34908852327E+01  0.99000939411E+02  0.00000000000E+00 0. -1.
         21    1    1    2  503  502  0.23036582900E+02  0.35640807636E+02 -0.15857677208E+02  0.45303611855E+02  0.00000000000E+00 0. -1.
          1    1    1    2  501    0  0.27555012841E+02 -0.25689847097E+02  0.25837866277E+03  0.26111066686E+03  0.00000000000E+00 0. -1.
<scales pt_clust_5="13000.00000" pt_clust_6="13000.00000" pt_clust_7="13000.00000" pt_clust_8="13000.00000" pt_clust_9="42.05565" pt_clust_10="37.67289"></scales>
<clustering>
<clus scale="   37.673">  1 10  2 -1</clus>
<clus scale="   42.056">  2  9  1 -1</clus>
<clus scale="   89.576">  5  6 -1 -1</clus>
<clus scale="   89.932">  7  8 -1 -1</clus>
<clus scale="  133.356">  1  5  2 -1</clus>
<clus scale="   37.673">  1  5  2 -1</clus>
</clustering>
</event>
<event>
10    2  0.3984345E-006  0.9201834E+02  0.7546771E-02  0.1300395E+00
         21   -1    0    0  503  502  0.00000000000E+00  0.00000000000E+00  0.10686581942E+03  0.10686581942E+03  0.00000000000E+00 0. -1.
         -2   -1    0    0    0  501 -0.00000000000E+00 -0.00000000000E+00 -0.18554019291E+03  0.18554019291E+03  0.00000000000E+00 0.  1.
         23    2    1    2    0    0  0.44874969249E+02  0.86198281952E+01 -0.42638415873E+02  0.10713542009E+03  0.87016661780E+02 0.  0.
         23    2    1    2    0    0  0.24083680054E+02  0.71719232073E+01  0.30973518804E+01  0.94441129426E+02  0.90983917321E+02 0.  0.
        -11    1    3    3    0    0  0.52957212682E+02 -0.27534704257E+02 -0.35375262646E+02  0.69383251010E+02  0.00000000000E+00 0. -1.
         11    1    3    3    0    0 -0.80822434331E+01  0.36154532452E+02 -0.72631532276E+01  0.37752169084E+02  0.00000000000E+00 0.  1.
        -13    1    4    4    0    0 -0.34702490238E+02 -0.23686631020E+01  0.26513209243E+01  0.34884135309E+02  0.00000000000E+00 0.  1.
         13    1    4    4    0    0  0.58786170292E+02  0.95405863093E+01  0.44603095611E+00  0.59556994117E+02  0.00000000000E+00 0. -1.
         21    1    1    2  503  501 -0.23332383190E+02  0.15573042488E+01 -0.34661042121E+02  0.41811638843E+02  0.00000000000E+00 0. -1.
         -2    1    1    2    0  502 -0.45626266113E+02 -0.17349055651E+02 -0.44722673808E+01  0.49017823972E+02  0.00000000000E+00 0.  1.
<scales pt_clust_5="13000.00000" pt_clust_6="13000.00000" pt_clust_7="13000.00000" pt_clust_8="13000.00000" pt_clust_9="23.38430" pt_clust_10="52.70233"></scales>
<clustering>
<clus scale="   23.384">  2  9  1 -1</clus>
<clus scale="   52.702">  1 10  2 -1</clus>
<clus scale="   87.017">  5  6 -1 -1</clus>
<clus scale="   88.098">  2  5  1 -1</clus>
<clus scale="   90.984">  7  8 -1 -1</clus>
<clus scale="   52.702">  1  5  2 -1</clus>
</clustering>
</event>
<event>
10    2  0.3984345E-006  0.1054004E+03  0.7546771E-02  0.1269369E+00
         21   -1    0    0  501  502  0.00000000000E+00  0.00000000000E+00  0.94206181411E+02  0.94206181411E+02  0.00000000000E+00 0.  1.
          1   -1    0    0  503    0 -0.00000000000E+00 -0.00000000000E+00 -0.35231662580E+03  0.35231662580E+03  0.00000000000E+00 0. -1.
         23    2    1    2    0    0 -0.43840701682E+01  0.45733558482E+02 -0.67174945047E+02  0.12207660060E+03  0.90991454161E+02 0.  0.
         23    2    1    2    0    0 -0.33457470227E+01 -0.69466635913E+02 -0.41952968903E+00  0.11459578319E+03  0.91078043415E+02 0.  0.
        -11    1    3    3    0    0  0.37577210015E+02  0.16424214596E+02 -0.56461967366E+02  0.69783632010E+02  0.00000000000E+00 0.  1.
         11    1    3    3    0    0 -0.41961280183E+02  0.29309343886E+02 -0.10712977681E+02  0.52292968595E+02  0.00000000000E+00 0. -1.
        -13    1    4    4    0    0  0.34554762591E+02 -0.29853653738E+02  0.27258277548E+02  0.53181631736E+02  0.00000000000E+00 0.  1.
         13    1    4    4    0    0 -0.37900509614E+02 -0.39612982175E+02 -0.27677807237E+02  0.61414151457E+02  0.00000000000E+00 0. -1.
         21    1    1    2  503  502  0.25116049771E+02 -0.25758004331E+01 -0.17080785533E+03  0.17266376037E+03  0.00000000000E+00 0.  1.
          1    1    1    2  501    0 -0.17386232581E+02  0.26308877864E+02 -0.19708114322E+02  0.37186663038E+02  0.00000000000E+00 0. -1.
<scales pt_clust_5="13000.00000" pt_clust_6="13000.00000" pt_clust_7="13000.00000" pt_clust_8="13000.00000" pt_clust_9="25.24779" pt_clust_10="29.17750"></scales>
<clustering>
<clus scale="   25.248">  2  9  1 -1</clus>
<clus scale="   29.178">  1 10  2 -1</clus>
<clus scale="   90.991">  5  6 -1 -1</clus>
<clus scale="   91.078">  7  8 -1 -1</clus>
<clus scale="  105.326">  2  5  1 -1</clus>
<clus scale="   29.178">  1  5  2 -1</clus>
</clustering>
</event>
<event>
10    2  0.3984345E-006  0.2079306E+03  0.7546771E-02  0.1143316E+00
          1   -1    0    0  503    0 -0.00000000000E+00  0.00000000000E+00  0.23383766501E+03  0.23383766501E+03  0.00000000000E+00 0. -1.
         21   -1    0    0  501  502  0.00000000000E+00 -0.00000000000E+00 -0.53384020870E+03  0.53384020870E+03  0.00000000000E+00 0. -1.
         23    2    1    2    0    0  0.10588513026E+03 -0.91373121359E+02 -0.55432027436E+02  0.17697846254E+03  0.93209218541E+02 0.  0.
         23    2    1    2    0    0 -0.25676890396E+03  0.94114436727E+02 -0.83410664693E+02  0.30037584124E+03  0.92089683319E+02 0.  0.
        -11    1    4    4    0    0 -0.11110441554E+03  0.43529262249E+02 -0.84427556364E+02  0.14617455352E+03  0.00000000000E+00 0. -1.
         11    1    4    4    0    0 -0.14566448842E+03  0.50585174478E+02  0.10168916716E+01  0.15420128772E+03  0.00000000000E+00 0.  1.
        -13    1    3    3    0    0  0.76261164752E+02 -0.42399736795E+02  0.12502722090E+02  0.88146588076E+02  0.00000000000E+00 0.  1.
         13    1    3    3    0    0  0.29623965505E+02 -0.48973384564E+02 -0.67934749526E+02  0.88831874465E+02  0.00000000000E+00 0. -1.
         21    1    1    2  503  502 -0.18392317384E+02 -0.13966763792E+02  0.27959115312E+02  0.36263755440E+02  0.00000000000E+00 0. -1.
          1    1    1    2  501    0  0.16927609109E+03  0.11225448424E+02 -0.18911896687E+03  0.25405981449E+03  0.00000000000E+00 0. -1.
<scales pt_clust_5="13000.00000" pt_clust_6="13000.00000" pt_clust_7="13000.00000" pt_clust_8="13000.00000" pt_clust_9="23.09432" pt_clust_10="166.55772"></scales>
<clustering>
<clus scale="   23.094">  1  9  2 -1</clus>
<clus scale="   92.090">  5  6 -1 -1</clus>
<clus scale="   93.209">  7  8 -1 -1</clus>
<clus scale="  166.558">  2 10  1 -1</clus>
<clus scale="  207.431">  2  5  1 -1</clus>
<clus scale="  166.558">  2  5  1 -1</clus>
</clustering>
</event>
<event>
10    2  0.3984345E-006  0.1817712E+03  0.7546771E-02  0.1183520E+00
         21   -1    0    0  503  502  0.00000000000E+00  0.00000000000E+00  0.21774252775E+03  0.21774252775E+03  0.00000000000E+00 0.  1.
         -1   -1    0    0    0  501 -0.00000000000E+00 -0.00000000000E+00 -0.31310790651E+03  0.31310790651E+03  0.00000000000E+00 0.  1.
         23    2    1    2    0    0 -0.21573080363E-01  0.73371649498E+02 -0.11023811316E+02  0.12014512222E+03  0.94498288672E+02 0.  0.
         23    2    1    2    0    0  0.12374607869E+03  0.16940530630E+02 -0.11082357445E+03  0.18979950338E+03  0.90232550993E+02 0.  0.
        -11    1    3    3    0    0 -0.26425872134E+02  0.38720942099E+02 -0.44935887003E+02  0.64937446946E+02  0.00000000000E+00 0. -1.
         11    1    3    3    0    0  0.26404299053E+02  0.34650707400E+02  0.33912075688E+02  0.55207675275E+02  0.00000000000E+00 0.  1.
        -13    1    4    4    0    0  0.78221997806E+02  0.53586108967E+02 -0.58881261343E+02  0.11161162552E+03  0.00000000000E+00 0.  1.
         13    1    4    4    0    0  0.45524080884E+02 -0.36645578336E+02 -0.51942313111E+02  0.78187877854E+02  0.00000000000E+00 0. -1.
         21    1    1    2  503  501  0.17154102779E+02  0.18896476307E+02 -0.24634006506E+02  0.35470753241E+02  0.00000000000E+00 0. -1.
         -1    1    1    2    0  502 -0.14087860839E+03 -0.10920865644E+03  0.51116013511E+02  0.18543505542E+03  0.00000000000E+00 0.  1.
<scales pt_clust_5="13000.00000" pt_clust_6="13000.00000" pt_clust_7="13000.00000" pt_clust_8="13000.00000" pt_clust_9="25.52136" pt_clust_10="157.79367"></scales>
<clustering>
<clus scale="   25.521">  2  9  1 -1</clus>
<clus scale="   90.233">  7  8 -1 -1</clus>
<clus scale="   94.498">  5  6 -1 -1</clus>
<clus scale="  122.436">  2  5  1 -1</clus>
<clus scale="  157.794">  1 10  2 -1</clus>
<clus scale="  157.794">  1  5  2 -1</clus>
</clustering>
</event>
<event>
10    2  0.3984345E-006  0.1017252E+03  0.7546771E-02  0.1277021E+00
          1   -1    0    0  503    0 -0.00000000000E+00  0.00000000000E+00  0.71519592133E+03  0.71519592133E+03  0.00000000000E+00 0. -1.
         21   -1    0    0  501  502  0.00000000000E+00 -0.00000000000E+00 -0.18456466755E+03  0.18456466755E+03  0.00000000000E+00 0. -1.
         23    2    1    2    0    0 -0.36853629066E+02 -0.65717647462E+02  0.53713748308E+03  0.55025013921E+03  0.92636606204E+02 0.  0.
         23    2    1    2    0    0  0.48589563034E+02 -0.78739884429E+01 -0.13800809193E+03  0.17299763518E+03  0.91972838431E+02 0.  0.
        -11    1    3    3    0    0 -0.29546727745E+02  0.12504471289E+02  0.76411518660E+02  0.82873947092E+02  0.00000000000E+00 0.  1.
         11    1    3    3    0    0 -0.73069013211E+01 -0.78222118751E+02  0.46072596442E+03  0.46737619212E+03  0.00000000000E+00 0. -1.
        -11    1    4    4    0    0  0.30310800839E+02 -0.26385879716E+02 -0.14118131261E+03  0.14678938084E+03  0.00000000000E+00 0. -1.
         11    1    4    4    0    0  0.18278762195E+02  0.18511891274E+02  0.31732206846E+01  0.26208254338E+02  0.00000000000E+00 0.  1.
         21    1    1    2  503  502  0.11415517122E+02  0.34439369991E+02  0.12549296914E+03  0.13063257458E+03  0.00000000000E+00 0.  1.
          1    1    1    2  501    0 -0.23151451090E+02  0.39152265914E+02  0.60088934827E+01  0.45880239915E+02  0.00000000000E+00 0. -1.
<scales pt_clust_5="13000.00000" pt_clust_6="13000.00000" pt_clust_7="13000.00000" pt_clust_8="13000.00000" pt_clust_9="36.28201" pt_clust_10="46.55394"></scales>
<clustering>
<clus scale="   36.282">  1  9  2 -1</clus>
<clus scale="   46.554">  2 10  1 -1</clus>
<clus scale="   91.973">  7  8 -1 -1</clus>
<clus scale="   92.637">  5  6 -1 -1</clus>
<clus scale="  101.121">  2  7  1 -1</clus>
<clus scale="   46.554">  2  5  1 -1</clus>
</clustering>
</event>
<event>
10    2  0.3984345E-006  0.1553297E+03  0.7546771E-02  0.1194240E+00
          2   -1    0    0  503    0 -0.00000000000E+00  0.00000000000E+00  0.63871316968E+03  0.63871316968E+03  0.00000000000E+00 0. -1.
         21   -1    0    0  501  502  0.00000000000E+00 -0.00000000000E+00 -0.15808972864E+03  0.15808972864E+03  0.00000000000E+00 0. -1.
         23    2    1    2    0    0  0.14996645209E+03 -0.12435429533E+03  0.41836863534E+03  0.47027998726E+03  0.90426897927E+02 0.  0.
         23    2    1    2    0    0 -0.52673945082E+02  0.29920247346E+02  0.12809878284E+02  0.11039663981E+03  0.91397808549E+02 0.  0.
        -13    1    3    3    0    0  0.38993158160E+02  0.78136070235E+01  0.10904318714E+03  0.11606866717E+03  0.00000000000E+00 0.  1.
         13    1    3    3    0    0  0.11097329393E+03 -0.13216790235E+03  0.30932544820E+03  0.35421132009E+03  0.00000000000E+00 0. -1.
        -13    1    4    4    0    0  0.71950947825E+01 -0.23738445291E+02 -0.10126914628E+02  0.26792490994E+02  0.00000000000E+00 0.  1.
         13    1    4    4    0    0 -0.59869039865E+02  0.53658692637E+02  0.22936792912E+02  0.83604148814E+02  0.00000000000E+00 0. -1.
         21    1    1    2  503  502 -0.68122599297E+02 -0.42379848138E+01  0.83405286951E+02  0.10777333131E+03  0.00000000000E+00 0. -1.
          2    1    1    2  501    0 -0.29169907711E+02  0.98672032795E+02 -0.33960359534E+02  0.10835293993E+03  0.00000000000E+00 0. -1.
<scales pt_clust_5="13000.00000" pt_clust_6="13000.00000" pt_clust_7="13000.00000" pt_clust_8="13000.00000" pt_clust_9="68.25430" pt_clust_10="104.03753"></scales>
<clustering>
<clus scale="   68.254">  1  9  2 -1</clus>
<clus scale="   90.427">  5  6 -1 -1</clus>
<clus scale="   91.398">  7  8 -1 -1</clus>
<clus scale="  104.038">  2 10  1 -1</clus>
<clus scale="  154.760">  1  5  2 -1</clus>
<clus scale="  104.038">  2  5  1 -1</clus>
</clustering>
</event>
<event>
10    2  0.3984345E-006  0.1296767E+03  0.7546771E-02  0.1228198E+00
         21   -1    0    0  501  502  0.00000000000E+00  0.00000000000E+00  0.26359087216E+03  0.26359087216E+03  0.00000000000E+00 0.  1.
          4   -1    0    0  503    0 -0.00000000000E+00 -0.00000000000E+00 -0.52649103073E+03  0.52649103073E+03  0.00000000000E+00 0. -1.
         23    2    1    2    0    0 -0.76017775259E+02 -0.19398043633E+02 -0.41995683593E+03  0.43738568274E+03  0.93741693869E+02 0.  0.
         23    2    1    2    0    0  0.51309466749E+02  0.14937577343E+02  0.22975120946E+03  0.25347080658E+03  0.92768739063E+02 0.  0.
        -11    1    4    4    0    0  0.76694978387E+02  0.23587941141E+02  0.17259948883E+03  0.19033941847E+03  0.00000000000E+00 0.  1.
         11    1    4    4    0    0 -0.25385511638E+02 -0.86503637980E+01  0.57151720626E+02  0.63131388116E+02  0.00000000000E+00 0. -1.
        -11    1    3    3    0    0 -0.86516176838E+02  0.33421456599E+01 -0.38351405691E+03  0.39316567836E+03  0.00000000000E+00 0.  1.
         11    1    3    3    0    0  0.10498401579E+02 -0.22740189293E+02 -0.36442779025E+02  0.44220004386E+02  0.00000000000E+00 0. -1.
         21    1    1    2  503  502 -0.18135943588E+02  0.14781402847E+02 -0.23081593282E+02  0.32865822193E+02  0.00000000000E+00 0.  1.
          4    1    1    2  501    0  0.42844252098E+02 -0.10320936557E+02 -0.49612938816E+02  0.66359591373E+02  0.00000000000E+00 0. -1.
<scales pt_clust_5="13000.00000" pt_clust_6="13000.00000" pt_clust_7="13000.00000" pt_clust_8="13000.00000" pt_clust_9="23.39663" pt_clust_10="41.63301"></scales>
<clustering>
<clus scale="   23.397">  2  9  1 -1</clus>
<clus scale="   41.633">  1 10  2 -1</clus>
<clus scale="   92.769">  5  6 -1 -1</clus>
<clus scale="   93.742">  7  8 -1 -1</clus>
<clus scale="  128.975">  1  5  2 -1</clus>
<clus scale="   41.633">  1  5  2 -1</clus>
</clustering>
</event>
<event>
10    2  0.3984345E-006  0.1007202E+03  0.7546771E-02  0.1279538E+00
          1   -1    0    0  503    0 -0.00000000000E+00  0.00000000000E+00  0.31455795615E+03  0.31455795615E+03  0.00000000000E+00 0. -1.
         21   -1    0    0  501  502  0.00000000000E+00 -0.00000000000E+00 -0.18009225098E+03  0.18009225098E+03  0.00000000000E+00 0.  1.
         23    2    1    2    0    0 -0.26708199136E+02 -0.15327650461E+01  0.63980461333E+02  0.11516045781E+03  0.91938861974E+02 0.  0.
         23    2    1    2    0    0 -0.10314323362E+02 -0.28965040832E+02 -0.10732414218E+03  0.14363548296E+03  0.90373235050E+02 0.  0.
        -11    1    4    4    0    0 -0.38617440016E+02 -0.36308705676E+02 -0.10048137963E+03  0.11360517785E+03  0.00000000000E+00 0.  1.
         11    1    4    4    0    0  0.28303116654E+02  0.73436648437E+01 -0.68427625461E+01  0.30030305109E+02  0.00000000000E+00 0. -1.
        -11    1    3    3    0    0  0.28824517769E+02 -0.21267597038E+02  0.32385016782E+02  0.48290297373E+02  0.00000000000E+00 0.  1.
         11    1    3    3    0    0 -0.55532716905E+02  0.19734831992E+02  0.31595444552E+02  0.66870160438E+02  0.00000000000E+00 0. -1.
         21    1    1    2  503  502  0.96781284929E+01  0.71715697874E+02  0.17130763749E+03  0.18596535740E+03  0.00000000000E+00 0. -1.
          1    1    1    2  501    0  0.27344394005E+02 -0.41217891995E+02  0.65017485235E+01  0.49888908967E+02  0.00000000000E+00 0. -1.
<scales pt_clust_5="13000.00000" pt_clust_6="13000.00000" pt_clust_7="13000.00000" pt_clust_8="13000.00000" pt_clust_9="70.66115" pt_clust_10="49.46343"></scales>
<clustering>
<clus scale="   49.463">  2 10  1 -1</clus>
<clus scale="   70.661">  1  9  2 -1</clus>
<clus scale="   90.373">  5  6 -1 -1</clus>
<clus scale="   91.939">  7  8 -1 -1</clus>
<clus scale="   99.293">  2  5  1 -1</clus>
<clus scale="   49.463">  2  5  1 -1</clus>
</clustering>
</event>
<event>
10    2  0.3984345E-006  0.1413341E+03  0.7546771E-02  0.1211868E+00
          1   -1    0    0  503    0 -0.00000000000E+00  0.00000000000E+00  0.61841754876E+03  0.61841754876E+03  0.00000000000E+00 0. -1.
         21   -1    0    0  501  502  0.00000000000E+00 -0.00000000000E+00 -0.80235293650E+02  0.80235293650E+02  0.00000000000E+00 0. -1.
         23    2    1    2    0    0  0.12281649767E+03 -0.22911668998E+02  0.35025509436E+03  0.38276403813E+03  0.90668854006E+02 0.  0.
         23    2    1    2    0    0 -0.82692326480E+02  0.49768762756E+02  0.14099320173E+03  0.19272283646E+03  0.89151882492E+02 0.  0.
        -11    1    3    3    0    0  0.43569358228E+01 -0.31534058403E+02  0.44199908307E+02  0.54470282021E+02  0.00000000000E+00 0.  1.
         11    1    3    3    0    0  0.11845956185E+03  0.86223894053E+01  0.30605518605E+03  0.32829375611E+03  0.00000000000E+00 0. -1.
        -13    1    4    4    0    0 -0.12694265001E+02  0.56487169131E+02  0.43036545921E+02  0.72139371533E+02  0.00000000000E+00 0. -1.
         13    1    4    4    0    0 -0.69998061479E+02 -0.67184063749E+01  0.97956655812E+02  0.12058346492E+03  0.00000000000E+00 0.  1.
         21    1    1    2  503  502 -0.21375045321E+02 -0.19040497774E+02  0.79660527067E+02  0.84647697492E+02  0.00000000000E+00 0. -1.
          1    1    1    2  501    0 -0.18749125871E+02 -0.78165959839E+01 -0.32726568043E+02  0.38518270335E+02  0.00000000000E+00 0. -1.
<scales pt_clust_5="13000.00000" pt_clust_6="13000.00000" pt_clust_7="13000.00000" pt_clust_8="13000.00000" pt_clust_9="29.70118" pt_clust_10="20.31327"></scales>
<clustering>
<clus scale="   20.313">  2 10  1 -1</clus>
<clus scale="   29.701">  1  9  2 -1</clus>
<clus scale="   89.152">  7  8 -1 -1</clus>
<clus scale="   90.669">  5  6 -1 -1</clus>
<clus scale="  140.366">  2  7  1 -1</clus>
<clus scale="   20.313">  2  5  1 -1</clus>
</clustering>
</event>
<event>
10    2  0.3984345E-006  0.1030628E+03  0.7546771E-02  0.1275810E+00
         -1   -1    0    0    0  501 -0.00000000000E+00  0.00000000000E+00  0.10790645785E+03  0.10790645785E+03  0.00000000000E+00 0.  1.
         21   -1    0    0  503  502  0.00000000000E+00 -0.00000000000E+00 -0.45367315775E+03  0.45367315775E+03  0.00000000000E+00 0.  1.
         23    2    1    2    0    0 -0.19951503604E+01  0.99605910526E+01 -0.29026260360E+01  0.91281595787E+02  0.90668133832E+02 0.  0.
         23    2    1    2    0    0 -0.26152929391E+02  0.32750671743E+02 -0.19353720370E+03  0.21943718053E+03  0.94548637050E+02 0.  0.
        -11    1    4    4    0    0 -0.22558848531E+02 -0.21316550290E+02 -0.18337795016E+02  0.36049572665E+02  0.00000000000E+00 0.  1.
         11    1    4    4    0    0 -0.35940808604E+01  0.54067222033E+02 -0.17519940869E+03  0.18338760787E+03  0.00000000000E+00 0. -1.
        -11    1    3    3    0    0  0.26238916382E+01  0.36076832933E+02  0.31415329263E+02  0.47909765127E+02  0.00000000000E+00 0. -1.
         11    1    3    3    0    0 -0.46190419986E+01 -0.26116241880E+02 -0.34317955299E+02  0.43371830661E+02  0.00000000000E+00 0.  1.
         21    1    1    2  503  501  0.47975571750E+02 -0.59201162588E+02  0.20642303543E+02  0.78946423808E+02  0.00000000000E+00 0.  1.
         -1    1    1    2    0  502 -0.19827491999E+02  0.16489899792E+02 -0.16996917371E+03  0.17191441546E+03  0.00000000000E+00 0.  1.
<scales pt_clust_5="13000.00000" pt_clust_6="13000.00000" pt_clust_7="13000.00000" pt_clust_8="13000.00000" pt_clust_9="73.59367" pt_clust_10="25.78849"></scales>
<clustering>
<clus scale="   25.788">  2 10  1 -1</clus>
<clus scale="   73.594">  1  9  2 -1</clus>
<clus scale="   90.668">  7  8 -1 -1</clus>
<clus scale="   94.549">  5  6 -1 -1</clus>
<clus scale="   99.515">  1  7  2 -1</clus>
<clus scale="   25.788">  2  5  1 -1</clus>
</clustering>
</event>
<event>
10    2  0.3984345E-006  0.1057985E+03  0.7546771E-02  0.1269373E+00
         21   -1    0    0  503  502  0.00000000000E+00  0.00000000000E+00  0.33234474245E+03  0.33234474245E+03  0.00000000000E+00 0.  1.
         -1   -1    0    0    0  501 -0.00000000000E+00 -0.00000000000E+00 -0.17527707853E+03  0.17527707853E+03  0.00000000000E+00 0.  1.
         23    2    1    2    0    0 -0.25585118468E+02 -0.32927930881E+02 -0.87649586684E+02  0.13390608228E+03  0.92247178313E+02 0.  0.
         23    2    1    2    0    0 -0.19496779939E+02  0.49271508802E+02  0.75981271091E+02  0.12938786847E+03  0.90334162658E+02 0.  0.
        -13    1    4    4    0    0 -0.44213640749E+02  0.62590820740E+02  0.56704484895E+02  0.95330244290E+02  0.00000000000E+00 0.  1.
         13    1    4    4    0    0  0.24716860810E+02 -0.13319311938E+02  0.19276786196E+02  0.34057624181E+02  0.00000000000E+00 0. -1.
        -13    1    3    3    0    0 -0.53253841284E+02 -0.39611104960E+02 -0.37473882689E+02  0.76218784636E+02  0.00000000000E+00 0.  1.
         13    1    3    3    0    0  0.27668722816E+02  0.66831740792E+01 -0.50175703996E+02  0.57687297644E+02  0.00000000000E+00 0. -1.
         21    1    1    2  503  501 -0.60891333988E+01 -0.20677733523E+02 -0.31188753979E+02  0.37912855128E+02  0.00000000000E+00 0.  1.
         -1    1    1    2    0  502  0.51171031806E+02  0.43341556024E+01  0.19992473349E+03  0.20641501511E+03  0.00000000000E+00 0.  1.
<scales pt_clust_5="13000.00000" pt_clust_6="13000.00000" pt_clust_7="13000.00000" pt_clust_8="13000.00000" pt_clust_9="21.55565" pt_clust_10="51.17619"></scales>
<clustering>
<clus scale="   21.556">  2  9  1 -1</clus>
<clus scale="   51.176">  1 10  2 -1</clus>
<clus scale="   90.334">  5  6 -1 -1</clus>
<clus scale="   92.247">  7  8 -1 -1</clus>
<clus scale="  104.135">  1  5  2 -1</clus>
<clus scale="   51.176">  1  5  2 -1</clus>
</clustering>
</event>
<event>
10    2  0.3984345E-006  0.1229833E+03  0.7546771E-02  0.1240125E+00
         21   -1    0    0  501  502  0.00000000000E+00  0.00000000000E+00  0.16502948950E+03  0.16502948950E+03  0.00000000000E+00 0. -1.
          3   -1    0    0  503    0 -0.00000000000E+00 -0.00000000000E+00 -0.26880487304E+03  0.26880487304E+03  0.00000000000E+00 0. -1.
         23    2    1    2    0    0 -0.39458112341E+02  0.10126791421E+03 -0.93666498823E+02  0.16877664753E+03  0.88882004215E+02 0.  0.
         23    2    1    2    0    0  0.42963389628E+02 -0.30323741158E+02 -0.11488117351E+02  0.10910987610E+03  0.94908408981E+02 0.  0.
        -11    1    3    3    0    0 -0.69472812271E+01  0.10067795094E+03 -0.91443543894E+02  0.13618456683E+03  0.00000000000E+00 0. -1.
         11    1    3    3    0    0 -0.32510831114E+02  0.58996327241E+00 -0.22229549290E+01  0.32592080710E+02  0.00000000000E+00 0.  1.
        -13    1    4    4    0    0 -0.16539728695E+02 -0.44361646729E+02 -0.61068218064E+01  0.47736899757E+02  0.00000000000E+00 0.  1.
         13    1    4    4    0    0  0.59503118323E+02  0.14037905571E+02 -0.53812955442E+01  0.61372976339E+02  0.00000000000E+00 0. -1.
         21    1    1    2  503  502  0.53029992275E+01 -0.21069586375E+02 -0.67239451560E+02  0.70662529794E+02  0.00000000000E+00 0. -1.
          3    1    1    2  501    0 -0.88082765145E+01 -0.49874586676E+02  0.68618684190E+02  0.85285309118E+02  0.00000000000E+00 0. -1.
<scales pt_clust_5="13000.00000" pt_clust_6="13000.00000" pt_clust_7="13000.00000" pt_clust_8="13000.00000" pt_clust_9="21.72669" pt_clust_10="51.47445"></scales>
<clustering>
<clus scale="   21.727">  2  9  1 -1</clus>
<clus scale="   51.474">  1 10  2 -1</clus>
<clus scale="   88.882">  5  6 -1 -1</clus>
<clus scale="   94.908">  7  8 -1 -1</clus>
<clus scale="  118.395">  2  5  1 -1</clus>
<clus scale="   51.474">  1  5  2 -1</clus>
</clustering>
</event>
<event>
10    2  0.3984345E-006  0.1296571E+03  0.7546771E-02  0.1228557E+00
         21   -1    0    0  501  502  0.00000000000E+00  0.00000000000E+00  0.46073897562E+02  0.46073897562E+02  0.00000000000E+00 0.  1.
          1   -1    0    0  503    0 -0.00000000000E+00 -0.00000000000E+00 -0.98602134396E+03  0.98602134396E+03  0.00000000000E+00 0. -1.
         23    2    1    2    0    0  0.10598509944E+03  0.82829081615E+01 -0.30019304659E+03  0.33227786179E+03  0.94822277674E+02 0.  0.
         23    2    1    2    0    0 -0.52847577405E+02 -0.61868748762E+02 -0.35649595706E+03  0.37721924323E+03  0.92651937682E+02 0.  0.
        -11    1    3    3    0    0  0.24331880811E+02  0.84338482412E+01 -0.53037029062E+01  0.26292574702E+02  0.00000000000E+00 0.  1.
         11    1    3    3    0    0  0.81653218633E+02 -0.15094007974E+00 -0.29488934368E+03  0.30598528709E+03  0.00000000000E+00 0. -1.
        -13    1    4    4    0    0  0.17395033318E+02  0.12037582508E+02 -0.69586020083E+02  0.72730356576E+02  0.00000000000E+00 0. -1.
         13    1    4    4    0    0 -0.70242610723E+02 -0.73906331270E+02 -0.28690993697E+03  0.30448888666E+03  0.00000000000E+00 0.  1.
         21    1    1    2  503  502 -0.73669239362E+02  0.35639595289E+02 -0.28375874565E+03  0.29532416649E+03  0.00000000000E+00 0.  1.
          1    1    1    2  501    0  0.20531717324E+02  0.17946245311E+02  0.50030289922E+00  0.27273970009E+02  0.00000000000E+00 0. -1.
<scales pt_clust_5="13000.00000" pt_clust_6="13000.00000" pt_clust_7="13000.00000" pt_clust_8="13000.00000" pt_clust_9="80.04790" pt_clust_10="27.26938"></scales>
<clustering>
<clus scale="   27.269">  1 10  2 -1</clus>
<clus scale="   80.048">  2  9  1 -1</clus>
<clus scale="   92.652">  7  8 -1 -1</clus>
<clus scale="   94.822">  5  6 -1 -1</clus>
<clus scale="  128.078">  1  7  2 -1</clus>
<clus scale="   27.269">  1  5  2 -1</clus>
</clustering>
</event>
<event>
10    2  0.3984345E-006  0.9328705E+02  0.7546771E-02  0.1295369E+00
          1   -1    0    0  503    0 -0.00000000000E+00  0.00000000000E+00  0.45424934250E+03  0.45424934250E+03  0.00000000000E+00 0. -1.
         21   -1    0    0  501  502  0.00000000000E+00 -0.00000000000E+00 -0.72266912486E+02  0.72266912486E+02  0.00000000000E+00 0. -1.
         23    2    1    2    0    0  0.10449861314E+02 -0.62841915663E+01  0.29863577464E+03  0.31181006110E+03  0.88845358019E+02 0.  0.
         23    2    1    2    0    0 -0.23364039403E+02 -0.98476583868E+01  0.51524502558E+02  0.10622423171E+03  0.89364189283E+02 0.  0.
        -11    1    3    3    0    0  0.21378080762E+02  0.34185389698E+02  0.84711522297E+02  0.93817403586E+02  0.00000000000E+00 0.  1.
         11    1    3    3    0    0 -0.10928219448E+02 -0.40469581264E+02  0.21392425235E+03  0.21799265752E+03  0.00000000000E+00 0. -1.
        -13    1    4    4    0    0 -0.32078302013E+02  0.33843478044E+02  0.16188828886E+02  0.49360679157E+02  0.00000000000E+00 0.  1.
         13    1    4    4    0    0  0.87142626095E+01 -0.43691136431E+02  0.35335673671E+02  0.56863552556E+02  0.00000000000E+00 0. -1.
         21    1    1    2  503  502  0.23907347794E+02 -0.17392064809E+01  0.64970515361E+02  0.69251382542E+02  0.00000000000E+00 0. -1.
          1    1    1    2  501    0 -0.10993169705E+02  0.17871056434E+02 -0.33148362550E+02  0.39230579628E+02  0.00000000000E+00 0. -1.
<scales pt_clust_5="13000.00000" pt_clust_6="13000.00000" pt_clust_7="13000.00000" pt_clust_8="13000.00000" pt_clust_9="23.26504" pt_clust_10="20.98153"></scales>
<clustering>
<clus scale="   20.982">  2 10  1 -1</clus>
<clus scale="   23.265">  1  9  2 -1</clus>
<clus scale="   88.845">  5  6 -1 -1</clus>
<clus scale="   89.364">  7  8 -1 -1</clus>
<clus scale="   92.790">  1  5  2 -1</clus>
<clus scale="   20.982">  2  5  1 -1</clus>
</clustering>
</event>
<event>
10    2  0.3984345E-006  0.1041243E+03  0.7546771E-02  0.1275218E+00
          1   -1    0    0  503    0 -0.00000000000E+00  0.00000000000E+00  0.58805809488E+03  0.58805809488E+03  0.00000000000E+00 0. -1.
         21   -1    0    0  501  502  0.00000000000E+00 -0.00000000000E+00 -0.44465538161E+02  0.44465538161E+02  0.00000000000E+00 0.  1.
         23    2    1    2    0    0  0.10380222759E+02  0.51452524793E+02  0.24925783413E+03  0.27097632404E+03  0.92431536742E+02 0.  0.
         23    2    1    2    0    0 -0.10312693124E+02 -0.43648993480E+02  0.16266210287E+03  0.18894063983E+03  0.85017759310E+02 0.  0.
        -11    1    3    3    0    0  0.35276838729E+01  0.78017904845E+02  0.16935993973E+03  0.18649940272E+03  0.00000000000E+00 0.  1.
         11    1    3    3    0    0  0.68525388857E+01 -0.26565380052E+02  0.79897894402E+02  0.84476921324E+02  0.00000000000E+00 0. -1.
        -11    1    4    4    0    0  0.25331751133E+02 -0.32182748166E+02  0.13837837376E+03  0.14431216587E+03  0.00000000000E+00 0. -1.
         11    1    4    4    0    0 -0.35644444257E+02 -0.11466245314E+02  0.24283729107E+02  0.44628473952E+02  0.00000000000E+00 0.  1.
         21    1    1    2  503  502  0.22205756561E+02 -0.13586929450E+02  0.14411433086E+03  0.14644671603E+03  0.00000000000E+00 0. -1.
          1    1    1    2  501    0 -0.22273286196E+02  0.57833981371E+01 -0.12441711143E+02  0.26159953137E+02  0.00000000000E+00 0. -1.
<scales pt_clust_5="13000.00000" pt_clust_6="13000.00000" pt_clust_7="13000.00000" pt_clust_8="13000.00000" pt_clust_9="25.01426" pt_clust_10="23.01189"></scales>
<clustering>
<clus scale="   23.012">  2 10  1 -1</clus>
<clus scale="   25.014">  1  9  2 -1</clus>
<clus scale="   85.018">  7  8 -1 -1</clus>
<clus scale="   92.432">  5  6 -1 -1</clus>
<clus scale="   97.603">  2  7  1 -1</clus>
<clus scale="   23.012">  2  5  1 -1</clus>
</clustering>
</event>
