<event>
10    2  0.4951045E-006  0.2256512E+03  0.7546771E-02  0.1162882E+00
         21   -1    0    0  503  502  0.00000000000E+00  0.00000000000E+00  0.17586086243E+03  0.17586086243E+03  0.00000000000E+00 0. -1.
          2   -1    0    0  502    0 -0.00000000000E+00 -0.00000000000E+00 -0.29408576502E+03  0.29408576502E+03  0.00000000000E+00 0. -1.
         23    2    1    2    0    0 -0.21461993771E+02 -0.10655512510E+02 -0.11560443259E+03  0.15370165127E+03  0.98415728639E+02 0.  0.
         23    2    1    2    0    0  0.62821738165E+02  0.99171344673E+02 -0.61484688197E+02  0.16060350219E+03  0.90728119352E+02 0.  0.
        -11    1    3    3    0    0 -0.60233903285E+02 -0.14037924444E+01 -0.57845169197E+02  0.83523393954E+02  0.00000000000E+00 0. -1.
         11    1    3    3    0    0  0.38771909513E+02 -0.92517200653E+01 -0.57759263395E+02  0.70178257313E+02  0.00000000000E+00 0.  1.
        -13    1    4    4    0    0 -0.14315775958E+02  0.50011383485E+02 -0.42522150567E+02  0.67187894804E+02  0.00000000000E+00 0.  1.
         13    1    4    4    0    0  0.77137514122E+02  0.49159961189E+02 -0.18962537630E+02  0.93415607381E+02  0.00000000000E+00 0. -1.
         21    1    1    2  503  501 -0.17952263286E+02 -0.13251780263E+02  0.72317459755E+02  0.75681625397E+02  0.00000000000E+00 0. -1.
          2    1    1    2  501    0 -0.23407481107E+02 -0.75264051900E+02 -0.13453241554E+02  0.79959848603E+02  0.00000000000E+00 0. -1.
<scales pt_clust_5="13000.00000" pt_clust_6="13000.00000" pt_clust_7="13000.00000" pt_clust_8="13000.00000" pt_clust_9="22.31353" pt_clust_10="13000.00000"></scales>
<clustering>
<clus scale="   22.314">  1  9  2 -1</clus>
<clus scale="   90.728">  7  8 -1 -1</clus>
<clus scale="   84.801">  7 10 -1 -1</clus>
<clus scale="   98.416">  5  6 -1 -1</clus>
<clus scale="  102.343">  2  5  1 -1</clus>
<clus scale="   22.314">  1  5  2 -1</clus>
</clustering>
</event>
<event>
10    2  0.4951045E-006  0.1395305E+03  0.7546771E-02  0.1231551E+00
         -3   -1    0    0    0  501 -0.00000000000E+00  0.00000000000E+00  0.14952687197E+03  0.14952687197E+03  0.00000000000E+00 0.  1.
         21   -1    0    0  503  502  0.00000000000E+00 -0.00000000000E+00 -0.17823410032E+03  0.17823410032E+03  0.00000000000E+00 0. -1.
         23    2    1    2    0    0  0.27937325325E+02  0.78768164969E-01  0.65969736601E+02  0.11804192426E+03  0.93815720348E+02 0.  0.
         23    2    1    2    0    0 -0.34181783794E+02 -0.17813934961E+02 -0.81310254695E+02  0.12853892731E+03  0.91788712233E+02 0.  0.
        -11    1    4    4    0    0 -0.83898856786E+01  0.26643111702E+02  0.47161205225E+01  0.28328208126E+02  0.00000000000E+00 0.  1.
         11    1    4    4    0    0 -0.25791898115E+02 -0.44457046662E+02 -0.86026375218E+02  0.10021071918E+03  0.00000000000E+00 0. -1.
        -13    1    3    3    0    0  0.33710372754E+02  0.26989845147E+02  0.77086602745E+02  0.88358278022E+02  0.00000000000E+00 0. -1.
         13    1    3    3    0    0 -0.57730474285E+01 -0.26911076982E+02 -0.11116866144E+02  0.29683646235E+02  0.00000000000E+00 0.  1.
         21    1    1    2  503  501 -0.31919759309E+02  0.22698247825E+02  0.31631008890E+01  0.39294868570E+02  0.00000000000E+00 0. -1.
         -3    1    1    2    0  502  0.38164217777E+02 -0.49630810292E+01 -0.16529811141E+02  0.41885252157E+02  0.00000000000E+00 0.  1.
<scales pt_clust_5="13000.00000" pt_clust_6="13000.00000" pt_clust_7="13000.00000" pt_clust_8="13000.00000" pt_clust_9="39.16737" pt_clust_10="13000.00000"></scales>
<clustering>
<clus scale="   39.167">  2  9  1 -1</clus>
<clus scale="   91.789">  5  6 -1 -1</clus>
<clus scale="   32.354">  5 10 -1 -1</clus>
<clus scale="   93.816">  7  8 -1 -1</clus>
<clus scale="   96.608">  1  7  2 -1</clus>
<clus scale="   39.167">  2  5  1 -1</clus>
</clustering>
</event>
<event>
10    2  0.4951045E-006  0.4637763E+03  0.7546771E-02  0.1076883E+00
          2   -1    0    0  503    0 -0.00000000000E+00  0.00000000000E+00  0.77794992292E+03  0.77794992292E+03  0.00000000000E+00 0. -1.
         21   -1    0    0  501  502  0.00000000000E+00 -0.00000000000E+00 -0.14856271718E+03  0.14856271718E+03  0.00000000000E+00 0. -1.
         23    2    1    2    0    0 -0.43638177401E+02  0.34743689989E+01  0.11374251426E+03  0.15255054007E+03  0.91749364904E+02 0.  0.
         23    2    1    2    0    0  0.58275837964E+02  0.55340782105E+01  0.53853690976E+03  0.54968297629E+03  0.93288112518E+02 0.  0.
        -13    1    4    4    0    0  0.19030343622E+01 -0.38162628592E+02  0.16146296264E+03  0.16592256045E+03  0.00000000000E+00 0.  1.
         13    1    4    4    0    0  0.56372803601E+02  0.43696706803E+02  0.37707394712E+03  0.38376041584E+03  0.00000000000E+00 0. -1.
        -13    1    3    3    0    0 -0.61440959388E+02 -0.22601084748E+02  0.96399866220E+02  0.11652782813E+03  0.00000000000E+00 0. -1.
         13    1    3    3    0    0  0.17802781987E+02  0.26075453747E+02  0.17342648038E+02  0.36022711940E+02  0.00000000000E+00 0.  1.
         21    1    1    2  503  502 -0.69456507740E+01 -0.10148252629E+03  0.43036371877E+02  0.11044942060E+03  0.00000000000E+00 0. -1.
          2    1    1    2  501    0 -0.76920097883E+01  0.92474079083E+02 -0.65928590152E+02  0.11382970314E+03  0.00000000000E+00 0. -1.
<scales pt_clust_5="13000.00000" pt_clust_6="13000.00000" pt_clust_7="13000.00000" pt_clust_8="13000.00000" pt_clust_9="101.79543" pt_clust_10="13000.00000"></scales>
<clustering>
<clus scale="   91.749">  7  8 -1 -1</clus>
<clus scale="   93.288">  5  6 -1 -1</clus>
<clus scale="   92.793">  5 10 -1 -1</clus>
<clus scale="  101.658">  1  7  2 -1</clus>
<clus scale="  101.795">  2  9  1 -1</clus>
<clus scale="  101.795">  2  5  1 -1</clus>
</clustering>
</event>
<event>
10    2  0.4951045E-006  0.3191141E+03  0.7546771E-02  0.1114474E+00
         21   -1    0    0  501  502  0.00000000000E+00  0.00000000000E+00  0.21091075262E+03  0.21091075262E+03  0.00000000000E+00 0. -1.
          2   -1    0    0  503    0 -0.00000000000E+00 -0.00000000000E+00 -0.78676269462E+03  0.78676269462E+03  0.00000000000E+00 0. -1.
         23    2    1    2    0    0  0.56638788659E+02 -0.14725308650E+01 -0.23063329353E+02  0.11895983333E+03  0.10202648703E+03 0.  0.
         23    2    1    2    0    0  0.99063565660E+02 -0.13968199302E+03 -0.48190573326E+03  0.51928970644E+03  0.90022298580E+02 0.  0.
        -11    1    4    4    0    0  0.55252370718E+02 -0.13860196784E+03 -0.38644493779E+03  0.41424994859E+03  0.00000000000E+00 0. -1.
         11    1    4    4    0    0  0.43811194941E+02 -0.10800251791E+01 -0.95460795473E+02  0.10503975785E+03  0.00000000000E+00 0.  1.
        -13    1    3    3    0    0 -0.27468977188E+02 -0.59538547529E+00  0.90472210233E+01  0.28926655525E+02  0.00000000000E+00 0.  1.
         13    1    3    3    0    0  0.84107765847E+02 -0.87714538971E+00 -0.32110550376E+02  0.90033177802E+02  0.00000000000E+00 0. -1.
         21    1    1    2  503  502 -0.64027246633E+02  0.18936441274E+03  0.44063189072E+02  0.20469473309E+03  0.00000000000E+00 0. -1.
          2    1    1    2  501    0 -0.91675107686E+02 -0.48209888853E+02 -0.11494606845E+03  0.15472917438E+03  0.00000000000E+00 0. -1.
<scales pt_clust_5="13000.00000" pt_clust_6="13000.00000" pt_clust_7="13000.00000" pt_clust_8="13000.00000" pt_clust_9="197.79372" pt_clust_10="13000.00000"></scales>
<clustering>
<clus scale="   90.022">  5  6 -1 -1</clus>
<clus scale="  102.026">  7  8 -1 -1</clus>
<clus scale="  103.579">  5 10 -1 -1</clus>
<clus scale="  116.703">  2  7  1 -1</clus>
<clus scale="  197.794">  1  9  2 -1</clus>
<clus scale="  197.794">  1  5  2 -1</clus>
</clustering>
</event>
<event>
10    2  0.4951045E-006  0.2305510E+03  0.7546771E-02  0.1158265E+00
         -1   -1    0    0    0  501 -0.00000000000E+00  0.00000000000E+00  0.14961680947E+03  0.14961680947E+03  0.00000000000E+00 0.  1.
         21   -1    0    0  501  502  0.00000000000E+00 -0.00000000000E+00 -0.11250728730E+04  0.11250728730E+04  0.00000000000E+00 0. -1.
         23    2    1    2    0    0  0.58379736392E+02 -0.34265196358E+02  0.27875167521E+02  0.12048591484E+03  0.95695001996E+02 0.  0.
         23    2    1    2    0    0 -0.21579907111E+01  0.48841249240E+02  0.23898071469E+02  0.10515779872E+03  0.89982888704E+02 0.  0.
        -11    1    4    4    0    0 -0.25394987353E+02  0.64676654292E+02  0.19916131810E+01  0.69512168116E+02  0.00000000000E+00 0. -1.
         11    1    4    4    0    0  0.23236996641E+02 -0.15835405053E+02  0.21906458288E+02  0.35645630599E+02  0.00000000000E+00 0.  1.
        -13    1    3    3    0    0  0.42409342917E+02  0.90908848694E+01  0.52524793417E+02  0.68117915982E+02  0.00000000000E+00 0.  1.
         13    1    3    3    0    0  0.15970393475E+02 -0.43356081228E+02 -0.24649625896E+02  0.52367998854E+02  0.00000000000E+00 0. -1.
         21    1    1    2  503  502 -0.11354154291E+03  0.16918451133E+02 -0.88602609032E+03  0.89343166985E+03  0.00000000000E+00 0. -1.
         -1    1    1    2    0  503  0.57319797234E+02 -0.31494504014E+02 -0.14120321218E+03  0.15561429905E+03  0.00000000000E+00 0.  1.
<scales pt_clust_5="13000.00000" pt_clust_6="13000.00000" pt_clust_7="13000.00000" pt_clust_8="13000.00000" pt_clust_9="114.79510" pt_clust_10="13000.00000"></scales>
<clustering>
<clus scale="   89.983">  5  6 -1 -1</clus>
<clus scale="   65.402">  5 10 -1 -1</clus>
<clus scale="   95.695">  7  8 -1 -1</clus>
<clus scale="  114.795">  2  9  1 -1</clus>
<clus scale="  106.834">  1  7  2 -1</clus>
<clus scale="  114.795">  2  5  1 -1</clus>
</clustering>
</event>
<event>
10    2  0.4951045E-006  0.1648002E+03  0.7546771E-02  0.1195063E+00
         21   -1    0    0  501  502  0.00000000000E+00  0.00000000000E+00  0.60527306155E+02  0.60527306155E+02  0.00000000000E+00 0. -1.
         -1   -1    0    0    0  501 -0.00000000000E+00 -0.00000000000E+00 -0.52897259990E+03  0.52897259990E+03  0.00000000000E+00 0.  1.
         23    2    1    2    0    0  0.25023642301E+02 -0.75128786922E+02 -0.15716098658E+03  0.19934633181E+03  0.93642228742E+02 0.  0.
         23    2    1    2    0    0  0.82982354752E+01  0.86515616523E+02 -0.25031061500E+03  0.28788791729E+03  0.11256214429E+03 0.  0.
        -11    1    3    3    0    0 -0.68715028959E+01 -0.53216413709E+02 -0.20713078686E+02  0.57517265831E+02  0.00000000000E+00 0. -1.
         11    1    3    3    0    0  0.31895145196E+02 -0.21912373213E+02 -0.13644790789E+03  0.14182906598E+03  0.00000000000E+00 0.  1.
        -13    1    4    4    0    0  0.21218610461E+02  0.10633378799E+03 -0.15162478445E+03  0.18640595258E+03  0.00000000000E+00 0.  1.
         13    1    4    4    0    0 -0.12920374986E+02 -0.19818171469E+02 -0.98685830549E+02  0.10148196471E+03  0.00000000000E+00 0. -1.
         21    1    1    2  503  502 -0.10390078470E+02 -0.17329644971E+02  0.13376839913E+02  0.24232419844E+02  0.00000000000E+00 0. -1.
         -1    1    1    2    0  503 -0.22931799305E+02  0.59428153700E+01 -0.74350532077E+02  0.78033237111E+02  0.00000000000E+00 0.  1.
<scales pt_clust_5="13000.00000" pt_clust_6="13000.00000" pt_clust_7="13000.00000" pt_clust_8="13000.00000" pt_clust_9="20.20570" pt_clust_10="13000.00000"></scales>
<clustering>
<clus scale="   20.206">  1  9  2 -1</clus>
<clus scale="   93.642">  5  6 -1 -1</clus>
<clus scale="  112.562">  7  8 -1 -1</clus>
<clus scale="   23.957">  7 10 -1 -1</clus>
<clus scale="  127.268">  2  5  1 -1</clus>
<clus scale="   20.206">  1  5  2 -1</clus>
</clustering>
</event>
<event>
10    2  0.4951045E-006  0.3697280E+03  0.7546771E-02  0.1088053E+00
          2   -1    0    0  503    0 -0.00000000000E+00  0.00000000000E+00  0.68857256467E+02  0.68857256467E+02  0.00000000000E+00 0. -1.
         21   -1    0    0  501  502  0.00000000000E+00 -0.00000000000E+00 -0.14195024505E+04  0.14195024505E+04  0.00000000000E+00 0. -1.
         23    2    1    2    0    0  0.11497181570E+03  0.19791339843E+02 -0.12351246886E+03  0.19217907967E+03  0.89817888869E+02 0.  0.
         23    2    1    2    0    0 -0.88241369601E+02 -0.97728010235E+02 -0.21257312726E+03  0.26521223231E+03  0.88390556278E+02 0.  0.
        -13    1    3    3    0    0  0.13795251983E+02  0.30758215109E+02 -0.68847838021E+02  0.76657690900E+02  0.00000000000E+00 0.  1.
         13    1    3    3    0    0  0.10117656372E+03 -0.10966875266E+02 -0.54664630838E+02  0.11552138877E+03  0.00000000000E+00 0. -1.
        -13    1    4    4    0    0 -0.26895391250E+02  0.13701803723E+02 -0.28861694879E+02  0.41762410456E+02  0.00000000000E+00 0. -1.
         13    1    4    4    0    0 -0.61345978351E+02 -0.11142981396E+03 -0.18371143238E+03  0.22344982185E+03  0.00000000000E+00 0.  1.
         21    1    1    2  503  502  0.21005061504E+02 -0.34361446043E+02 -0.92730837948E+02  0.10109861468E+03  0.00000000000E+00 0.  1.
          2    1    1    2  501    0 -0.47735507601E+02  0.11229811643E+03 -0.92182876001E+03  0.92986978036E+03  0.00000000000E+00 0. -1.
<scales pt_clust_5="13000.00000" pt_clust_6="13000.00000" pt_clust_7="13000.00000" pt_clust_8="13000.00000" pt_clust_9="40.27309" pt_clust_10="13000.00000"></scales>
<clustering>
<clus scale="   40.273">  2  9  1 -1</clus>
<clus scale="   88.391">  7  8 -1 -1</clus>
<clus scale="   89.818">  5  6 -1 -1</clus>
<clus scale="   94.224">  7 10 -1 -1</clus>
<clus scale="  148.710">  1  5  2 -1</clus>
<clus scale="   40.273">  2  5  1 -1</clus>
</clustering>
</event>
<event>
10    2  0.4951045E-006  0.1807519E+03  0.7546771E-02  0.1192951E+00
         21   -1    0    0  501  502  0.00000000000E+00  0.00000000000E+00  0.52602130778E+02  0.52602130778E+02  0.00000000000E+00 0. -1.
          1   -1    0    0  503    0 -0.00000000000E+00 -0.00000000000E+00 -0.49930830700E+03  0.49930830700E+03  0.00000000000E+00 0. -1.
         23    2    1    2    0    0  0.11067384121E+01 -0.41223722809E+02 -0.16184424141E+03  0.18929869652E+03  0.89105655469E+02 0.  0.
         23    2    1    2    0    0  0.29141318851E+02  0.83906792070E+02 -0.19423537963E+03  0.23223135522E+03  0.91183624784E+02 0.  0.
        -11    1    4    4    0    0  0.35849335177E+01  0.85371621107E+02 -0.18705173799E+03  0.20564415412E+03  0.00000000000E+00 0. -1.
         11    1    4    4    0    0  0.25556385333E+02 -0.14648290370E+01 -0.71836416447E+01  0.26587201107E+02  0.00000000000E+00 0.  1.
        -13    1    3    3    0    0 -0.39022529735E+02 -0.11161290784E+02 -0.10965716304E+03  0.11692743752E+03  0.00000000000E+00 0. -1.
         13    1    3    3    0    0  0.40129268147E+02 -0.30062432026E+02 -0.52187078368E+02  0.72371259005E+02  0.00000000000E+00 0.  1.
         21    1    1    2  503  502  0.21909202757E+02 -0.17289927343E+02 -0.72983805858E+01  0.28848242791E+02  0.00000000000E+00 0.  1.
          1    1    1    2  501    0 -0.52157260020E+02 -0.25393141918E+02 -0.83328174600E+02  0.10153214324E+03  0.00000000000E+00 0. -1.
<scales pt_clust_5="13000.00000" pt_clust_6="13000.00000" pt_clust_7="13000.00000" pt_clust_8="13000.00000" pt_clust_9="27.90976" pt_clust_10="13000.00000"></scales>
<clustering>
<clus scale="   27.910">  1  9  2 -1</clus>
<clus scale="   89.106">  7  8 -1 -1</clus>
<clus scale="   91.184">  5  6 -1 -1</clus>
<clus scale="   55.640">  5 10 -1 -1</clus>
<clus scale="  101.035">  2  7  1 -1</clus>
<clus scale="   27.910">  1  5  2 -1</clus>
</clustering>
</event>
<event>
10    2  0.4951045E-006  0.2857014E+03  0.7546771E-02  0.1111780E+00
          1   -1    0    0  503    0 -0.00000000000E+00  0.00000000000E+00  0.37270008104E+03  0.37270008104E+03  0.00000000000E+00 0. -1.
         21   -1    0    0  501  502  0.00000000000E+00 -0.00000000000E+00 -0.17006240076E+03  0.17006240076E+03  0.00000000000E+00 0. -1.
         23    2    1    2    0    0 -0.14535111201E+03 -0.12550424178E+02  0.10329932256E+03  0.20090077040E+03  0.91683753176E+02 0.  0.
         23    2    1    2    0    0 -0.85418189641E+01  0.58745779047E+02  0.10005394939E+03  0.14677290812E+03  0.89484437432E+02 0.  0.
        -13    1    4    4    0    0 -0.42793460662E+02  0.44066398686E+01  0.36593984328E+02  0.56478477665E+02  0.00000000000E+00 0.  1.
         13    1    4    4    0    0  0.34251641697E+02  0.54339139179E+02  0.63459965063E+02  0.90294430456E+02  0.00000000000E+00 0. -1.
        -13    1    3    3    0    0 -0.93303669670E+02 -0.38524481232E+02  0.10083588713E+03  0.14268001458E+03  0.00000000000E+00 0. -1.
         13    1    3    3    0    0 -0.52047442336E+02  0.25974057054E+02  0.24634354314E+01  0.58220755815E+02  0.00000000000E+00 0.  1.
         21    1    1    2  503  502 -0.20985759689E+01 -0.37273541434E+02  0.94563773478E+01  0.38511608441E+02  0.00000000000E+00 0. -1.
          1    1    1    2  501    0  0.15599150694E+03 -0.89218134352E+01 -0.10171969022E+02  0.15657719485E+03  0.00000000000E+00 0. -1.
<scales pt_clust_5="13000.00000" pt_clust_6="13000.00000" pt_clust_7="13000.00000" pt_clust_8="13000.00000" pt_clust_9="37.33257" pt_clust_10="13000.00000"></scales>
<clustering>
<clus scale="   37.333">  2  9  1 -1</clus>
<clus scale="   89.484">  5  6 -1 -1</clus>
<clus scale="   91.684">  7  8 -1 -1</clus>
<clus scale="  157.541">  5 10 -1 -1</clus>
<clus scale="  174.105">  1  7  2 -1</clus>
<clus scale="   37.333">  2  5  1 -1</clus>
</clustering>
</event>
<event>
10    2  0.4951045E-006  0.1432507E+03  0.7546771E-02  0.1225626E+00
          1   -1    0    0  503    0 -0.00000000000E+00  0.00000000000E+00  0.33629999126E+03  0.33629999126E+03  0.00000000000E+00 0. -1.
         21   -1    0    0  501  502  0.00000000000E+00 -0.00000000000E+00 -0.59755636284E+02  0.59755636284E+02  0.00000000000E+00 0. -1.
         23    2    1    2    0    0 -0.10589239807E+02  0.45284008612E+02  0.13103184098E+03  0.16629531027E+03  0.91225070190E+02 0.  0.
         23    2    1    2    0    0  0.23899262180E+02 -0.20703590831E+02  0.87728407260E+02  0.13332845436E+03  0.95291079827E+02 0.  0.
        -11    1    3    3    0    0 -0.11301273764E+02 -0.25391042153E+02  0.59829443226E+02  0.65969584560E+02  0.00000000000E+00 0.  1.
         11    1    3    3    0    0  0.71203395727E+00  0.70675050765E+02  0.71202397755E+02  0.10032572571E+03  0.00000000000E+00 0. -1.
        -13    1    4    4    0    0  0.60569577255E+02 -0.12004036130E+02  0.63224104065E+02  0.88374532005E+02  0.00000000000E+00 0. -1.
         13    1    4    4    0    0 -0.36670315075E+02 -0.86995547005E+01  0.24504303195E+02  0.44953922351E+02  0.00000000000E+00 0.  1.
         21    1    1    2  503  502  0.20990424925E+02 -0.57311279131E+01 -0.51132988479E+01  0.22351500862E+02  0.00000000000E+00 0. -1.
          1    1    1    2  501    0 -0.34300447297E+02 -0.18849289868E+02  0.62897405579E+02  0.74080362053E+02  0.00000000000E+00 0. -1.
<scales pt_clust_5="13000.00000" pt_clust_6="13000.00000" pt_clust_7="13000.00000" pt_clust_8="13000.00000" pt_clust_9="21.75876" pt_clust_10="13000.00000"></scales>
<clustering>
<clus scale="   21.759">  2  9  1 -1</clus>
<clus scale="   91.225">  5  6 -1 -1</clus>
<clus scale="   95.291">  7  8 -1 -1</clus>
<clus scale="   37.284">  7 10 -1 -1</clus>
<clus scale="  100.921">  1  5  2 -1</clus>
<clus scale="   21.759">  2  5  1 -1</clus>
</clustering>
</event>
<event>
10    2  0.4951045E-006  0.3280082E+03  0.7546771E-02  0.1088770E+00
          1   -1    0    0  502    0 -0.00000000000E+00  0.00000000000E+00  0.33988393301E+03  0.33988393301E+03  0.00000000000E+00 0. -1.
         21   -1    0    0  503  502  0.00000000000E+00 -0.00000000000E+00 -0.41408579572E+03  0.41408579572E+03  0.00000000000E+00 0. -1.
         23    2    1    2    0    0  0.16679465978E+03 -0.65909231295E+02  0.20281616565E+02  0.20226114536E+03  0.91289329331E+02 0.  0.
         23    2    1    2    0    0 -0.48597262853E+02  0.12947025163E+03  0.13336554945E+03  0.21618330726E+03  0.99119183530E+02 0.  0.
        -11    1    4    4    0    0  0.20900255096E+02  0.34491824350E+02  0.74215541031E+02  0.84465692092E+02  0.00000000000E+00 0.  1.
         11    1    4    4    0    0 -0.69497517948E+02  0.94978427283E+02  0.59150008424E+02  0.13171761517E+03  0.00000000000E+00 0. -1.
        -13    1    3    3    0    0  0.13871787031E+03 -0.10803977561E+02  0.93039226526E+01  0.13944868752E+03  0.00000000000E+00 0. -1.
         13    1    3    3    0    0  0.28076789472E+02 -0.55105253734E+02  0.10977693912E+02  0.62812457839E+02  0.00000000000E+00 0.  1.
         21    1    1    2  503  501  0.91044533596E+01 -0.30446768067E+02 -0.19814190682E+03  0.20067414381E+03  0.00000000000E+00 0. -1.
          1    1    1    2  501    0 -0.12730185028E+03 -0.33114252270E+02 -0.29707121910E+02  0.13485113230E+03  0.00000000000E+00 0. -1.
<scales pt_clust_5="13000.00000" pt_clust_6="13000.00000" pt_clust_7="13000.00000" pt_clust_8="13000.00000" pt_clust_9="31.77887" pt_clust_10="13000.00000"></scales>
<clustering>
<clus scale="   31.779">  2  9  1 -1</clus>
<clus scale="   91.289">  7  8 -1 -1</clus>
<clus scale="   99.119">  5  6 -1 -1</clus>
<clus scale="  131.663">  5 10 -1 -1</clus>
<clus scale="  208.969">  1  7  2 -1</clus>
<clus scale="   31.779">  2  5  1 -1</clus>
</clustering>
</event>
<event>
10    2  0.4951045E-006  0.1493839E+03  0.7546771E-02  0.1222849E+00
         21   -1    0    0  503  502  0.00000000000E+00  0.00000000000E+00  0.12901803936E+03  0.12901803936E+03  0.00000000000E+00 0. -1.
         -4   -1    0    0    0  501 -0.00000000000E+00 -0.00000000000E+00 -0.33467288588E+03  0.33467288588E+03  0.00000000000E+00 0.  1.
         23    2    1    2    0    0  0.24152023094E+02 -0.45424461801E+01 -0.20088284505E+03  0.22185161393E+03  0.90886011747E+02 0.  0.
         23    2    1    2    0    0 -0.28980254041E+02 -0.14901045107E+02 -0.54526936422E+02  0.11170125748E+03  0.91880835099E+02 0.  0.
        -11    1    4    4    0    0  0.89360677787E+01 -0.30200901202E+02  0.11925859049E+02  0.33677497752E+02  0.00000000000E+00 0. -1.
         11    1    4    4    0    0 -0.37916321820E+02  0.15299856095E+02 -0.66452795472E+02  0.78023759733E+02  0.00000000000E+00 0.  1.
        -11    1    3    3    0    0  0.50924639564E+02 -0.17409233276E+02 -0.17275221962E+03  0.18094123273E+03  0.00000000000E+00 0. -1.
         11    1    3    3    0    0 -0.26772616470E+02  0.12866787096E+02 -0.28130625423E+02  0.40910381195E+02  0.00000000000E+00 0.  1.
         21    1    1    2  503  501 -0.73023516125E+01 -0.33599857619E+02  0.65083001543E+02  0.73607553015E+02  0.00000000000E+00 0. -1.
         -4    1    1    2    0  502  0.12130582560E+02  0.53043348907E+02 -0.15328066594E+02  0.56530500811E+02  0.00000000000E+00 0.  1.
<scales pt_clust_5="13000.00000" pt_clust_6="13000.00000" pt_clust_7="13000.00000" pt_clust_8="13000.00000" pt_clust_9="34.38422" pt_clust_10="13000.00000"></scales>
<clustering>
<clus scale="   34.384">  1  9  2 -1</clus>
<clus scale="   90.886">  7  8 -1 -1</clus>
<clus scale="   91.881">  5  6 -1 -1</clus>
<clus scale="   42.543">  5 10 -1 -1</clus>
<clus scale="   94.299">  2  7  1 -1</clus>
<clus scale="   34.384">  1  5  2 -1</clus>
</clustering>
</event>
<event>
10    2  0.4951045E-006  0.3112474E+03  0.7546771E-02  0.1108178E+00
          1   -1    0    0  502    0 -0.00000000000E+00  0.00000000000E+00  0.52285980497E+03  0.52285980497E+03  0.00000000000E+00 0. -1.
         21   -1    0    0  503  502  0.00000000000E+00 -0.00000000000E+00 -0.12470455840E+03  0.12470455840E+03  0.00000000000E+00 0. -1.
         23    2    1    2    0    0 -0.74793067667E+02  0.87887592188E+02  0.35411315614E+02  0.15120466327E+03  0.91053045464E+02 0.  0.
         23    2    1    2    0    0 -0.92294154064E+01 -0.15368053603E+03  0.25196188539E+03  0.30898736428E+03  0.91024778666E+02 0.  0.
        -11    1    4    4    0    0  0.40239196894E+02 -0.85322874936E+02  0.12693131712E+03  0.15814785873E+03  0.00000000000E+00 0.  1.
         11    1    4    4    0    0 -0.49468612300E+02 -0.68357661093E+02  0.12503056827E+03  0.15083950555E+03  0.00000000000E+00 0. -1.
        -13    1    3    3    0    0 -0.70641424263E+02  0.54608893601E+02 -0.15118010226E+02  0.90558800320E+02  0.00000000000E+00 0. -1.
         13    1    3    3    0    0 -0.41516434039E+01  0.33278698587E+02  0.50529325840E+02  0.60645862946E+02  0.00000000000E+00 0.  1.
         21    1    1    2  503  501 -0.16230984859E+02 -0.13031924619E+02  0.43516356620E+01  0.21265292420E+02  0.00000000000E+00 0.  1.
          1    1    1    2  501    0  0.10025346793E+03  0.78824868460E+02  0.10643040991E+03  0.16610704342E+03  0.00000000000E+00 0. -1.
<scales pt_clust_5="13000.00000" pt_clust_6="13000.00000" pt_clust_7="13000.00000" pt_clust_8="13000.00000" pt_clust_9="20.81528" pt_clust_10="13000.00000"></scales>
<clustering>
<clus scale="   20.815">  2  9  1 -1</clus>
<clus scale="   91.025">  5  6 -1 -1</clus>
<clus scale="   91.053">  7  8 -1 -1</clus>
<clus scale="  122.188">  5 10 -1 -1</clus>
<clus scale="  147.597">  1  7  2 -1</clus>
<clus scale="   20.815">  2  5  1 -1</clus>
</clustering>
</event>
<event>
10    2  0.4951045E-006  0.3936644E+03  0.7546771E-02  0.1092845E+00
         21   -1    0    0  503  502  0.00000000000E+00  0.00000000000E+00  0.29957153939E+03  0.29957153939E+03  0.00000000000E+00 0.  1.
         -1   -1    0    0    0  501 -0.00000000000E+00 -0.00000000000E+00 -0.43978131540E+03  0.43978131540E+03  0.00000000000E+00 0.  1.
         23    2    1    2    0    0  0.37212311076E+02  0.32658124673E+02 -0.70478487001E+02  0.12777798932E+03  0.94385847573E+02 0.  0.
         23    2    1    2    0    0 -0.79431928174E+02  0.26512012066E+02 -0.31295376409E+03  0.33786293886E+03  0.95911360099E+02 0.  0.
        -11    1    3    3    0    0  0.13347845604E+02  0.64206389955E+02 -0.53898519188E+02  0.84886252503E+02  0.00000000000E+00 0. -1.
         11    1    3    3    0    0  0.23864465472E+02 -0.31548265282E+02 -0.16579967813E+02  0.42891736818E+02  0.00000000000E+00 0.  1.
        -13    1    4    4    0    0 -0.75710648702E+02 -0.15807562535E+02 -0.25172768036E+03  0.26334161544E+03  0.00000000000E+00 0.  1.
         13    1    4    4    0    0 -0.37212794722E+01  0.42319574601E+02 -0.61226083728E+02  0.74521323418E+02  0.00000000000E+00 0. -1.
         21    1    1    2  503  501  0.15610777464E+02  0.13564417549E+02  0.15476393412E+03  0.15613956930E+03  0.00000000000E+00 0.  1.
         -1    1    1    2    0  502  0.26608839635E+02 -0.72734554288E+02  0.88458540964E+02  0.11757235731E+03  0.00000000000E+00 0.  1.
<scales pt_clust_5="13000.00000" pt_clust_6="13000.00000" pt_clust_7="13000.00000" pt_clust_8="13000.00000" pt_clust_9="20.68066" pt_clust_10="13000.00000"></scales>
<clustering>
<clus scale="   20.681">  1  9  2 -1</clus>
<clus scale="   94.386">  5  6 -1 -1</clus>
<clus scale="   95.911">  7  8 -1 -1</clus>
<clus scale="   73.487">  7 10 -1 -1</clus>
<clus scale="  108.554">  2  5  1 -1</clus>
<clus scale="   20.681">  1  5  2 -1</clus>
</clustering>
</event>
<event>
10    2  0.4951045E-006  0.5698435E+03  0.7546771E-02  0.1033972E+00
         21   -1    0    0  501  502  0.00000000000E+00  0.00000000000E+00  0.16258373760E+03  0.16258373760E+03  0.00000000000E+00 0. -1.
          3   -1    0    0  503    0 -0.00000000000E+00 -0.00000000000E+00 -0.14842335029E+04  0.14842335029E+04  0.00000000000E+00 0. -1.
         23    2    1    2    0    0 -0.10078719092E+03  0.12312298035E+03 -0.79414632122E+03  0.81501812779E+03  0.90933178673E+02 0.  0.
         23    2    1    2    0    0  0.20961932254E+03 -0.27785251226E+03 -0.48913711303E+03  0.61009026808E+03  0.10868643388E+03 0.  0.
        -11    1    4    4    0    0  0.81793459698E+02 -0.81967750866E+02 -0.86854920300E+02  0.14475033475E+03  0.00000000000E+00 0.  1.
         11    1    4    4    0    0  0.12782586284E+03 -0.19588476140E+03 -0.40228219273E+03  0.46533993332E+03  0.00000000000E+00 0. -1.
        -13    1    3    3    0    0 -0.91759285729E+02  0.46367743559E+02 -0.37666813555E+03  0.39044669098E+03  0.00000000000E+00 0. -1.
         13    1    3    3    0    0 -0.90279051898E+01  0.76755236788E+02 -0.41747818567E+03  0.42457143682E+03  0.00000000000E+00 0.  1.
         21    1    1    2  503  502  0.48483136159E+01  0.20568705484E+02  0.26840035863E+02  0.34160874043E+02  0.00000000000E+00 0. -1.
          3    1    1    2  501    0 -0.11368044524E+03  0.13416082643E+03 -0.65206366899E+02  0.18754797056E+03  0.00000000000E+00 0. -1.
<scales pt_clust_5="13000.00000" pt_clust_6="13000.00000" pt_clust_7="13000.00000" pt_clust_8="13000.00000" pt_clust_9="21.13239" pt_clust_10="13000.00000"></scales>
<clustering>
<clus scale="   21.132">  1  9  2 -1</clus>
<clus scale="   90.933">  7  8 -1 -1</clus>
<clus scale="  108.686">  5  6 -1 -1</clus>
<clus scale="  181.834">  5 10 -1 -1</clus>
<clus scale="  184.152">  2  7  1 -1</clus>
<clus scale="   21.132">  1  5  2 -1</clus>
</clustering>
</event>
<event>
10    2  0.4951045E-006  0.5580002E+03  0.7546771E-02  0.1037719E+00
         21   -1    0    0  503  502  0.00000000000E+00  0.00000000000E+00  0.11405241924E+04  0.11405241924E+04  0.00000000000E+00 0. -1.
         -4   -1    0    0    0  501 -0.00000000000E+00 -0.00000000000E+00 -0.27457909235E+03  0.27457909235E+03  0.00000000000E+00 0.  1.
         23    2    1    2    0    0 -0.13320940326E+03 -0.46213567366E+02  0.72950647791E+03  0.74858551835E+03  0.91214790724E+02 0.  0.
         23    2    1    2    0    0  0.71558260335E+02  0.10299938000E+03 -0.22831220296E+03  0.27646381590E+03  0.92608436855E+02 0.  0.
        -11    1    3    3    0    0 -0.10102063741E+03 -0.72052061575E+02  0.59861654720E+03  0.61134150795E+03  0.00000000000E+00 0. -1.
         11    1    3    3    0    0 -0.32188765851E+02  0.25838494209E+02  0.13088993071E+03  0.13724401040E+03  0.00000000000E+00 0.  1.
        -11    1    4    4    0    0  0.50405823851E+02  0.88196825178E+02 -0.22912392717E+03  0.25063359920E+03  0.00000000000E+00 0.  1.
         11    1    4    4    0    0  0.21152436484E+02  0.14802554817E+02  0.81172420153E+00  0.25830216694E+02  0.00000000000E+00 0. -1.
         21    1    1    2  503  501 -0.18556155876E+02  0.18127537740E+02  0.10318502267E+03  0.10639589958E+03  0.00000000000E+00 0.  1.
         -4    1    1    2    0  502  0.80207298803E+02 -0.74913350368E+02  0.26156580241E+03  0.28365805089E+03  0.00000000000E+00 0.  1.
<scales pt_clust_5="13000.00000" pt_clust_6="13000.00000" pt_clust_7="13000.00000" pt_clust_8="13000.00000" pt_clust_9="25.94106" pt_clust_10="13000.00000"></scales>
<clustering>
<clus scale="   25.941">  1  9  2 -1</clus>
<clus scale="   91.215">  5  6 -1 -1</clus>
<clus scale="   92.608">  7  8 -1 -1</clus>
<clus scale="  102.925">  7 10 -1 -1</clus>
<clus scale="  175.714">  2  5  1 -1</clus>
<clus scale="   25.941">  1  5  2 -1</clus>
</clustering>
</event>
<event>
10    2  0.4951045E-006  0.4893797E+03  0.7546771E-02  0.1071122E+00
          1   -1    0    0  503    0 -0.00000000000E+00  0.00000000000E+00  0.61580153324E+03  0.61580153324E+03  0.00000000000E+00 0. -1.
         21   -1    0    0  501  502  0.00000000000E+00 -0.00000000000E+00 -0.38293701295E+03  0.38293701295E+03  0.00000000000E+00 0. -1.
         23    2    1    2    0    0 -0.18471333901E+02 -0.34399275493E+02  0.26087069254E+03  0.27982183249E+03  0.93392930048E+02 0.  0.
         23    2    1    2    0    0  0.16654325650E+03 -0.10924556095E+03  0.55616764541E+02  0.22522160994E+03  0.89220514529E+02 0.  0.
        -11    1    3    3    0    0 -0.19701966845E+02  0.27318805050E+02  0.51466573345E+02  0.61508477292E+02  0.00000000000E+00 0.  1.
         11    1    3    3    0    0  0.12306329436E+01 -0.61718080543E+02  0.20940411919E+03  0.21831335520E+03  0.00000000000E+00 0. -1.
        -13    1    4    4    0    0  0.12599622001E+03 -0.12166574258E+03  0.37568250363E+02  0.17913395493E+03  0.00000000000E+00 0. -1.
         13    1    4    4    0    0  0.40547036489E+02  0.12420181632E+02  0.18048514179E+02  0.46087655005E+02  0.00000000000E+00 0.  1.
         21    1    1    2  503  502  0.11164461958E+03  0.11214419315E+03 -0.15604047741E+03  0.22223742198E+03  0.00000000000E+00 0. -1.
          1    1    1    2  501    0 -0.25971654218E+03  0.31500643295E+02  0.72417540627E+02  0.27145768178E+03  0.00000000000E+00 0. -1.
<scales pt_clust_5="13000.00000" pt_clust_6="13000.00000" pt_clust_7="13000.00000" pt_clust_8="13000.00000" pt_clust_9="154.66237" pt_clust_10="13000.00000"></scales>
<clustering>
<clus scale="   89.221">  7  8 -1 -1</clus>
<clus scale="   93.393">  5  6 -1 -1</clus>
<clus scale="  101.226">  1  5  2 -1</clus>
<clus scale="  154.662">  2  9  1 -1</clus>
<clus scale="  221.679">  7 10 -1 -1</clus>
<clus scale="  154.662">  2  5  1 -1</clus>
</clustering>
</event>
<event>
10    2  0.4951045E-006  0.2675406E+03  0.7546771E-02  0.1106748E+00
          1   -1    0    0  503    0 -0.00000000000E+00  0.00000000000E+00  0.72178079466E+03  0.72178079466E+03  0.00000000000E+00 0. -1.
         21   -1    0    0  501  502  0.00000000000E+00 -0.00000000000E+00 -0.12864598407E+03  0.12864598407E+03  0.00000000000E+00 0. -1.
         23    2    1    2    0    0 -0.20639350826E+03  0.20472757918E+01  0.22117374913E+03  0.31651629163E+03  0.93071284370E+02 0.  0.
         23    2    1    2    0    0  0.21419391758E+03  0.19941584214E+02  0.34308032011E+03  0.41639735097E+03  0.96984260278E+02 0.  0.
        -11    1    4    4    0    0  0.70984763983E+02  0.44700196490E+02  0.80408195986E+02  0.11619992369E+03  0.00000000000E+00 0.  1.
         11    1    4    4    0    0  0.14320915360E+03 -0.24758612275E+02  0.26267212412E+03  0.30019742728E+03  0.00000000000E+00 0. -1.
        -11    1    3    3    0    0 -0.87995905678E+02  0.46406409287E+02  0.10788557866E+03  0.14675194146E+03  0.00000000000E+00 0.  1.
         11    1    3    3    0    0 -0.11839760258E+03 -0.44359133495E+02  0.11328817047E+03  0.16976435018E+03  0.00000000000E+00 0. -1.
         21    1    1    2  503  502 -0.30284489579E+02  0.15862900869E+02 -0.28972741400E+02  0.44812963272E+02  0.00000000000E+00 0. -1.
          1    1    1    2  501    0  0.22484080254E+02 -0.37851760875E+02  0.57853482752E+02  0.72700172852E+02  0.00000000000E+00 0. -1.
<scales pt_clust_5="13000.00000" pt_clust_6="13000.00000" pt_clust_7="13000.00000" pt_clust_8="13000.00000" pt_clust_9="34.18745" pt_clust_10="13000.00000"></scales>
<clustering>
<clus scale="   34.187">  2  9  1 -1</clus>
<clus scale="   93.071">  7  8 -1 -1</clus>
<clus scale="   96.984">  5  6 -1 -1</clus>
<clus scale="   41.697">  5 10 -1 -1</clus>
<clus scale="  241.058">  1  7  2 -1</clus>
<clus scale="   34.187">  2  5  1 -1</clus>
</clustering>
</event>
<event>
10    2  0.4951045E-006  0.3077978E+03  0.7546771E-02  0.1105832E+00
         21   -1    0    0  501  502  0.00000000000E+00  0.00000000000E+00  0.73711094601E+03  0.73711094601E+03  0.00000000000E+00 0.  1.
          2   -1    0    0  503    0 -0.00000000000E+00 -0.00000000000E+00 -0.10722251224E+03  0.10722251224E+03  0.00000000000E+00 0. -1.
         23    2    1    2    0    0 -0.52395756929E+02 -0.10974128619E+03  0.21062275051E+03  0.25993858322E+03  0.91747799823E+02 0.  0.
         23    2    1    2    0    0 -0.23831688597E+02  0.79962829748E+02 -0.17247789578E+02  0.12595076569E+03  0.92758318284E+02 0.  0.
        -11    1    4    4    0    0 -0.48780462962E+02  0.90797055210E+01 -0.70037487236E+01  0.50110149824E+02  0.00000000000E+00 0.  1.
         11    1    4    4    0    0  0.24948774365E+02  0.70883124227E+02 -0.10244040855E+02  0.75840615870E+02  0.00000000000E+00 0. -1.
        -13    1    3    3    0    0 -0.45437298250E+02 -0.46880643923E+02  0.17625798259E+03  0.18796068544E+03  0.00000000000E+00 0.  1.
         13    1    3    3    0    0 -0.69584586789E+01 -0.62860642266E+02  0.34364767928E+02  0.71977897774E+02  0.00000000000E+00 0. -1.
         21    1    1    2  503  502 -0.49945016605E+01 -0.27959034257E+02  0.19684971776E+03  0.19888806909E+03  0.00000000000E+00 0.  1.
          2    1    1    2  501    0  0.81221947186E+02  0.57737490697E+02  0.23966375507E+03  0.25955604025E+03  0.00000000000E+00 0. -1.
<scales pt_clust_5="13000.00000" pt_clust_6="13000.00000" pt_clust_7="13000.00000" pt_clust_8="13000.00000" pt_clust_9="28.40163" pt_clust_10="13000.00000"></scales>
<clustering>
<clus scale="   28.402">  1  9  2 -1</clus>
<clus scale="   91.748">  7  8 -1 -1</clus>
<clus scale="   92.758">  5  6 -1 -1</clus>
<clus scale="   90.738">  5 10 -1 -1</clus>
<clus scale="  162.066">  2  7  1 -1</clus>
<clus scale="   28.402">  1  5  2 -1</clus>
</clustering>
</event>
<event>
10    2  0.4951045E-006  0.3282414E+03  0.7546771E-02  0.1087401E+00
         21   -1    0    0  503  502  0.00000000000E+00  0.00000000000E+00  0.46233222408E+03  0.46233222408E+03  0.00000000000E+00 0.  1.
          1   -1    0    0  502    0 -0.00000000000E+00 -0.00000000000E+00 -0.12776840942E+04  0.12776840942E+04  0.00000000000E+00 0. -1.
         23    2    1    2    0    0  0.16707198619E+03  0.10345682364E+03 -0.11852993999E+04  0.12049790417E+04  0.91779412973E+02 0.  0.
         23    2    1    2    0    0 -0.18713042847E+03 -0.85556563572E+01  0.37419328096E+03  0.42852628169E+03  0.92320994751E+02 0.  0.
        -11    1    3    3    0    0  0.41116604161E+02 -0.14842673166E+02 -0.21210905028E+03  0.21656668556E+03  0.00000000000E+00 0.  1.
         11    1    3    3    0    0  0.12595538203E+03  0.11829949680E+03 -0.97319034961E+03  0.98841235614E+03  0.00000000000E+00 0. -1.
        -11    1    4    4    0    0 -0.98193802779E+02 -0.28351182918E+02  0.11534889590E+03  0.15411417930E+03  0.00000000000E+00 0. -1.
         11    1    4    4    0    0 -0.88936625694E+02  0.19795526561E+02  0.25884438506E+03  0.27441210239E+03  0.00000000000E+00 0.  1.
         21    1    1    2  503  501 -0.11970915006E+02 -0.42127210434E+02 -0.85738625165E+01  0.44626402314E+02  0.00000000000E+00 0. -1.
          1    1    1    2  501    0  0.32029357286E+02 -0.52773956844E+02  0.43281113285E+01  0.61884592564E+02  0.00000000000E+00 0. -1.
<scales pt_clust_5="13000.00000" pt_clust_6="13000.00000" pt_clust_7="13000.00000" pt_clust_8="13000.00000" pt_clust_9="43.79503" pt_clust_10="13000.00000"></scales>
<clustering>
<clus scale="   43.795">  1  9  2 -1</clus>
<clus scale="   91.779">  5  6 -1 -1</clus>
<clus scale="   92.321">  7  8 -1 -1</clus>
<clus scale="   63.998">  7 10 -1 -1</clus>
<clus scale="  216.239">  2  5  1 -1</clus>
<clus scale="   43.795">  1  5  2 -1</clus>
</clustering>
</event>
<event>
10    2  0.4951045E-006  0.2746178E+03  0.7546771E-02  0.1136620E+00
         21   -1    0    0  503  502  0.00000000000E+00  0.00000000000E+00  0.16168117158E+03  0.16168117158E+03  0.00000000000E+00 0.  1.
         -1   -1    0    0    0  501 -0.00000000000E+00 -0.00000000000E+00 -0.31347567531E+03  0.31347567531E+03  0.00000000000E+00 0.  1.
         23    2    1    2    0    0  0.25334893362E+02  0.26929584991E+02 -0.13838813693E+02  0.99864920222E+02  0.91730203079E+02 0.  0.
         23    2    1    2    0    0  0.51907698144E+01 -0.91225012445E+02 -0.18133777305E+03  0.22391859958E+03  0.94377986394E+02 0.  0.
        -11    1    4    4    0    0 -0.35072984809E+02 -0.78470511643E+02 -0.14318565784E+03  0.16700259900E+03  0.00000000000E+00 0.  1.
         11    1    4    4    0    0  0.40263754623E+02 -0.12754500802E+02 -0.38152115202E+02  0.56916000575E+02  0.00000000000E+00 0. -1.
        -13    1    3    3    0    0 -0.14031784286E+02  0.49502149669E+02 -0.17478541731E+02  0.54340162063E+02  0.00000000000E+00 0. -1.
         13    1    3    3    0    0  0.39366677648E+02 -0.22572564678E+02  0.36397280374E+01  0.45524758158E+02  0.00000000000E+00 0.  1.
         21    1    1    2  503  501  0.49120643277E+02  0.15015363236E+02  0.15439477611E+02  0.53634654823E+02  0.00000000000E+00 0.  1.
         -1    1    1    2    0  502 -0.79646306454E+02  0.49280064218E+02  0.27942605400E+02  0.97738672273E+02  0.00000000000E+00 0.  1.
<scales pt_clust_5="13000.00000" pt_clust_6="13000.00000" pt_clust_7="13000.00000" pt_clust_8="13000.00000" pt_clust_9="51.36437" pt_clust_10="13000.00000"></scales>
<clustering>
<clus scale="   51.364">  1  9  2 -1</clus>
<clus scale="   91.730">  7  8 -1 -1</clus>
<clus scale="   94.378">  5  6 -1 -1</clus>
<clus scale="   79.251">  5 10 -1 -1</clus>
<clus scale="  105.826">  2  7  1 -1</clus>
<clus scale="   51.364">  1  5  2 -1</clus>
</clustering>
</event>
<event>
10    2  0.4951045E-006  0.2177869E+03  0.7546771E-02  0.1161573E+00
         21   -1    0    0  501  502  0.00000000000E+00  0.00000000000E+00  0.38547822397E+03  0.38547822397E+03  0.00000000000E+00 0. -1.
          3   -1    0    0  503    0 -0.00000000000E+00 -0.00000000000E+00 -0.20236525227E+03  0.20236525227E+03  0.00000000000E+00 0. -1.
         23    2    1    2    0    0 -0.14561810055E+02  0.90951165308E+02 -0.15393135389E+02  0.12879080287E+03  0.88690255971E+02 0.  0.
         23    2    1    2    0    0 -0.57405432625E+02 -0.54698059255E+02 -0.65012762343E+02  0.13834966584E+03  0.92880080690E+02 0.  0.
        -11    1    3    3    0    0 -0.22239179046E+02  0.41796051429E+02 -0.49480581611E+02  0.68482252856E+02  0.00000000000E+00 0. -1.
         11    1    3    3    0    0  0.76773689909E+01  0.49155113879E+02  0.34087446222E+02  0.60308550016E+02  0.00000000000E+00 0.  1.
        -13    1    4    4    0    0 -0.17957294377E+02 -0.75440078454E+02 -0.40623300190E+02  0.87543831175E+02  0.00000000000E+00 0.  1.
         13    1    4    4    0    0 -0.39448138248E+02  0.20742019199E+02 -0.24389462154E+02  0.50805834663E+02  0.00000000000E+00 0. -1.
         21    1    1    2  503  502 -0.11994519089E+01 -0.39354055978E+02  0.24084335493E+03  0.24404036966E+03  0.00000000000E+00 0. -1.
          3    1    1    2  501    0  0.73166694589E+02  0.31009499256E+01  0.22675514504E+02  0.76662637872E+02  0.00000000000E+00 0. -1.
<scales pt_clust_5="13000.00000" pt_clust_6="13000.00000" pt_clust_7="13000.00000" pt_clust_8="13000.00000" pt_clust_9="39.37233" pt_clust_10="13000.00000"></scales>
<clustering>
<clus scale="   39.372">  1  9  2 -1</clus>
<clus scale="   88.690">  5  6 -1 -1</clus>
<clus scale="   92.880">  7  8 -1 -1</clus>
<clus scale="   73.513">  7 10 -1 -1</clus>
<clus scale="  117.345">  2  5  1 -1</clus>
<clus scale="   39.372">  1  5  2 -1</clus>
</clustering>
</event>
<event>
10    2  0.4951045E-006  0.1687845E+03  0.7546771E-02  0.1209734E+00
         21   -1    0    0  501  502  0.00000000000E+00  0.00000000000E+00  0.17627664274E+03  0.17627664274E+03  0.00000000000E+00 0. -1.
          2   -1    0    0  503    0 -0.00000000000E+00 -0.00000000000E+00 -0.25893582552E+03  0.25893582552E+03  0.00000000000E+00 0. -1.
         23    2    1    2    0    0 -0.13540886327E+02 -0.12579256906E+02 -0.88204473404E+02  0.12384707405E+03  0.84949840004E+02 0.  0.
         23    2    1    2    0    0 -0.27686532679E+02 -0.38794698100E+02 -0.10899476335E+03  0.14915579213E+03  0.89977881705E+02 0.  0.
        -13    1    3    3    0    0  0.27000660207E+02  0.13679403040E+02 -0.99054202126E+01  0.31847748252E+02  0.00000000000E+00 0.  1.
         13    1    3    3    0    0 -0.40541546534E+02 -0.26258659946E+02 -0.78299053191E+02  0.91999325803E+02  0.00000000000E+00 0. -1.
        -13    1    4    4    0    0 -0.59546270255E+02 -0.22587690909E+02 -0.53654850054E+02  0.83275476679E+02  0.00000000000E+00 0.  1.
         13    1    4    4    0    0  0.31859737576E+02 -0.16207007191E+02 -0.55339913293E+02  0.65880315449E+02  0.00000000000E+00 0. -1.
         21    1    1    2  503  502 -0.17184397713E+01  0.27233948214E+02  0.10931309132E+03  0.11266762137E+03  0.00000000000E+00 0. -1.
          2    1    1    2  501    0  0.42945858777E+02  0.24140006793E+02  0.52269626456E+01  0.49541980709E+02  0.00000000000E+00 0. -1.
<scales pt_clust_5="13000.00000" pt_clust_6="13000.00000" pt_clust_7="13000.00000" pt_clust_8="13000.00000" pt_clust_9="27.28811" pt_clust_10="13000.00000"></scales>
<clustering>
<clus scale="   27.288">  1  9  2 -1</clus>
<clus scale="   84.950">  5  6 -1 -1</clus>
<clus scale="   86.251">  2  5  1 -1</clus>
<clus scale="   89.978">  7  8 -1 -1</clus>
<clus scale="   52.511">  7 10 -1 -1</clus>
<clus scale="   27.288">  1  5  2 -1</clus>
</clustering>
</event>
<event>
10    2  0.4951045E-006  0.1835328E+03  0.7546771E-02  0.1186215E+00
         21   -1    0    0  503  502  0.00000000000E+00  0.00000000000E+00  0.90399348011E+02  0.90399348011E+02  0.00000000000E+00 0.  1.
          2   -1    0    0  502    0 -0.00000000000E+00 -0.00000000000E+00 -0.41375580708E+03  0.41375580708E+03  0.00000000000E+00 0. -1.
         23    2    1    2    0    0 -0.52559891281E+02  0.30058530610E+02 -0.17318716428E+03  0.20458993178E+03  0.90538328234E+02 0.  0.
         23    2    1    2    0    0  0.35620870104E+02 -0.15714762949E+02 -0.19436378671E+03  0.21823559591E+03  0.91289066043E+02 0.  0.
        -11    1    4    4    0    0  0.31308016837E+02  0.35408863646E+02 -0.80563834093E+02  0.93405090368E+02  0.00000000000E+00 0.  1.
         11    1    4    4    0    0  0.43128532666E+01 -0.51123626595E+02 -0.11379995261E+03  0.12483050554E+03  0.00000000000E+00 0. -1.
        -11    1    3    3    0    0 -0.62527208106E+02  0.53130879284E+02 -0.14662272181E+03  0.16802013165E+03  0.00000000000E+00 0.  1.
         11    1    3    3    0    0  0.99673168252E+01 -0.23072348673E+02 -0.26564442469E+02  0.36569800132E+02  0.00000000000E+00 0. -1.
         21    1    1    2  503  501 -0.21913163218E+02  0.38549245935E-01  0.30779298273E+02  0.37782977787E+02  0.00000000000E+00 0.  1.
          2    1    1    2  501    0  0.38852184395E+02 -0.14382316907E+02  0.13415193646E+02  0.43546649612E+02  0.00000000000E+00 0. -1.
<scales pt_clust_5="13000.00000" pt_clust_6="13000.00000" pt_clust_7="13000.00000" pt_clust_8="13000.00000" pt_clust_9="21.91320" pt_clust_10="13000.00000"></scales>
<clustering>
<clus scale="   21.913">  1  9  2 -1</clus>
<clus scale="   90.538">  7  8 -1 -1</clus>
<clus scale="   91.289">  5  6 -1 -1</clus>
<clus scale="   31.230">  5 10 -1 -1</clus>
<clus scale="  112.009">  2  7  1 -1</clus>
<clus scale="   21.913">  1  5  2 -1</clus>
</clustering>
</event>
<event>
10    2  0.4951045E-006  0.1457966E+03  0.7546771E-02  0.1222949E+00
         21   -1    0    0  501  502  0.00000000000E+00  0.00000000000E+00  0.51650728123E+03  0.51650728123E+03  0.00000000000E+00 0.  1.
          4   -1    0    0  503    0 -0.00000000000E+00 -0.00000000000E+00 -0.66932130876E+02  0.66932130876E+02  0.00000000000E+00 0. -1.
         23    2    1    2    0    0 -0.30143584125E+02  0.39241367606E+01  0.31908136262E+03  0.33321110204E+03  0.91064197329E+02 0.  0.
         23    2    1    2    0    0  0.11184318050E+02 -0.13889431277E+01 -0.70914872668E+01  0.95776347089E+02  0.94846198326E+02 0.  0.
        -11    1    4    4    0    0  0.25017001294E+02 -0.38907584721E+02 -0.24291366026E+02  0.52246731630E+02  0.00000000000E+00 0.  1.
         11    1    4    4    0    0 -0.13832683244E+02  0.37518641593E+02  0.17199878759E+02  0.43529615460E+02  0.00000000000E+00 0. -1.
        -13    1    3    3    0    0 -0.55844590050E+02 -0.11033296531E+02  0.26908180515E+03  0.27503703338E+03  0.00000000000E+00 0.  1.
         13    1    3    3    0    0  0.25701005925E+02  0.14957433292E+02  0.49999557473E+02  0.58174068654E+02  0.00000000000E+00 0. -1.
         21    1    1    2  503  502 -0.14736815282E+02  0.13948158475E+02  0.97352642625E+02  0.99444767964E+02  0.00000000000E+00 0.  1.
          4    1    1    2  501    0  0.33696081357E+02 -0.16483352108E+02  0.40232632373E+02  0.55007195013E+02  0.00000000000E+00 0. -1.
<scales pt_clust_5="13000.00000" pt_clust_6="13000.00000" pt_clust_7="13000.00000" pt_clust_8="13000.00000" pt_clust_9="20.29100" pt_clust_10="13000.00000"></scales>
<clustering>
<clus scale="   20.291">  1  9  2 -1</clus>
<clus scale="   91.064">  7  8 -1 -1</clus>
<clus scale="   94.846">  5  6 -1 -1</clus>
<clus scale="   35.313">  5 10 -1 -1</clus>
<clus scale="  101.221">  2  7  1 -1</clus>
<clus scale="   20.291">  1  5  2 -1</clus>
</clustering>
</event>
<event>
10    2  0.4951045E-006  0.1812758E+03  0.7546771E-02  0.1189894E+00
         21   -1    0    0  501  502  0.00000000000E+00  0.00000000000E+00  0.23013419728E+03  0.23013419728E+03  0.00000000000E+00 0.  1.
          3   -1    0    0  503    0 -0.00000000000E+00 -0.00000000000E+00 -0.13496640935E+03  0.13496640935E+03  0.00000000000E+00 0. -1.
         23    2    1    2    0    0  0.38291855431E+02  0.59179390818E+02  0.12933348801E+01  0.11423268661E+03  0.89883076741E+02 0.  0.
         23    2    1    2    0    0 -0.65345113110E+02 -0.47998374437E+02  0.61613911147E+02  0.13214164276E+03  0.84209927849E+02 0.  0.
        -11    1    3    3    0    0 -0.90027563195E+01  0.65527975141E+02  0.52411866319E+01  0.66350849163E+02  0.00000000000E+00 0.  1.
         11    1    3    3    0    0  0.47294611751E+02 -0.63485843225E+01 -0.39478517518E+01  0.47881837444E+02  0.00000000000E+00 0. -1.
        -13    1    4    4    0    0 -0.15413605765E+02  0.23858096198E+02  0.79521800694E+01  0.29496188987E+02  0.00000000000E+00 0. -1.
         13    1    4    4    0    0 -0.49931507345E+02 -0.71856470636E+02  0.53661731078E+02  0.10264545377E+03  0.00000000000E+00 0.  1.
         21    1    1    2  503  502 -0.80402574691E+00 -0.43319196802E+02  0.55382365681E+02  0.70316468181E+02  0.00000000000E+00 0. -1.
          3    1    1    2  501    0  0.27857283426E+02  0.32138180421E+02 -0.23121823771E+02  0.48409809080E+02  0.00000000000E+00 0. -1.
<scales pt_clust_5="13000.00000" pt_clust_6="13000.00000" pt_clust_7="13000.00000" pt_clust_8="13000.00000" pt_clust_9="43.32666" pt_clust_10="13000.00000"></scales>
<clustering>
<clus scale="   43.327">  1  9  2 -1</clus>
<clus scale="   84.210">  7  8 -1 -1</clus>
<clus scale="   40.072">  7 10 -1 -1</clus>
<clus scale="   89.883">  5  6 -1 -1</clus>
<clus scale="  107.143">  2  5  1 -1</clus>
<clus scale="   43.327">  1  5  2 -1</clus>
</clustering>
</event>
<event>
10    2  0.4951045E-006  0.2171550E+03  0.7546771E-02  0.1169963E+00
         21   -1    0    0  503  502  0.00000000000E+00  0.00000000000E+00  0.26332401362E+03  0.26332401362E+03  0.00000000000E+00 0.  1.
          3   -1    0    0  502    0 -0.00000000000E+00 -0.00000000000E+00 -0.12892924813E+03  0.12892924813E+03  0.00000000000E+00 0. -1.
         23    2    1    2    0    0  0.11349406076E+01  0.22134988199E+02  0.42577474146E+02  0.10663042978E+03  0.95215342549E+02 0.  0.
         23    2    1    2    0    0 -0.61228388757E+01 -0.89077035032E+01 -0.66397206549E+02  0.11625536439E+03  0.94815000786E+02 0.  0.
        -11    1    4    4    0    0 -0.12742391406E+02 -0.49759807339E+02 -0.50174147314E+02  0.71804261878E+02  0.00000000000E+00 0. -1.
         11    1    4    4    0    0  0.66195525303E+01  0.40852103836E+02 -0.16223059235E+02  0.44451102511E+02  0.00000000000E+00 0.  1.
        -11    1    3    3    0    0 -0.10254390778E+01 -0.34275983081E+02 -0.25093800521E+01  0.34383012226E+02  0.00000000000E+00 0. -1.
         11    1    3    3    0    0  0.21603796854E+01  0.56410971280E+02  0.45086854198E+02  0.72247417550E+02  0.00000000000E+00 0.  1.
         21    1    1    2  503  501  0.29187018140E+02 -0.12178549769E+02  0.55912716900E+02  0.64237302352E+02  0.00000000000E+00 0.  1.
          3    1    1    2  501    0 -0.24199119872E+02 -0.10487349275E+01  0.10230178099E+03  0.10513016523E+03  0.00000000000E+00 0. -1.
<scales pt_clust_5="13000.00000" pt_clust_6="13000.00000" pt_clust_7="13000.00000" pt_clust_8="13000.00000" pt_clust_9="31.62592" pt_clust_10="13000.00000"></scales>
<clustering>
<clus scale="   31.626">  1  9  2 -1</clus>
<clus scale="   94.815">  5  6 -1 -1</clus>
<clus scale="   11.804">  5 10 -1 -1</clus>
<clus scale="   95.215">  7  8 -1 -1</clus>
<clus scale="   97.562">  2  7  1 -1</clus>
<clus scale="   31.626">  1  5  2 -1</clus>
</clustering>
</event>
<event>
10    2  0.4951045E-006  0.3620775E+03  0.7546771E-02  0.1088853E+00
         -4   -1    0    0    0  501 -0.00000000000E+00  0.00000000000E+00  0.27056635724E+03  0.27056635724E+03  0.00000000000E+00 0.  1.
         21   -1    0    0  503  502  0.00000000000E+00 -0.00000000000E+00 -0.55630838491E+03  0.55630838491E+03  0.00000000000E+00 0.  1.
         23    2    1    2    0    0  0.61513927803E+02 -0.10756980377E+03  0.16280156532E+03  0.22416700053E+03  0.91603867052E+02 0.  0.
         23    2    1    2    0    0 -0.11720011402E+03  0.98219088289E+02 -0.42425661266E+02  0.18309290864E+03  0.91324807306E+02 0.  0.
        -11    1    4    4    0    0 -0.89611766630E+02  0.68414487393E+02 -0.71179204478E+02  0.13333150398E+03  0.00000000000E+00 0. -1.
         11    1    4    4    0    0 -0.27588347389E+02  0.29804600895E+02  0.28753543212E+02  0.49761404657E+02  0.00000000000E+00 0.  1.
        -13    1    3    3    0    0  0.81434715853E+02 -0.59587731745E+02  0.12049966363E+03  0.15717022510E+03  0.00000000000E+00 0.  1.
         13    1    3    3    0    0 -0.19920788050E+02 -0.47982072025E+02  0.42301901690E+02  0.66996775437E+02  0.00000000000E+00 0. -1.
         21    1    1    2  503  501 -0.91431639901E+01 -0.25985899728E+02 -0.64978783668E+02  0.70576956292E+02  0.00000000000E+00 0.  1.
         -4    1    1    2    0  502  0.64829350206E+02  0.35336615209E+02 -0.34113914806E+03  0.34903787669E+03  0.00000000000E+00 0.  1.
<scales pt_clust_5="13000.00000" pt_clust_6="13000.00000" pt_clust_7="13000.00000" pt_clust_8="13000.00000" pt_clust_9="27.54749" pt_clust_10="13000.00000"></scales>
<clustering>
<clus scale="   27.547">  2  9  1 -1</clus>
<clus scale="   91.325">  5  6 -1 -1</clus>
<clus scale="   60.791">  5 10 -1 -1</clus>
<clus scale="   91.604">  7  8 -1 -1</clus>
<clus scale="  155.016">  1  7  2 -1</clus>
<clus scale="   27.547">  2  5  1 -1</clus>
</clustering>
</event>
<event>
10    2  0.4951045E-006  0.1630106E+03  0.7546771E-02  0.1207118E+00
         -1   -1    0    0    0  501 -0.00000000000E+00  0.00000000000E+00  0.20737931836E+03  0.20737931836E+03  0.00000000000E+00 0.  1.
         21   -1    0    0  501  502  0.00000000000E+00 -0.00000000000E+00 -0.21883413550E+03  0.21883413550E+03  0.00000000000E+00 0. -1.
         23    2    1    2    0    0 -0.22143718385E+01 -0.47687511280E+02  0.85635228724E+02  0.13372206214E+03  0.90935116035E+02 0.  0.
         23    2    1    2    0    0 -0.76047055811E+01  0.37582551557E+02  0.64253950304E+02  0.11778853224E+03  0.90968612554E+02 0.  0.
        -11    1    4    4    0    0 -0.13306149249E+01  0.60847696108E+02  0.70259750579E+02  0.92955070917E+02  0.00000000000E+00 0.  1.
         11    1    4    4    0    0 -0.62740906562E+01 -0.23265144552E+02 -0.60058002744E+01  0.24833461328E+02  0.00000000000E+00 0. -1.
        -13    1    3    3    0    0 -0.39095544938E+02  0.94034239960E+00  0.48414414230E+02  0.62235852875E+02  0.00000000000E+00 0.  1.
         13    1    3    3    0    0  0.36881173100E+02 -0.48627853680E+02  0.37220814494E+02  0.71486209260E+02  0.00000000000E+00 0. -1.
         21    1    1    2  503  502 -0.19911570788E+02  0.14372863379E+02 -0.12576990138E+03  0.12814490995E+03  0.00000000000E+00 0. -1.
         -1    1    1    2    0  503  0.29730648208E+02 -0.42679036552E+01 -0.35574094781E+02  0.46557949525E+02  0.00000000000E+00 0.  1.
<scales pt_clust_5="13000.00000" pt_clust_6="13000.00000" pt_clust_7="13000.00000" pt_clust_8="13000.00000" pt_clust_9="24.55707" pt_clust_10="13000.00000"></scales>
<clustering>
<clus scale="   24.557">  2  9  1 -1</clus>
<clus scale="   90.935">  7  8 -1 -1</clus>
<clus scale="   90.969">  5  6 -1 -1</clus>
<clus scale="   20.942">  5 10 -1 -1</clus>
<clus scale="  101.261">  1  7  2 -1</clus>
<clus scale="   24.557">  2  5  1 -1</clus>
</clustering>
</event>
<event>
10    2  0.4951045E-006  0.1764340E+03  0.7546771E-02  0.1197791E+00
         -1   -1    0    0    0  501 -0.00000000000E+00  0.00000000000E+00  0.62883919534E+03  0.62883919534E+03  0.00000000000E+00 0.  1.
         21   -1    0    0  503  502  0.00000000000E+00 -0.00000000000E+00 -0.21236956201E+03  0.21236956201E+03  0.00000000000E+00 0. -1.
         23    2    1    2    0    0  0.16503198014E+02  0.26410584791E+02  0.34796316806E+03  0.36105636670E+03  0.91178172128E+02 0.  0.
         23    2    1    2    0    0 -0.11622626376E+02 -0.11330000733E+01  0.16308379008E+03  0.18830730191E+03  0.93418136530E+02 0.  0.
        -11    1    3    3    0    0 -0.25796370634E+02  0.35301393304E+02  0.97004877098E+02  0.10640294774E+03  0.00000000000E+00 0.  1.
         11    1    3    3    0    0  0.42299568648E+02 -0.88908085128E+01  0.25095829096E+03  0.25465341896E+03  0.00000000000E+00 0. -1.
        -13    1    4    4    0    0 -0.14238000710E+02  0.28251240266E+02  0.11161741329E+02  0.33547544028E+02  0.00000000000E+00 0. -1.
         13    1    4    4    0    0  0.26153743340E+01 -0.29384240339E+02  0.15192204875E+03  0.15475975788E+03  0.00000000000E+00 0.  1.
         21    1    1    2  503  501 -0.54549683889E+02  0.49488321874E+02 -0.16307351251E+03  0.17893499517E+03  0.00000000000E+00 0. -1.
         -1    1    1    2    0  502  0.49669112251E+02 -0.74765906592E+02  0.68496187705E+02  0.11291009357E+03  0.00000000000E+00 0.  1.
<scales pt_clust_5="13000.00000" pt_clust_6="13000.00000" pt_clust_7="13000.00000" pt_clust_8="13000.00000" pt_clust_9="73.65298" pt_clust_10="13000.00000"></scales>
<clustering>
<clus scale="   73.653">  2  9  1 -1</clus>
<clus scale="   91.178">  5  6 -1 -1</clus>
<clus scale="   93.418">  7  8 -1 -1</clus>
<clus scale="   52.331">  7 10 -1 -1</clus>
<clus scale="   97.714">  1  5  2 -1</clus>
<clus scale="   73.653">  2  5  1 -1</clus>
</clustering>
</event>
<event>
10    2  0.4951045E-006  0.1575164E+03  0.7546771E-02  0.1207140E+00
         21   -1    0    0  503  502  0.00000000000E+00  0.00000000000E+00  0.96815173097E+02  0.96815173097E+02  0.00000000000E+00 0. -1.
          1   -1    0    0  502    0 -0.00000000000E+00 -0.00000000000E+00 -0.61676340541E+03  0.61676340541E+03  0.00000000000E+00 0. -1.
         23    2    1    2    0    0  0.20831797755E+02  0.46829764165E+02 -0.37038097380E+03  0.38675172464E+03  0.98832384098E+02 0.  0.
         23    2    1    2    0    0  0.63661285905E+02 -0.34810901921E+02 -0.16177886061E+03  0.19940678066E+03  0.91247499785E+02 0.  0.
        -11    1    4    4    0    0  0.17737009677E+02 -0.57223712695E+02 -0.11706660339E+03  0.13150568214E+03  0.00000000000E+00 0.  1.
         11    1    4    4    0    0  0.45924276227E+02  0.22412810774E+02 -0.44712257216E+02  0.67901098512E+02  0.00000000000E+00 0. -1.
        -13    1    3    3    0    0  0.27611036623E+02  0.71402984373E+02 -0.33174853071E+03  0.34046709555E+03  0.00000000000E+00 0. -1.
         13    1    3    3    0    0 -0.67792388674E+01 -0.24573220208E+02 -0.38632443093E+02  0.46284629094E+02  0.00000000000E+00 0.  1.
         21    1    1    2  503  501 -0.59473293730E+02  0.27579604494E+02  0.36100570653E+02  0.74839551392E+02  0.00000000000E+00 0. -1.
          1    1    1    2  501    0 -0.25019789930E+02 -0.39598466738E+02 -0.23888968558E+02  0.52580521821E+02  0.00000000000E+00 0. -1.
<scales pt_clust_5="13000.00000" pt_clust_6="13000.00000" pt_clust_7="13000.00000" pt_clust_8="13000.00000" pt_clust_9="65.55690" pt_clust_10="13000.00000"></scales>
<clustering>
<clus scale="   65.557">  1  9  2 -1</clus>
<clus scale="   91.247">  5  6 -1 -1</clus>
<clus scale="   54.646">  5 10 -1 -1</clus>
<clus scale="   98.832">  7  8 -1 -1</clus>
<clus scale="  112.179">  2  7  1 -1</clus>
<clus scale="   65.557">  1  5  2 -1</clus>
</clustering>
</event>
<event>
10    2  0.4951045E-006  0.1370707E+03  0.7546771E-02  0.1230695E+00
         21   -1    0    0  501  502  0.00000000000E+00  0.00000000000E+00  0.26998072363E+03  0.26998072363E+03  0.00000000000E+00 0.  1.
         -1   -1    0    0    0  501 -0.00000000000E+00 -0.00000000000E+00 -0.20135632998E+03  0.20135632998E+03  0.00000000000E+00 0.  1.
         23    2    1    2    0    0  0.24108646032E+02 -0.31775246077E+02 -0.77595032874E+02  0.12654567481E+03  0.91662018357E+02 0.  0.
         23    2    1    2    0    0 -0.27836429173E+02  0.19709616924E+02 -0.31809499713E+02  0.10351092756E+03  0.92408506449E+02 0.  0.
        -11    1    3    3    0    0  0.19538868833E+02  0.31033521955E+02 -0.23762840822E+02  0.43698048974E+02  0.00000000000E+00 0. -1.
         11    1    3    3    0    0  0.45697771991E+01 -0.62808768032E+02 -0.53832192052E+02  0.82847625835E+02  0.00000000000E+00 0.  1.
        -11    1    4    4    0    0  0.30262318739E+02  0.20069807158E+02 -0.26925670229E+02  0.45206159006E+02  0.00000000000E+00 0.  1.
         11    1    4    4    0    0 -0.58098747911E+02 -0.36019023355E+00 -0.48838294839E+01  0.58304768555E+02  0.00000000000E+00 0. -1.
         21    1    1    2  503  502 -0.27586342962E+01 -0.34973504172E+02  0.18926168521E+03  0.19248569180E+03  0.00000000000E+00 0.  1.
         -1    1    1    2    0  503  0.64864174367E+01  0.47039133325E+02 -0.11232758974E+02  0.48794759445E+02  0.00000000000E+00 0.  1.
<scales pt_clust_5="13000.00000" pt_clust_6="13000.00000" pt_clust_7="13000.00000" pt_clust_8="13000.00000" pt_clust_9="35.08213" pt_clust_10="13000.00000"></scales>
<clustering>
<clus scale="   35.082">  1  9  2 -1</clus>
<clus scale="   91.662">  5  6 -1 -1</clus>
<clus scale="   92.409">  7  8 -1 -1</clus>
<clus scale="   39.172">  7 10 -1 -1</clus>
<clus scale="  103.717">  2  5  1 -1</clus>
<clus scale="   35.082">  1  5  2 -1</clus>
</clustering>
</event>
<event>
10    2  0.4951045E-006  0.1114025E+03  0.7546771E-02  0.1291366E+00
         -1   -1    0    0    0  501 -0.00000000000E+00  0.00000000000E+00  0.31370508124E+03  0.31370508124E+03  0.00000000000E+00 0.  1.
         21   -1    0    0  503  502  0.00000000000E+00 -0.00000000000E+00 -0.96449178384E+02  0.96449178384E+02  0.00000000000E+00 0. -1.
         23    2    1    2    0    0  0.13802510375E+02  0.15943673076E+02  0.89507617430E+02  0.10710732576E+03  0.54914985653E+02 0.  0.
         23    2    1    2    0    0 -0.68080405191E+01  0.17194560369E+01  0.16082733105E+03  0.18537431898E+03  0.91917907836E+02 0.  0.
        -13    1    4    4    0    0 -0.24282002400E+02 -0.31496606524E+02  0.31566709511E+02  0.50775082594E+02  0.00000000000E+00 0.  1.
         13    1    4    4    0    0  0.17473961881E+02  0.33216062561E+02  0.12926062154E+03  0.13459923639E+03  0.00000000000E+00 0. -1.
        -13    1    3    3    0    0  0.34816381086E+02  0.93699202083E+01  0.63583620117E+02  0.73094818857E+02  0.00000000000E+00 0. -1.
         13    1    3    3    0    0 -0.21013870711E+02  0.65737528675E+01  0.25923997314E+02  0.34012506902E+02  0.00000000000E+00 0.  1.
         21    1    1    2  503  501  0.13609715667E+02 -0.19604099596E+02 -0.70763471859E+02  0.74679408347E+02  0.00000000000E+00 0. -1.
         -1    1    1    2    0  502 -0.20604185522E+02  0.19409704834E+01  0.37684426236E+02  0.42993206536E+02  0.00000000000E+00 0.  1.
<scales pt_clust_5="13000.00000" pt_clust_6="13000.00000" pt_clust_7="13000.00000" pt_clust_8="13000.00000" pt_clust_9="23.86514" pt_clust_10="13000.00000"></scales>
<clustering>
<clus scale="   23.865">  2  9  1 -1</clus>
<clus scale="   54.915">  7  8 -1 -1</clus>
<clus scale="   58.704">  1  7  2 -1</clus>
<clus scale="   91.918">  5  6 -1 -1</clus>
<clus scale="   16.029">  5 10 -1 -1</clus>
<clus scale="   23.865">  2  5  1 -1</clus>
</clustering>
</event>
<event>
10    2  0.4951045E-006  0.3246940E+03  0.7546771E-02  0.1118961E+00
          2   -1    0    0  502    0 -0.00000000000E+00  0.00000000000E+00  0.73083221441E+03  0.73083221441E+03  0.00000000000E+00 0. -1.
         21   -1    0    0  503  502  0.00000000000E+00 -0.00000000000E+00 -0.80936482526E+02  0.80936482526E+02  0.00000000000E+00 0. -1.
         23    2    1    2    0    0  0.38732454919E+02 -0.21507382597E+02  0.25784655251E+03  0.27665944501E+03  0.89960176209E+02 0.  0.
         23    2    1    2    0    0 -0.14940258444E+03 -0.27711990918E+02  0.27521316337E+03  0.32676278415E+03  0.89120957897E+02 0.  0.
        -11    1    4    4    0    0 -0.74298455630E+02 -0.33763133861E+02  0.67838189305E+02  0.10612365262E+03  0.00000000000E+00 0.  1.
         11    1    4    4    0    0 -0.75104128814E+02  0.60511429430E+01  0.20737497406E+03  0.22063913153E+03  0.00000000000E+00 0. -1.
        -11    1    3    3    0    0  0.30048560557E+02 -0.47364471508E+02  0.23335264796E+03  0.23999951555E+03  0.00000000000E+00 0. -1.
         11    1    3    3    0    0  0.86838943621E+01  0.25857088912E+02  0.24493904546E+02  0.36659929463E+02  0.00000000000E+00 0.  1.
         21    1    1    2  503  501 -0.21682476622E+02  0.58468204631E+01 -0.53313217938E+01  0.23081119861E+02  0.00000000000E+00 0.  1.
          2    1    1    2  501    0  0.13235260615E+03  0.43372553052E+02  0.12216733781E+03  0.18526534792E+03  0.00000000000E+00 0. -1.
<scales pt_clust_5="13000.00000" pt_clust_6="13000.00000" pt_clust_7="13000.00000" pt_clust_8="13000.00000" pt_clust_9="22.45696" pt_clust_10="13000.00000"></scales>
<clustering>
<clus scale="   22.457">  2  9  1 -1</clus>
<clus scale="   89.121">  5  6 -1 -1</clus>
<clus scale="   89.960">  7  8 -1 -1</clus>
<clus scale="   98.962">  1  7  2 -1</clus>
<clus scale="  138.682">  5 10 -1 -1</clus>
<clus scale="   22.457">  2  5  1 -1</clus>
</clustering>
</event>
<event>
10    2  0.4951045E-006  0.3073232E+03  0.7546771E-02  0.1113553E+00
         21   -1    0    0  501  502  0.00000000000E+00  0.00000000000E+00  0.11306282359E+03  0.11306282359E+03  0.00000000000E+00 0. -1.
          1   -1    0    0  503    0 -0.00000000000E+00 -0.00000000000E+00 -0.11449832463E+04  0.11449832463E+04  0.00000000000E+00 0. -1.
         23    2    1    2    0    0  0.83844136189E+02  0.13179387208E+02 -0.45757170176E+03  0.47409151249E+03  0.90484056851E+02 0.  0.
         23    2    1    2    0    0 -0.23122102160E+03 -0.37163740007E+02 -0.51760318661E+03  0.57508071278E+03  0.89221426907E+02 0.  0.
        -13    1    3    3    0    0 -0.64882052140E+01 -0.25111397757E+02 -0.93098220601E+02  0.96643457012E+02  0.00000000000E+00 0.  1.
         13    1    3    3    0    0  0.90332341403E+02  0.38290784966E+02 -0.36447348116E+03  0.37744805548E+03  0.00000000000E+00 0. -1.
        -13    1    4    4    0    0 -0.45292176401E+02  0.26463279950E+02 -0.13786199920E+03  0.14750463468E+03  0.00000000000E+00 0.  1.
         13    1    4    4    0    0 -0.18592884520E+03 -0.63627019957E+02 -0.37974118741E+03  0.42757607810E+03  0.00000000000E+00 0. -1.
         21    1    1    2  503  502  0.78575394492E+02  0.62071591297E+02  0.16407031128E+02  0.10147002383E+03  0.00000000000E+00 0. -1.
          1    1    1    2  501    0  0.68801490918E+02 -0.38087238498E+02 -0.73152565482E+02  0.10740382081E+03  0.00000000000E+00 0. -1.
<scales pt_clust_5="13000.00000" pt_clust_6="13000.00000" pt_clust_7="13000.00000" pt_clust_8="13000.00000" pt_clust_9="100.13478" pt_clust_10="13000.00000"></scales>
<clustering>
<clus scale="   89.221">  7  8 -1 -1</clus>
<clus scale="   78.640">  7 10 -1 -1</clus>
<clus scale="   90.484">  5  6 -1 -1</clus>
<clus scale="  100.135">  1  9  2 -1</clus>
<clus scale="  133.735">  2  5  1 -1</clus>
<clus scale="  100.135">  1  5  2 -1</clus>
</clustering>
</event>
<event>
10    2  0.4951045E-006  0.1428930E+03  0.7546771E-02  0.1226266E+00
         21   -1    0    0  501  502  0.00000000000E+00  0.00000000000E+00  0.70729357006E+02  0.70729357006E+02  0.00000000000E+00 0. -1.
         -1   -1    0    0    0  501 -0.00000000000E+00 -0.00000000000E+00 -0.44377054062E+03  0.44377054062E+03  0.00000000000E+00 0.  1.
         23    2    1    2    0    0 -0.37247733459E+02 -0.20276386537E+02 -0.28290477185E+03  0.30011387479E+03  0.90745261063E+02 0.  0.
         23    2    1    2    0    0  0.68198397310E+02  0.17295703029E+02 -0.73739506817E+02  0.13710188044E+03  0.91701952083E+02 0.  0.
        -11    1    3    3    0    0 -0.40863636518E+02 -0.40313983082E+02 -0.26993905898E+03  0.27597490752E+03  0.00000000000E+00 0.  1.
         11    1    3    3    0    0  0.36159030590E+01  0.20037596545E+02 -0.12965712874E+02  0.24138967264E+02  0.00000000000E+00 0. -1.
        -13    1    4    4    0    0  0.13640446001E+02  0.19120077414E+02 -0.78850987675E+02  0.82274646063E+02  0.00000000000E+00 0.  1.
         13    1    4    4    0    0  0.54557951309E+02 -0.18243743849E+01  0.51114808587E+01  0.54827234378E+02  0.00000000000E+00 0. -1.
         21    1    1    2  503  502 -0.15329300667E+02  0.28335919858E+02  0.13640787288E+02  0.34985466854E+02  0.00000000000E+00 0. -1.
         -1    1    1    2    0  503 -0.15621363184E+02 -0.25355236350E+02 -0.30037692236E+02  0.42298675546E+02  0.00000000000E+00 0.  1.
<scales pt_clust_5="13000.00000" pt_clust_6="13000.00000" pt_clust_7="13000.00000" pt_clust_8="13000.00000" pt_clust_9="32.21664" pt_clust_10="13000.00000"></scales>
<clustering>
<clus scale="   32.217">  1  9  2 -1</clus>
<clus scale="   90.745">  5  6 -1 -1</clus>
<clus scale="   91.702">  7  8 -1 -1</clus>
<clus scale="   27.901">  7 10 -1 -1</clus>
<clus scale="  100.337">  2  5  1 -1</clus>
<clus scale="   32.217">  1  5  2 -1</clus>
</clustering>
</event>
<event>
10    2  0.4951045E-006  0.7701964E+03  0.7546771E-02  0.1002395E+00
         21   -1    0    0  501  502  0.00000000000E+00  0.00000000000E+00  0.27051651548E+03  0.27051651548E+03  0.00000000000E+00 0. -1.
          1   -1    0    0  503    0 -0.00000000000E+00 -0.00000000000E+00 -0.14365804856E+04  0.14365804856E+04  0.00000000000E+00 0. -1.
         23    2    1    2    0    0  0.12666003264E+03 -0.16892039710E+03 -0.14439630854E+02  0.22646861887E+03  0.80639121827E+02 0.  0.
         23    2    1    2    0    0 -0.16838944641E+03  0.17195416442E+03 -0.12050559036E+04  0.12322582798E+04  0.91528668447E+02 0.  0.
        -11    1    3    3    0    0  0.12531894103E+02 -0.78889757345E+02 -0.14042724082E+02  0.81103885748E+02  0.00000000000E+00 0.  1.
         11    1    3    3    0    0  0.11412813854E+03 -0.90030639758E+02 -0.39690677146E+00  0.14536473313E+03  0.00000000000E+00 0. -1.
        -13    1    4    4    0    0 -0.18934714446E+02  0.79264902759E+02 -0.40007130491E+03  0.40828727292E+03  0.00000000000E+00 0.  1.
         13    1    4    4    0    0 -0.14945473196E+03  0.92689261663E+02 -0.80498459869E+03  0.82397100693E+03  0.00000000000E+00 0. -1.
         21    1    1    2  503  502 -0.95732360476E+02  0.23364410765E+02 -0.78754538697E-02  0.98542278210E+02  0.00000000000E+00 0. -1.
          1    1    1    2  501    0  0.13746177424E+03 -0.26398178084E+02  0.53439439738E+02  0.14982782419E+03  0.00000000000E+00 0. -1.
<scales pt_clust_5="13000.00000" pt_clust_6="13000.00000" pt_clust_7="13000.00000" pt_clust_8="13000.00000" pt_clust_9="98.54228" pt_clust_10="13000.00000"></scales>
<clustering>
<clus scale="   80.639">  5  6 -1 -1</clus>
<clus scale="   91.529">  7  8 -1 -1</clus>
<clus scale="   98.542">  1  9  2 -1</clus>
<clus scale="   94.789">  7 10 -1 -1</clus>
<clus scale="  194.696">  2  5  1 -1</clus>
<clus scale="   98.542">  1  5  2 -1</clus>
</clustering>
</event>
<event>
10    2  0.4951045E-006  0.4225941E+03  0.7546771E-02  0.1065097E+00
          1   -1    0    0  502    0 -0.00000000000E+00  0.00000000000E+00  0.34581748388E+03  0.34581748388E+03  0.00000000000E+00 0. -1.
         21   -1    0    0  503  502  0.00000000000E+00 -0.00000000000E+00 -0.42232563870E+03  0.42232563870E+03  0.00000000000E+00 0. -1.
         23    2    1    2    0    0  0.12457628756E+01 -0.18962733508E+03  0.53420503140E+02  0.21817260651E+03  0.93730773729E+02 0.  0.
         23    2    1    2    0    0  0.13427818569E+03  0.19613019688E+03 -0.36510310999E+02  0.25716454587E+03  0.91120335626E+02 0.  0.
        -11    1    4    4    0    0  0.10663134564E+03  0.99368378173E+02  0.10418551989E+02  0.14612619437E+03  0.00000000000E+00 0. -1.
         11    1    4    4    0    0  0.27646840048E+02  0.96761818706E+02 -0.46928862988E+02  0.11103835151E+03  0.00000000000E+00 0.  1.
        -13    1    3    3    0    0  0.26959362767E+02 -0.80059194491E+02  0.62763684125E+02  0.10524049557E+03  0.00000000000E+00 0. -1.
         13    1    3    3    0    0 -0.25713599892E+02 -0.10956814059E+03 -0.93431809851E+01  0.11293211094E+03  0.00000000000E+00 0.  1.
         21    1    1    2  503  501 -0.52406041053E+02  0.11460710607E+03 -0.69711024416E+02  0.14401669635E+03  0.00000000000E+00 0. -1.
          1    1    1    2  501    0 -0.83117907514E+02 -0.12110996788E+03 -0.23707322551E+02  0.14878927384E+03  0.00000000000E+00 0. -1.
<scales pt_clust_5="13000.00000" pt_clust_6="13000.00000" pt_clust_7="13000.00000" pt_clust_8="13000.00000" pt_clust_9="126.02056" pt_clust_10="13000.00000"></scales>
<clustering>
<clus scale="   91.120">  5  6 -1 -1</clus>
<clus scale="   93.731">  7  8 -1 -1</clus>
<clus scale="  126.021">  2  9  1 -1</clus>
<clus scale="  132.497">  5 10 -1 -1</clus>
<clus scale="  185.592">  1  7  2 -1</clus>
<clus scale="  126.021">  2  5  1 -1</clus>
</clustering>
</event>
<event>
10    2  0.4951045E-006  0.3956777E+03  0.7546771E-02  0.1093777E+00
          1   -1    0    0  503    0 -0.00000000000E+00  0.00000000000E+00  0.15402034266E+03  0.15402034266E+03  0.00000000000E+00 0. -1.
         21   -1    0    0  501  502  0.00000000000E+00 -0.00000000000E+00 -0.59360116240E+03  0.59360116240E+03  0.00000000000E+00 0. -1.
         23    2    1    2    0    0 -0.32341090875E+02 -0.16145386778E+02 -0.36279602150E+02  0.11196299664E+03  0.99563464235E+02 0.  0.
         23    2    1    2    0    0  0.23389955768E+02 -0.73264091499E+02  0.78425244372E+02  0.14292545871E+03  0.91446436007E+02 0.  0.
        -11    1    3    3    0    0 -0.60559739316E+02 -0.19842552100E+02  0.25994581338E+01  0.63780608985E+02  0.00000000000E+00 0.  1.
         11    1    3    3    0    0  0.28218648441E+02  0.36971653223E+01 -0.38879060284E+02  0.48182387652E+02  0.00000000000E+00 0. -1.
        -13    1    4    4    0    0 -0.31262515733E+02 -0.47438005328E+02  0.51768167350E+02  0.76861254155E+02  0.00000000000E+00 0. -1.
         13    1    4    4    0    0  0.54652471501E+02 -0.25826086170E+02  0.26657077022E+02  0.66064204554E+02  0.00000000000E+00 0.  1.
         21    1    1    2  503  502  0.22537049918E+02  0.17428199381E+02 -0.18007879305E+03  0.18231849182E+03  0.00000000000E+00 0. -1.
          1    1    1    2  501    0 -0.13585914810E+02  0.71981278896E+02 -0.30164766891E+03  0.31041455790E+03  0.00000000000E+00 0. -1.
<scales pt_clust_5="13000.00000" pt_clust_6="13000.00000" pt_clust_7="13000.00000" pt_clust_8="13000.00000" pt_clust_9="28.48966" pt_clust_10="13000.00000"></scales>
<clustering>
<clus scale="   28.490">  2  9  1 -1</clus>
<clus scale="   91.446">  7  8 -1 -1</clus>
<clus scale="   84.972">  7 10 -1 -1</clus>
<clus scale="   99.563">  5  6 -1 -1</clus>
<clus scale="  104.320">  1  5  2 -1</clus>
<clus scale="   28.490">  2  5  1 -1</clus>
</clustering>
</event>
<event>
10    2  0.4951045E-006  0.1410935E+03  0.7546771E-02  0.1228850E+00
         21   -1    0    0  501  502  0.00000000000E+00  0.00000000000E+00  0.70033474138E+03  0.70033474138E+03  0.00000000000E+00 0.  1.
          1   -1    0    0  503    0 -0.00000000000E+00 -0.00000000000E+00 -0.70078345384E+02  0.70078345384E+02  0.00000000000E+00 0. -1.
         23    2    1    2    0    0  0.45016097453E+02 -0.74548994564E+02  0.17765596748E+03  0.21768887569E+03  0.90789879372E+02 0.  0.
         23    2    1    2    0    0 -0.18510388389E+02  0.28641917288E+02  0.92036892159E+01  0.97716374207E+02  0.91108660338E+02 0.  0.
        -13    1    4    4    0    0 -0.40510013444E+02 -0.15507534155E+02  0.19117772955E+02  0.47402890709E+02  0.00000000000E+00 0.  1.
         13    1    4    4    0    0  0.21999625055E+02  0.44149451443E+02 -0.99140837393E+01  0.50313483498E+02  0.00000000000E+00 0. -1.
        -13    1    3    3    0    0 -0.21126771900E+02 -0.89119577318E+01  0.77797756886E+02  0.81106439067E+02  0.00000000000E+00 0. -1.
         13    1    3    3    0    0  0.66142869353E+02 -0.65637036833E+02  0.99858210598E+02  0.13658243662E+03  0.00000000000E+00 0.  1.
         21    1    1    2  503  502 -0.30668976412E+02  0.66822604175E+02  0.39944740384E+03  0.40615769718E+03  0.00000000000E+00 0.  1.
          1    1    1    2  501    0  0.41632673483E+01 -0.20915526899E+02  0.43949335452E+02  0.48850139684E+02  0.00000000000E+00 0. -1.
<scales pt_clust_5="13000.00000" pt_clust_6="13000.00000" pt_clust_7="13000.00000" pt_clust_8="13000.00000" pt_clust_9="73.52446" pt_clust_10="13000.00000"></scales>
<clustering>
<clus scale="   73.524">  1  9  2 -1</clus>
<clus scale="   90.790">  7  8 -1 -1</clus>
<clus scale="   91.109">  5  6 -1 -1</clus>
<clus scale="   10.513">  5 10 -1 -1</clus>
<clus scale="   98.789">  2  7  1 -1</clus>
<clus scale="   73.524">  1  5  2 -1</clus>
</clustering>
</event>
<event>
10    2  0.4951045E-006  0.1121790E+04  0.7546771E-02  0.9877203E-01
         21   -1    0    0  503  502  0.00000000000E+00  0.00000000000E+00  0.60889708705E+03  0.60889708705E+03  0.00000000000E+00 0.  1.
         -1   -1    0    0    0  501 -0.00000000000E+00 -0.00000000000E+00 -0.73711199433E+03  0.73711199433E+03  0.00000000000E+00 0.  1.
         23    2    1    2    0    0  0.37249194133E+02 -0.25024973070E+02 -0.13764429598E+03  0.17017956737E+03  0.89450439866E+02 0.  0.
         23    2    1    2    0    0  0.11115857992E+03 -0.19115753048E+02 -0.53943355622E+03  0.55861138360E+03  0.91304295699E+02 0.  0.
        -11    1    3    3    0    0  0.64976680421E+02 -0.78803383635E+01 -0.10703729016E+03  0.12546334212E+03  0.00000000000E+00 0.  1.
         11    1    3    3    0    0 -0.27727486288E+02 -0.17144634706E+02 -0.30607005829E+02  0.44716225253E+02  0.00000000000E+00 0. -1.
        -11    1    4    4    0    0  0.87651126599E+02  0.18064686427E+02 -0.45155816311E+03  0.46034099053E+03  0.00000000000E+00 0.  1.
         11    1    4    4    0    0  0.23507453324E+02 -0.37180439475E+02 -0.87875393108E+02  0.98270393075E+02  0.00000000000E+00 0. -1.
         21    1    1    2  503  501  0.10949725984E+02 -0.48364649069E+02  0.14031518694E+02  0.51535611916E+02  0.00000000000E+00 0.  1.
         -1    1    1    2    0  502 -0.15935750004E+03  0.92505375186E+02  0.53483142622E+03  0.56568251849E+03  0.00000000000E+00 0.  1.
<scales pt_clust_5="13000.00000" pt_clust_6="13000.00000" pt_clust_7="13000.00000" pt_clust_8="13000.00000" pt_clust_9="49.58867" pt_clust_10="13000.00000"></scales>
<clustering>
<clus scale="   49.589">  1  9  2 -1</clus>
<clus scale="   89.450">  5  6 -1 -1</clus>
<clus scale="   91.304">  7  8 -1 -1</clus>
<clus scale="  100.541">  2  5  1 -1</clus>
<clus scale="  153.698">  7 10 -1 -1</clus>
<clus scale="   49.589">  1  5  2 -1</clus>
</clustering>
</event>
<event>
10    2  0.4951045E-006  0.3227297E+03  0.7546771E-02  0.1091856E+00
         21   -1    0    0  501  502  0.00000000000E+00  0.00000000000E+00  0.19002666784E+03  0.19002666784E+03  0.00000000000E+00 0. -1.
          2   -1    0    0  503    0 -0.00000000000E+00 -0.00000000000E+00 -0.10488740927E+04  0.10488740927E+04  0.00000000000E+00 0. -1.
         23    2    1    2    0    0 -0.11816717685E+03  0.13085833227E+03 -0.78460739516E+03  0.80926381624E+03  0.90618844182E+02 0.  0.
         23    2    1    2    0    0 -0.13231470962E+02 -0.27189670412E+02 -0.84398690774E+02  0.12854893261E+03  0.92126755449E+02 0.  0.
        -13    1    3    3    0    0 -0.66593303893E+02  0.11963697684E+03 -0.65800464833E+03  0.67209953993E+03  0.00000000000E+00 0. -1.
         13    1    3    3    0    0 -0.51573872960E+02  0.11221355430E+02 -0.12660274683E+03  0.13716427631E+03  0.00000000000E+00 0.  1.
        -13    1    4    4    0    0 -0.18579918766E+01 -0.48459781110E+02 -0.91369613984E+02  0.10344181398E+03  0.00000000000E+00 0.  1.
         13    1    4    4    0    0 -0.11373479085E+02  0.21270110698E+02  0.69709232105E+01  0.25107118632E+02  0.00000000000E+00 0. -1.
         21    1    1    2  503  502 -0.41153295352E+02  0.46093448968E+02 -0.30677775911E+02  0.68987866259E+02  0.00000000000E+00 0. -1.
          2    1    1    2  501    0  0.17255194317E+03 -0.14976211083E+03  0.40836436971E+02  0.23210014544E+03  0.00000000000E+00 0. -1.
<scales pt_clust_5="13000.00000" pt_clust_6="13000.00000" pt_clust_7="13000.00000" pt_clust_8="13000.00000" pt_clust_9="61.79158" pt_clust_10="13000.00000"></scales>
<clustering>
<clus scale="   61.792">  1  9  2 -1</clus>
<clus scale="   90.619">  5  6 -1 -1</clus>
<clus scale="   92.127">  7  8 -1 -1</clus>
<clus scale="  179.637">  7 10 -1 -1</clus>
<clus scale="  202.216">  2  5  1 -1</clus>
<clus scale="   61.792">  1  5  2 -1</clus>
</clustering>
</event>
<event>
10    2  0.4951045E-006  0.2371372E+03  0.7546771E-02  0.1150204E+00
          2   -1    0    0  502    0 -0.00000000000E+00  0.00000000000E+00  0.18317605823E+03  0.18317605823E+03  0.00000000000E+00 0. -1.
         21   -1    0    0  503  502  0.00000000000E+00 -0.00000000000E+00 -0.20219530644E+03  0.20219530644E+03  0.00000000000E+00 0.  1.
         23    2    1    2    0    0 -0.35661119282E+02 -0.67099692245E+02  0.31952338886E+02  0.12455861748E+03  0.93379939503E+02 0.  0.
         23    2    1    2    0    0  0.35429084764E+02  0.12167908886E+03 -0.58803022322E+02  0.16675879135E+03  0.91047670729E+02 0.  0.
        -13    1    4    4    0    0  0.29741777642E+02  0.27548285587E+02 -0.60043785102E+02  0.72448171167E+02  0.00000000000E+00 0.  1.
         13    1    4    4    0    0  0.56873071220E+01  0.94130803269E+02  0.12407627797E+01  0.94310620180E+02  0.00000000000E+00 0. -1.
        -13    1    3    3    0    0 -0.63960456448E+02 -0.26096610202E+02  0.88566701520E+01  0.69644911223E+02  0.00000000000E+00 0.  1.
         13    1    3    3    0    0  0.28299337167E+02 -0.41003082043E+02  0.23095668734E+02  0.54913706261E+02  0.00000000000E+00 0. -1.
         21    1    1    2  503  501 -0.89232047547E+01  0.18211933722E+02  0.78617023890E-01  0.20280638393E+02  0.00000000000E+00 0. -1.
          2    1    1    2  501    0  0.91552392722E+01 -0.72791330334E+02  0.77528181999E+01  0.73773317452E+02  0.00000000000E+00 0. -1.
<scales pt_clust_5="13000.00000" pt_clust_6="13000.00000" pt_clust_7="13000.00000" pt_clust_8="13000.00000" pt_clust_9="20.28050" pt_clust_10="13000.00000"></scales>
<clustering>
<clus scale="   20.280">  2  9  1 -1</clus>
<clus scale="   91.048">  5  6 -1 -1</clus>
<clus scale="   70.077">  5 10 -1 -1</clus>
<clus scale="   93.380">  7  8 -1 -1</clus>
<clus scale="  118.668">  1  7  2 -1</clus>
<clus scale="   20.280">  2  5  1 -1</clus>
</clustering>
</event>
<event>
10    2  0.4951045E-006  0.1907561E+03  0.7546771E-02  0.1189040E+00
          2   -1    0    0  503    0 -0.00000000000E+00  0.00000000000E+00  0.30779147302E+03  0.30779147302E+03  0.00000000000E+00 0. -1.
         21   -1    0    0  501  502  0.00000000000E+00 -0.00000000000E+00 -0.91136204376E+02  0.91136204376E+02  0.00000000000E+00 0.  1.
         23    2    1    2    0    0 -0.10402943550E+02 -0.16213847954E+02  0.93553038743E+02  0.13139988679E+03  0.90236628315E+02 0.  0.
         23    2    1    2    0    0  0.26851161701E+02  0.42155867155E+02  0.16241538062E+03  0.19322458946E+03  0.91972191941E+02 0.  0.
        -11    1    4    4    0    0  0.19542503561E+02 -0.26132569285E+02  0.76956879971E+02  0.83589365339E+02  0.00000000000E+00 0.  1.
         11    1    4    4    0    0  0.73086581400E+01  0.68288436441E+02  0.85458500651E+02  0.10963522412E+03  0.00000000000E+00 0. -1.
        -11    1    3    3    0    0 -0.35725475506E+02  0.50689822970E+00  0.94511799247E+02  0.10103982751E+03  0.00000000000E+00 0. -1.
         11    1    3    3    0    0  0.25322531957E+02 -0.16720746184E+02 -0.95876050479E+00  0.30360059278E+02  0.00000000000E+00 0.  1.
         21    1    1    2  503  502  0.11200313529E+02 -0.29539035664E+02 -0.84309469504E+01  0.32696827332E+02  0.00000000000E+00 0.  1.
          2    1    1    2  501    0 -0.27648531681E+02  0.35970164633E+01 -0.30882203775E+02  0.41606373809E+02  0.00000000000E+00 0. -1.
<scales pt_clust_5="13000.00000" pt_clust_6="13000.00000" pt_clust_7="13000.00000" pt_clust_8="13000.00000" pt_clust_9="31.59116" pt_clust_10="13000.00000"></scales>
<clustering>
<clus scale="   31.591">  2  9  1 -1</clus>
<clus scale="   90.237">  7  8 -1 -1</clus>
<clus scale="   91.972">  5  6 -1 -1</clus>
<clus scale="   24.767">  5 10 -1 -1</clus>
<clus scale="   93.701">  1  7  2 -1</clus>
<clus scale="   31.591">  2  5  1 -1</clus>
</clustering>
</event>
<event>
10    2  0.4951045E-006  0.3225223E+03  0.7546771E-02  0.1116288E+00
          1   -1    0    0  503    0 -0.00000000000E+00  0.00000000000E+00  0.10720857281E+04  0.10720857281E+04  0.00000000000E+00 0. -1.
         21   -1    0    0  501  502  0.00000000000E+00 -0.00000000000E+00 -0.74075086469E+02  0.74075086469E+02  0.00000000000E+00 0. -1.
         23    2    1    2    0    0 -0.64366163915E+02 -0.38501110581E+01  0.26580350886E+03  0.28838355542E+03  0.91409754966E+02 0.  0.
         23    2    1    2    0    0 -0.67958107039E+02  0.65649616956E+02  0.63004567263E+03  0.64350715652E+03  0.90640688322E+02 0.  0.
        -11    1    3    3    0    0 -0.53297164179E+02  0.33697406671E+02  0.10158757543E+03  0.11956646022E+03  0.00000000000E+00 0. -1.
         11    1    3    3    0    0 -0.11068999736E+02 -0.37547517729E+02  0.16421593343E+03  0.16881709521E+03  0.00000000000E+00 0.  1.
        -13    1    4    4    0    0 -0.42458715968E+02 -0.15526866604E+02  0.24978123135E+03  0.25383949591E+03  0.00000000000E+00 0.  1.
         13    1    4    4    0    0 -0.25499391071E+02  0.81176483559E+02  0.38026444128E+03  0.38966766061E+03  0.00000000000E+00 0. -1.
         21    1    1    2  503  502  0.26806120068E+02  0.49995611790E+01 -0.24309667406E+02  0.36531132127E+02  0.00000000000E+00 0. -1.
          1    1    1    2  501    0  0.10551815089E+03 -0.66799067077E+02  0.12647112753E+03  0.17773897048E+03  0.00000000000E+00 0. -1.
<scales pt_clust_5="13000.00000" pt_clust_6="13000.00000" pt_clust_7="13000.00000" pt_clust_8="13000.00000" pt_clust_9="27.26836" pt_clust_10="13000.00000"></scales>
<clustering>
<clus scale="   27.268">  2  9  1 -1</clus>
<clus scale="   90.641">  7  8 -1 -1</clus>
<clus scale="   91.410">  5  6 -1 -1</clus>
<clus scale="  107.986">  1  5  2 -1</clus>
<clus scale="  125.705">  7 10 -1 -1</clus>
<clus scale="   27.268">  2  5  1 -1</clus>
</clustering>
</event>
<event>
10    2  0.4951045E-006  0.1634615E+03  0.7546771E-02  0.1207172E+00
          2   -1    0    0  503    0 -0.00000000000E+00  0.00000000000E+00  0.64942473505E+03  0.64942473505E+03  0.00000000000E+00 0. -1.
         21   -1    0    0  501  502  0.00000000000E+00 -0.00000000000E+00 -0.16403908002E+03  0.16403908002E+03  0.00000000000E+00 0.  1.
         23    2    1    2    0    0 -0.41766252163E+02  0.25396170593E+02  0.36637924316E+03  0.38056229662E+03  0.90578841300E+02 0.  0.
         23    2    1    2    0    0  0.73807240243E+02  0.11632308478E+01  0.19938233210E+03  0.23181759340E+03  0.92397080250E+02 0.  0.
        -11    1    4    4    0    0  0.29104659474E+02  0.89792783190E+01  0.17985170428E+03  0.18241256584E+03  0.00000000000E+00 0. -1.
         11    1    4    4    0    0  0.44702580769E+02 -0.78160474711E+01  0.19530627813E+02  0.49405027560E+02  0.00000000000E+00 0.  1.
        -13    1    3    3    0    0 -0.68962000835E+02  0.30008102343E+02  0.27646736614E+03  0.28651430733E+03  0.00000000000E+00 0. -1.
         13    1    3    3    0    0  0.27195748672E+02 -0.46119317498E+01  0.89911877025E+02  0.94047989295E+02  0.00000000000E+00 0.  1.
         21    1    1    2  503  502  0.54821677737E+01 -0.48051524782E+02 -0.12795523323E+03  0.13679014917E+03  0.00000000000E+00 0.  1.
          2    1    1    2  501    0 -0.37523155853E+02  0.21492123341E+02  0.47579313007E+02  0.64293775882E+02  0.00000000000E+00 0. -1.
<scales pt_clust_5="13000.00000" pt_clust_6="13000.00000" pt_clust_7="13000.00000" pt_clust_8="13000.00000" pt_clust_9="48.36324" pt_clust_10="13000.00000"></scales>
<clustering>
<clus scale="   48.363">  2  9  1 -1</clus>
<clus scale="   90.579">  7  8 -1 -1</clus>
<clus scale="   92.397">  5  6 -1 -1</clus>
<clus scale="   37.137">  5 10 -1 -1</clus>
<clus scale="  100.310">  1  7  2 -1</clus>
<clus scale="   48.363">  2  5  1 -1</clus>
</clustering>
</event>
<event>
10    2  0.4951045E-006  0.1950433E+03  0.7546771E-02  0.1155077E+00
          2   -1    0    0  503    0 -0.00000000000E+00  0.00000000000E+00  0.10836104684E+04  0.10836104684E+04  0.00000000000E+00 0. -1.
         21   -1    0    0  501  502  0.00000000000E+00 -0.00000000000E+00 -0.64815398510E+02  0.64815398510E+02  0.00000000000E+00 0.  1.
         23    2    1    2    0    0 -0.12236681360E+03  0.24271079320E+02  0.31824524478E+03  0.36064274555E+03  0.11498013623E+03 0.  0.
         23    2    1    2    0    0  0.15339161661E+03  0.79815245875E+02  0.52192450906E+03  0.55796295597E+03  0.94963179993E+02 0.  0.
        -11    1    3    3    0    0  0.62879736247E+01 -0.19640496106E+02  0.83633963991E+01  0.22253855821E+02  0.00000000000E+00 0. -1.
         11    1    3    3    0    0 -0.12865478723E+03  0.43911575426E+02  0.30988184838E+03  0.33838888973E+03  0.00000000000E+00 0.  1.
        -11    1    4    4    0    0  0.10054493636E+03  0.18078447878E+02  0.18454119734E+03  0.21093024445E+03  0.00000000000E+00 0.  1.
         11    1    4    4    0    0  0.52846680250E+02  0.61736797997E+02  0.33738331172E+03  0.34703271152E+03  0.00000000000E+00 0. -1.
         21    1    1    2  503  502 -0.53339864250E+02 -0.89814218127E+02  0.91869293369E+02  0.13911039487E+03  0.00000000000E+00 0.  1.
          2    1    1    2  501    0  0.22315061239E+02 -0.14272107068E+02  0.86756022703E+02  0.90709770552E+02  0.00000000000E+00 0. -1.
<scales pt_clust_5="13000.00000" pt_clust_6="13000.00000" pt_clust_7="13000.00000" pt_clust_8="13000.00000" pt_clust_9="104.45925" pt_clust_10="13000.00000"></scales>
<clustering>
<clus scale="   94.963">  7  8 -1 -1</clus>
<clus scale="   26.489">  7 10 -1 -1</clus>
<clus scale="  104.459">  2  9  1 -1</clus>
<clus scale="  114.980">  5  6 -1 -1</clus>
<clus scale="  190.123">  1  5  2 -1</clus>
<clus scale="  104.459">  2  5  1 -1</clus>
</clustering>
</event>
<event>
10    2  0.4951045E-006  0.2966946E+03  0.7546771E-02  0.1122800E+00
         21   -1    0    0  501  502  0.00000000000E+00  0.00000000000E+00  0.54413673377E+03  0.54413673377E+03  0.00000000000E+00 0.  1.
         -1   -1    0    0    0  501 -0.00000000000E+00 -0.00000000000E+00 -0.51135059766E+03  0.51135059766E+03  0.00000000000E+00 0.  1.
         23    2    1    2    0    0  0.60147611552E+02 -0.24988620437E+02 -0.17094445198E+03  0.20396813450E+03  0.90215452672E+02 0.  0.
         23    2    1    2    0    0 -0.10700185544E+03 -0.93827584022E+02 -0.27040800349E+03  0.32046083806E+03  0.96548680919E+02 0.  0.
        -11    1    3    3    0    0  0.55872104279E+02  0.11300370586E+02 -0.44402809592E+02  0.72256486986E+02  0.00000000000E+00 0. -1.
         11    1    3    3    0    0  0.42755072737E+01 -0.36288991024E+02 -0.12654164239E+03  0.13171164751E+03  0.00000000000E+00 0.  1.
        -11    1    4    4    0    0 -0.68885015877E+02 -0.10681801694E+03 -0.23342027099E+03  0.26578234905E+03  0.00000000000E+00 0.  1.
         11    1    4    4    0    0 -0.38116839561E+02  0.12990432913E+02 -0.36987732500E+02  0.54678489014E+02  0.00000000000E+00 0. -1.
         21    1    1    2  503  502  0.84047963243E+02  0.57473539465E+02  0.43997162341E+03  0.45159970912E+03  0.00000000000E+00 0.  1.
         -1    1    1    2    0  503 -0.37193719357E+02  0.61342664994E+02  0.34166968167E+02  0.79458649762E+02  0.00000000000E+00 0.  1.
<scales pt_clust_5="13000.00000" pt_clust_6="13000.00000" pt_clust_7="13000.00000" pt_clust_8="13000.00000" pt_clust_9="101.81978" pt_clust_10="13000.00000"></scales>
<clustering>
<clus scale="   90.215">  5  6 -1 -1</clus>
<clus scale="   96.549">  7  8 -1 -1</clus>
<clus scale="   71.738">  7 10 -1 -1</clus>
<clus scale="  101.820">  1  9  2 -1</clus>
<clus scale="  117.849">  2  5  1 -1</clus>
<clus scale="  101.820">  1  5  2 -1</clus>
</clustering>
</event>
<event>
10    2  0.4951045E-006  0.2660895E+03  0.7546771E-02  0.1133648E+00
         21   -1    0    0  501  502  0.00000000000E+00  0.00000000000E+00  0.28169803877E+03  0.28169803877E+03  0.00000000000E+00 0.  1.
          1   -1    0    0  503    0 -0.00000000000E+00 -0.00000000000E+00 -0.31871495534E+03  0.31871495534E+03  0.00000000000E+00 0. -1.
         23    2    1    2    0    0 -0.16272689718E+02  0.70572631185E+02 -0.15553254265E+02  0.11831876247E+03  0.92261200574E+02 0.  0.
         23    2    1    2    0    0  0.57991165927E+02 -0.27610169045E+02 -0.20494185502E+03  0.23382607633E+03  0.92456331724E+02 0.  0.
        -13    1    3    3    0    0  0.26277266223E+02  0.58711120424E+02  0.13131319940E+02  0.65649995773E+02  0.00000000000E+00 0. -1.
         13    1    3    3    0    0 -0.42549955941E+02  0.11861510761E+02 -0.28684574205E+02  0.52668766698E+02  0.00000000000E+00 0.  1.
        -13    1    4    4    0    0  0.38008752543E+02 -0.37035166825E+02 -0.20497404761E+03  0.21173244684E+03  0.00000000000E+00 0. -1.
         13    1    4    4    0    0  0.19982413385E+02  0.94249977800E+01  0.32192592990E-01  0.22093629493E+02  0.00000000000E+00 0.  1.
         21    1    1    2  503  502  0.27036717207E+01  0.30426400415E+02  0.15484580169E+03  0.15782996542E+03  0.00000000000E+00 0.  1.
          1    1    1    2  501    0 -0.44422147930E+02 -0.73388862555E+02  0.28632391023E+02  0.90438189884E+02  0.00000000000E+00 0. -1.
<scales pt_clust_5="13000.00000" pt_clust_6="13000.00000" pt_clust_7="13000.00000" pt_clust_8="13000.00000" pt_clust_9="30.54629" pt_clust_10="13000.00000"></scales>
<clustering>
<clus scale="   30.546">  1  9  2 -1</clus>
<clus scale="   92.261">  5  6 -1 -1</clus>
<clus scale="   92.456">  7  8 -1 -1</clus>
<clus scale="   73.039">  7 10 -1 -1</clus>
<clus scale="  125.054">  2  5  1 -1</clus>
<clus scale="   30.546">  1  5  2 -1</clus>
</clustering>
</event>
<event>
10    2  0.4951045E-006  0.2589966E+03  0.7546771E-02  0.1111390E+00
          2   -1    0    0  502    0 -0.00000000000E+00  0.00000000000E+00  0.39198417400E+03  0.39198417400E+03  0.00000000000E+00 0. -1.
         21   -1    0    0  503  502  0.00000000000E+00 -0.00000000000E+00 -0.22295541885E+03  0.22295541885E+03  0.00000000000E+00 0.  1.
         23    2    1    2    0    0 -0.19439390742E+03  0.69747270702E+02  0.16401636652E+03  0.28362237736E+03  0.10433892581E+03 0.  0.
         23    2    1    2    0    0  0.74411353137E+02 -0.12977354311E+02  0.38857409030E+02  0.12494773034E+03  0.91632831894E+02 0.  0.
        -11    1    4    4    0    0  0.28431182728E+02  0.35468507605E+02  0.36187496130E+02  0.58102341254E+02  0.00000000000E+00 0. -1.
         11    1    4    4    0    0  0.45980170408E+02 -0.48445861916E+02  0.26699128995E+01  0.66845389089E+02  0.00000000000E+00 0.  1.
        -13    1    3    3    0    0 -0.14027841489E+03 -0.15825772176E+01  0.11594319120E+03  0.18199824675E+03  0.00000000000E+00 0.  1.
         13    1    3    3    0    0 -0.54115492527E+02  0.71329847920E+02  0.48073175324E+02  0.10162413061E+03  0.00000000000E+00 0. -1.
         21    1    1    2  503  501 -0.24870168343E+02 -0.28234035058E+02 -0.44588607448E+02  0.58342351026E+02  0.00000000000E+00 0.  1.
          2    1    1    2  501    0  0.14485272263E+03 -0.28535881333E+02  0.10743587055E+02  0.14802713413E+03  0.00000000000E+00 0. -1.
<scales pt_clust_5="13000.00000" pt_clust_6="13000.00000" pt_clust_7="13000.00000" pt_clust_8="13000.00000" pt_clust_9="37.62560" pt_clust_10="13000.00000"></scales>
<clustering>
<clus scale="   37.626">  2  9  1 -1</clus>
<clus scale="   91.633">  5  6 -1 -1</clus>
<clus scale="  104.339">  7  8 -1 -1</clus>
<clus scale="  140.657">  5 10 -1 -1</clus>
<clus scale="  236.032">  1  7  2 -1</clus>
<clus scale="   37.626">  2  5  1 -1</clus>
</clustering>
</event>
<event>
10    2  0.4951045E-006  0.2587360E+03  0.7546771E-02  0.1143963E+00
         21   -1    0    0  501  502  0.00000000000E+00  0.00000000000E+00  0.12888448145E+03  0.12888448145E+03  0.00000000000E+00 0.  1.
         -2   -1    0    0    0  501 -0.00000000000E+00 -0.00000000000E+00 -0.63978626949E+03  0.63978626949E+03  0.00000000000E+00 0.  1.
         23    2    1    2    0    0  0.75235389407E+01  0.32362123499E+02 -0.95778099631E+02  0.13613315860E+03  0.90856380214E+02 0.  0.
         23    2    1    2    0    0 -0.97401427898E+02 -0.12111569623E+03 -0.43542174637E+03  0.47118318188E+03  0.90914485307E+02 0.  0.
        -13    1    4    4    0    0 -0.11188227989E+03 -0.10024996412E+03 -0.32746614543E+03  0.36028013581E+03  0.00000000000E+00 0.  1.
         13    1    4    4    0    0  0.14480851990E+02 -0.20865732105E+02 -0.10795560095E+03  0.11090304607E+03  0.00000000000E+00 0. -1.
        -13    1    3    3    0    0 -0.19093043430E+02  0.14126967235E+02 -0.10072922928E+03  0.10349151241E+03  0.00000000000E+00 0. -1.
         13    1    3    3    0    0  0.26616582371E+02  0.18235156264E+02  0.49511296440E+01  0.32641646188E+02  0.00000000000E+00 0.  1.
         21    1    1    2  503  502  0.40564417259E+02  0.48557267181E+02  0.59311597004E+02  0.86724539104E+02  0.00000000000E+00 0.  1.
         -2    1    1    2    0  503  0.49313471698E+02  0.40196305550E+02 -0.39013539047E+02  0.74629871363E+02  0.00000000000E+00 0.  1.
<scales pt_clust_5="13000.00000" pt_clust_6="13000.00000" pt_clust_7="13000.00000" pt_clust_8="13000.00000" pt_clust_9="63.27148" pt_clust_10="13000.00000"></scales>
<clustering>
<clus scale="   63.271">  1  9  2 -1</clus>
<clus scale="   90.856">  7  8 -1 -1</clus>
<clus scale="   90.914">  5  6 -1 -1</clus>
<clus scale="   83.510">  5 10 -1 -1</clus>
<clus scale="  106.003">  2  7  1 -1</clus>
<clus scale="   63.271">  1  5  2 -1</clus>
</clustering>
</event>
<event>
10    2  0.4951045E-006  0.2273144E+03  0.7546771E-02  0.1152206E+00
         21   -1    0    0  503  502  0.00000000000E+00  0.00000000000E+00  0.16948298214E+03  0.16948298214E+03  0.00000000000E+00 0. -1.
          1   -1    0    0  502    0 -0.00000000000E+00 -0.00000000000E+00 -0.28098266381E+03  0.28098266381E+03  0.00000000000E+00 0. -1.
         23    2    1    2    0    0  0.11655219493E+02 -0.91670490949E+02 -0.47905042868E+02  0.13905507059E+03  0.92206813587E+02 0.  0.
         23    2    1    2    0    0  0.18855624537E+02 -0.24235208242E+02 -0.83980035255E+02  0.12867301151E+03  0.92526848402E+02 0.  0.
        -11    1    4    4    0    0  0.39870603035E+02  0.19713583085E+02 -0.59116414221E+02  0.73980002533E+02  0.00000000000E+00 0.  1.
         11    1    4    4    0    0 -0.21014978498E+02 -0.43948791328E+02 -0.24863621034E+02  0.54693008980E+02  0.00000000000E+00 0. -1.
        -13    1    3    3    0    0  0.37117989569E+02 -0.94655619981E+02 -0.50057387229E+02  0.11332772635E+03  0.00000000000E+00 0. -1.
         13    1    3    3    0    0 -0.25462770076E+02  0.29851290317E+01  0.21523443605E+01  0.25727344238E+02  0.00000000000E+00 0.  1.
         21    1    1    2  503  501  0.36740001124E+02  0.15484489475E+02  0.44230700975E+02  0.59547896735E+02  0.00000000000E+00 0. -1.
          1    1    1    2  501    0 -0.67250845154E+02  0.10042120972E+03 -0.23845304527E+02  0.12318966711E+03  0.00000000000E+00 0. -1.
<scales pt_clust_5="13000.00000" pt_clust_6="13000.00000" pt_clust_7="13000.00000" pt_clust_8="13000.00000" pt_clust_9="39.86975" pt_clust_10="13000.00000"></scales>
<clustering>
<clus scale="   39.870">  1  9  2 -1</clus>
<clus scale="   92.207">  7  8 -1 -1</clus>
<clus scale="   92.527">  5  6 -1 -1</clus>
<clus scale="  118.815">  5 10 -1 -1</clus>
<clus scale="  128.498">  2  7  1 -1</clus>
<clus scale="   39.870">  1  5  2 -1</clus>
</clustering>
</event>
<event>
10    2  0.4951045E-006  0.1288808E+03  0.7546771E-02  0.1245726E+00
         -2   -1    0    0    0  501 -0.00000000000E+00  0.00000000000E+00  0.39854008079E+03  0.39854008079E+03  0.00000000000E+00 0.  1.
         21   -1    0    0  503  502  0.00000000000E+00 -0.00000000000E+00 -0.46802930521E+02  0.46802930521E+02  0.00000000000E+00 0. -1.
         23    2    1    2    0    0 -0.17141591007E+02  0.67702860027E+01  0.16886834894E+03  0.19087726827E+03  0.87051371916E+02 0.  0.
         23    2    1    2    0    0  0.28254596735E+02  0.92233391266E+01  0.13484072247E+03  0.16602594369E+03  0.92191113032E+02 0.  0.
        -11    1    4    4    0    0  0.45870419948E+02 -0.29141189769E+02  0.82354823423E+02  0.98669252092E+02  0.00000000000E+00 0.  1.
         11    1    4    4    0    0 -0.17615823213E+02  0.38364528896E+02  0.52485899044E+02  0.67356691600E+02  0.00000000000E+00 0. -1.
        -11    1    3    3    0    0 -0.28345987458E+02 -0.10967402713E+02  0.16707901773E+03  0.16982101488E+03  0.00000000000E+00 0.  1.
         11    1    3    3    0    0  0.11204396451E+02  0.17737688716E+02  0.17893312119E+01  0.21056253394E+02  0.00000000000E+00 0. -1.
         21    1    1    2  503  501 -0.38897440919E+02  0.26563125549E+01  0.35436183980E+02  0.52685766972E+02  0.00000000000E+00 0. -1.
         -2    1    1    2    0  502  0.27784435191E+02 -0.18649937684E+02  0.12591894879E+02  0.35754032376E+02  0.00000000000E+00 0.  1.
<scales pt_clust_5="13000.00000" pt_clust_6="13000.00000" pt_clust_7="13000.00000" pt_clust_8="13000.00000" pt_clust_9="38.98804" pt_clust_10="13000.00000"></scales>
<clustering>
<clus scale="   38.988">  2  9  1 -1</clus>
<clus scale="   87.051">  7  8 -1 -1</clus>
<clus scale="   91.862">  1  7  2 -1</clus>
<clus scale="   92.191">  5  6 -1 -1</clus>
<clus scale="   20.615">  5 10 -1 -1</clus>
<clus scale="   38.988">  2  5  1 -1</clus>
</clustering>
</event>
<event>
10    2  0.4951045E-006  0.1241723E+03  0.7546771E-02  0.1245904E+00
          1   -1    0    0  503    0 -0.00000000000E+00  0.00000000000E+00  0.70898481942E+03  0.70898481942E+03  0.00000000000E+00 0. -1.
         21   -1    0    0  501  502  0.00000000000E+00 -0.00000000000E+00 -0.93368435911E+02  0.93368435911E+02  0.00000000000E+00 0.  1.
         23    2    1    2    0    0 -0.32925462947E+02 -0.18429263690E+02  0.42745111139E+03  0.43902842303E+03  0.92778120941E+02 0.  0.
         23    2    1    2    0    0  0.19927273459E+02  0.18654348036E+02  0.16996090114E+03  0.19391988650E+03  0.89292404699E+02 0.  0.
        -11    1    4    4    0    0  0.55721261409E+01 -0.36060572531E+02  0.74553959258E+02  0.83004254844E+02  0.00000000000E+00 0.  1.
         11    1    4    4    0    0  0.14355147318E+02  0.54714920567E+02  0.95406941878E+02  0.11091563166E+03  0.00000000000E+00 0. -1.
        -13    1    3    3    0    0 -0.28810066775E+02 -0.54647800092E+02  0.30820563780E+03  0.31433599408E+03  0.00000000000E+00 0.  1.
         13    1    3    3    0    0 -0.41153961723E+01  0.36218536402E+02  0.11924547360E+03  0.12469242895E+03  0.00000000000E+00 0. -1.
         21    1    1    2  503  502 -0.23031678615E+02  0.77403552681E+00 -0.70226353255E+02  0.73910743755E+02  0.00000000000E+00 0.  1.
          1    1    1    2  501    0  0.36029868103E+02 -0.99911987292E+00  0.88430724238E+02  0.95494202050E+02  0.00000000000E+00 0. -1.
<scales pt_clust_5="13000.00000" pt_clust_6="13000.00000" pt_clust_7="13000.00000" pt_clust_8="13000.00000" pt_clust_9="23.04468" pt_clust_10="13000.00000"></scales>
<clustering>
<clus scale="   23.045">  2  9  1 -1</clus>
<clus scale="   89.292">  5  6 -1 -1</clus>
<clus scale="   32.223">  5 10 -1 -1</clus>
<clus scale="   92.778">  7  8 -1 -1</clus>
<clus scale="  102.348">  1  7  2 -1</clus>
<clus scale="   23.045">  2  5  1 -1</clus>
</clustering>
</event>
<event>
10    2  0.4951045E-006  0.2920375E+03  0.7546771E-02  0.1124457E+00
          2   -1    0    0  502    0 -0.00000000000E+00  0.00000000000E+00  0.54453079998E+03  0.54453079998E+03  0.00000000000E+00 0. -1.
         21   -1    0    0  503  502  0.00000000000E+00 -0.00000000000E+00 -0.13693854350E+03  0.13693854350E+03  0.00000000000E+00 0. -1.
         23    2    1    2    0    0 -0.72073708102E+02  0.76281693221E+01  0.24059145710E+03  0.26725957873E+03  0.91052868317E+02 0.  0.
         23    2    1    2    0    0 -0.60688976523E+02  0.68519095136E+02  0.49955610075E+02  0.13784962761E+03  0.90160626569E+02 0.  0.
        -11    1    4    4    0    0 -0.59888830658E+01  0.70990720041E+02  0.14753951618E+02  0.72754574706E+02  0.00000000000E+00 0.  1.
         11    1    4    4    0    0 -0.54700093457E+02 -0.24716249048E+01  0.35201658456E+02  0.65095052899E+02  0.00000000000E+00 0. -1.
        -11    1    3    3    0    0 -0.32812107504E+02 -0.36865251368E+02  0.63077408715E+02  0.80090203193E+02  0.00000000000E+00 0.  1.
         11    1    3    3    0    0 -0.39261600598E+02  0.44493420690E+02  0.17751404838E+03  0.18716937554E+03  0.00000000000E+00 0. -1.
         21    1    1    2  503  501 -0.27333071833E+02 -0.35436362647E+02 -0.31077683852E+02  0.54485365440E+02  0.00000000000E+00 0. -1.
          2    1    1    2  501    0  0.16009575646E+03 -0.40710901811E+02  0.14812287316E+03  0.22187477170E+03  0.00000000000E+00 0. -1.
<scales pt_clust_5="13000.00000" pt_clust_6="13000.00000" pt_clust_7="13000.00000" pt_clust_8="13000.00000" pt_clust_9="44.75302" pt_clust_10="13000.00000"></scales>
<clustering>
<clus scale="   44.753">  2  9  1 -1</clus>
<clus scale="   90.161">  5  6 -1 -1</clus>
<clus scale="   91.053">  7  8 -1 -1</clus>
<clus scale="  118.596">  1  7  2 -1</clus>
<clus scale="  114.467">  5 10 -1 -1</clus>
<clus scale="   44.753">  2  5  1 -1</clus>
</clustering>
</event>
<event>
10    2  0.4951045E-006  0.1530552E+03  0.7546771E-02  0.1220400E+00
         21   -1    0    0  503  502  0.00000000000E+00  0.00000000000E+00  0.28781690261E+02  0.28781690261E+02  0.00000000000E+00 0.  1.
          1   -1    0    0  502    0 -0.00000000000E+00 -0.00000000000E+00 -0.81637742202E+03  0.81637742202E+03  0.00000000000E+00 0. -1.
         23    2    1    2    0    0  0.33193591298E+02 -0.10486366419E+02 -0.28513193136E+03  0.30048256230E+03  0.88191686570E+02 0.  0.
         23    2    1    2    0    0  0.29346726764E+02 -0.12089343788E+02 -0.39834327753E+03  0.40990613100E+03  0.91314220561E+02 0.  0.
        -11    1    3    3    0    0 -0.14928894444E+02 -0.23601879201E+02 -0.31952538389E+02  0.42436838957E+02  0.00000000000E+00 0.  1.
         11    1    3    3    0    0  0.48122485742E+02  0.13115512782E+02 -0.25317939298E+03  0.25804572335E+03  0.00000000000E+00 0. -1.
        -11    1    4    4    0    0  0.49815140448E+02 -0.36489463136E+02 -0.30758210245E+03  0.31371926764E+03  0.00000000000E+00 0. -1.
         11    1    4    4    0    0 -0.20468413684E+02  0.24400119348E+02 -0.90761175071E+02  0.96186863360E+02  0.00000000000E+00 0.  1.
         21    1    1    2  503  501 -0.21209573596E+02 -0.28049235250E+01 -0.17187374135E+01  0.21463169999E+02  0.00000000000E+00 0.  1.
          1    1    1    2  501    0 -0.41330744465E+02  0.25380633732E+02 -0.10240178546E+03  0.11330724898E+03  0.00000000000E+00 0. -1.
<scales pt_clust_5="13000.00000" pt_clust_6="13000.00000" pt_clust_7="13000.00000" pt_clust_8="13000.00000" pt_clust_9="21.39424" pt_clust_10="13000.00000"></scales>
<clustering>
<clus scale="   21.394">  1  9  2 -1</clus>
<clus scale="   88.192">  5  6 -1 -1</clus>
<clus scale="   91.314">  7  8 -1 -1</clus>
<clus scale="   53.432">  7 10 -1 -1</clus>
<clus scale="   92.289">  2  5  1 -1</clus>
<clus scale="   21.394">  1  5  2 -1</clus>
</clustering>
</event>
<event>
10    2  0.4951045E-006  0.1816160E+03  0.7546771E-02  0.1190483E+00
         21   -1    0    0  501  502  0.00000000000E+00  0.00000000000E+00  0.21846985487E+03  0.21846985487E+03  0.00000000000E+00 0. -1.
          3   -1    0    0  503    0 -0.00000000000E+00 -0.00000000000E+00 -0.15659682538E+03  0.15659682538E+03  0.00000000000E+00 0. -1.
         23    2    1    2    0    0  0.51812855940E+02  0.18837443681E+02 -0.69125684697E+02  0.12756357455E+03  0.91949355317E+02 0.  0.
         23    2    1    2    0    0  0.45856355815E+02 -0.17146670603E+02  0.34674729799E+02  0.10829967167E+03  0.90164673330E+02 0.  0.
        -13    1    4    4    0    0 -0.97031181180E+01 -0.18075122875E+02 -0.21198002592E+02  0.29499421724E+02  0.00000000000E+00 0.  1.
         13    1    4    4    0    0  0.55559473933E+02  0.92845227251E+00  0.55872732391E+02  0.78800249950E+02  0.00000000000E+00 0. -1.
        -13    1    3    3    0    0 -0.11369073775E+02  0.28154923934E+02 -0.53969340126E+02  0.61924512544E+02  0.00000000000E+00 0.  1.
         13    1    3    3    0    0  0.63181929715E+02 -0.93174802531E+01 -0.15156344571E+02  0.65639062010E+02  0.00000000000E+00 0. -1.
         21    1    1    2  503  502 -0.26035615095E+02  0.16217728561E+00  0.41448716525E+02  0.48947682850E+02  0.00000000000E+00 0. -1.
          3    1    1    2  501    0 -0.71633596660E+02 -0.18529503642E+01  0.54875267863E+02  0.90255751166E+02  0.00000000000E+00 0. -1.
<scales pt_clust_5="13000.00000" pt_clust_6="13000.00000" pt_clust_7="13000.00000" pt_clust_8="13000.00000" pt_clust_9="26.03612" pt_clust_10="13000.00000"></scales>
<clustering>
<clus scale="   26.036">  1  9  2 -1</clus>
<clus scale="   90.165">  5  6 -1 -1</clus>
<clus scale="   82.557">  5 10 -1 -1</clus>
<clus scale="   91.949">  7  8 -1 -1</clus>
<clus scale="  105.164">  2  7  1 -1</clus>
<clus scale="   26.036">  1  5  2 -1</clus>
</clustering>
</event>
<event>
10    2  0.4951045E-006  0.4688888E+03  0.7546771E-02  0.1070039E+00
         21   -1    0    0  503  502  0.00000000000E+00  0.00000000000E+00  0.10516932235E+03  0.10516932235E+03  0.00000000000E+00 0. -1.
          2   -1    0    0  502    0 -0.00000000000E+00 -0.00000000000E+00 -0.13839268738E+04  0.13839268738E+04  0.00000000000E+00 0. -1.
         23    2    1    2    0    0  0.25902846943E+02  0.66182695625E+02 -0.44774219915E+03  0.46257594526E+03  0.91936508304E+02 0.  0.
         23    2    1    2    0    0  0.11525482180E+03  0.94009707457E+02 -0.26849705760E+03  0.32733043039E+03  0.11372353176E+03 0.  0.
        -11    1    4    4    0    0  0.36899138795E+02  0.93932968138E+01 -0.17434425561E+03  0.17845363525E+03  0.00000000000E+00 0.  1.
         11    1    4    4    0    0  0.78355683007E+02  0.84616410643E+02 -0.94152801990E+02  0.14887679514E+03  0.00000000000E+00 0. -1.
        -11    1    3    3    0    0 -0.33440369773E+02  0.11702649562E+02 -0.12408009449E+03  0.12903906457E+03  0.00000000000E+00 0.  1.
         11    1    3    3    0    0  0.59343216716E+02  0.54480046064E+02 -0.32366210466E+03  0.33353688069E+03  0.00000000000E+00 0. -1.
         21    1    1    2  503  501  0.10768296013E+03  0.30550871435E+01 -0.22328211779E+03  0.24791098722E+03  0.00000000000E+00 0.  1.
          2    1    1    2  501    0 -0.24884062887E+03 -0.16324749023E+03 -0.33923617694E+03  0.45127883330E+03  0.00000000000E+00 0. -1.
<scales pt_clust_5="13000.00000" pt_clust_6="13000.00000" pt_clust_7="13000.00000" pt_clust_8="13000.00000" pt_clust_9="107.72634" pt_clust_10="13000.00000"></scales>
<clustering>
<clus scale="   91.937">  7  8 -1 -1</clus>
<clus scale="  107.726">  1  9  2 -1</clus>
<clus scale="  113.724">  5  6 -1 -1</clus>
<clus scale="  118.555">  2  7  1 -1</clus>
<clus scale="  213.277">  5 10 -1 -1</clus>
<clus scale="  107.726">  1  5  2 -1</clus>
</clustering>
</event>
<event>
10    2  0.4951045E-006  0.1622214E+03  0.7546771E-02  0.1204619E+00
         21   -1    0    0  501  502  0.00000000000E+00  0.00000000000E+00  0.13811128286E+03  0.13811128286E+03  0.00000000000E+00 0. -1.
          2   -1    0    0  503    0 -0.00000000000E+00 -0.00000000000E+00 -0.21318859264E+03  0.21318859264E+03  0.00000000000E+00 0. -1.
         23    2    1    2    0    0 -0.18822367936E+02  0.50551440143E+02 -0.11533538833E+03  0.15707888423E+03  0.91988012449E+02 0.  0.
         23    2    1    2    0    0  0.51379905588E+02 -0.19772677025E+02 -0.14859582814E+01  0.10335448982E+03  0.87459070645E+02 0.  0.
        -11    1    4    4    0    0  0.69877335800E+02 -0.57794030953E+01  0.18743434102E+02  0.72577957264E+02  0.00000000000E+00 0. -1.
         11    1    4    4    0    0 -0.18497430212E+02 -0.13993273929E+02 -0.20229392384E+02  0.30776532552E+02  0.00000000000E+00 0.  1.
        -13    1    3    3    0    0 -0.32931259260E+02  0.70562948597E+02 -0.66301813050E+02  0.10227183368E+03  0.00000000000E+00 0.  1.
         13    1    3    3    0    0  0.14108891325E+02 -0.20011508454E+02 -0.49033575275E+02  0.54807050543E+02  0.00000000000E+00 0. -1.
         21    1    1    2  503  502 -0.29727387343E+01  0.20656033494E+02  0.65247213735E+01  0.21865060812E+02  0.00000000000E+00 0. -1.
          2    1    1    2  501    0 -0.29584798918E+02 -0.51434796613E+02  0.35219315452E+02  0.69001440641E+02  0.00000000000E+00 0. -1.
<scales pt_clust_5="13000.00000" pt_clust_6="13000.00000" pt_clust_7="13000.00000" pt_clust_8="13000.00000" pt_clust_9="20.86885" pt_clust_10="13000.00000"></scales>
<clustering>
<clus scale="   20.869">  1  9  2 -1</clus>
<clus scale="   87.459">  5  6 -1 -1</clus>
<clus scale="   52.709">  5 10 -1 -1</clus>
<clus scale="   91.988">  7  8 -1 -1</clus>
<clus scale="  108.418">  2  7  1 -1</clus>
<clus scale="   20.869">  1  5  2 -1</clus>
</clustering>
</event>
<event>
10    2  0.4951045E-006  0.3155159E+03  0.7546771E-02  0.1099200E+00
         -3   -1    0    0    0  501 -0.00000000000E+00  0.00000000000E+00  0.48667147710E+03  0.48667147710E+03  0.00000000000E+00 0.  1.
         21   -1    0    0  503  502  0.00000000000E+00 -0.00000000000E+00 -0.36833402186E+03  0.36833402186E+03  0.00000000000E+00 0.  1.
         23    2    1    2    0    0 -0.30211635584E+01  0.15307910240E+03  0.38251522167E+03  0.42195914988E+03  0.91045539939E+02 0.  0.
         23    2    1    2    0    0 -0.41456053767E+02  0.20108143661E+02 -0.65420187426E+01  0.10396836605E+03  0.92971400412E+02 0.  0.
        -11    1    3    3    0    0  0.36212410796E+02  0.38779723488E+02  0.16246954451E+03  0.17091389219E+03  0.00000000000E+00 0. -1.
         11    1    3    3    0    0 -0.39233574354E+02  0.11429937891E+03  0.22004567716E+03  0.25104525770E+03  0.00000000000E+00 0.  1.
        -13    1    4    4    0    0 -0.66228655900E+02  0.30915878327E+01 -0.22405933644E+02  0.69984417123E+02  0.00000000000E+00 0.  1.
         13    1    4    4    0    0  0.24772602133E+02  0.17016555828E+02  0.15863914901E+02  0.33983948927E+02  0.00000000000E+00 0. -1.
         21    1    1    2  503  501  0.18402729058E+02  0.89972722961E+01 -0.30483970234E+02  0.36727153263E+02  0.00000000000E+00 0. -1.
         -3    1    1    2    0  502  0.26074488267E+02 -0.18218451836E+03 -0.22715177745E+03  0.29235082977E+03  0.00000000000E+00 0.  1.
<scales pt_clust_5="13000.00000" pt_clust_6="13000.00000" pt_clust_7="13000.00000" pt_clust_8="13000.00000" pt_clust_9="20.48442" pt_clust_10="13000.00000"></scales>
<clustering>
<clus scale="   20.484">  2  9  1 -1</clus>
<clus scale="   91.046">  5  6 -1 -1</clus>
<clus scale="   92.971">  7  8 -1 -1</clus>
<clus scale="  178.574">  1  5  2 -1</clus>
<clus scale="  120.852">  7 10 -1 -1</clus>
<clus scale="   20.484">  2  5  1 -1</clus>
</clustering>
</event>
<event>
10    2  0.4951045E-006  0.1555843E+03  0.7546771E-02  0.1201446E+00
          1   -1    0    0  503    0 -0.00000000000E+00  0.00000000000E+00  0.81980036408E+03  0.81980036408E+03  0.00000000000E+00 0. -1.
         21   -1    0    0  501  502  0.00000000000E+00 -0.00000000000E+00 -0.55146895886E+02  0.55146895886E+02  0.00000000000E+00 0.  1.
         23    2    1    2    0    0  0.86965369585E+02 -0.86281379804E+01  0.37526208380E+03  0.39524404537E+03  0.88084071123E+02 0.  0.
         23    2    1    2    0    0 -0.70719164952E+02 -0.78263708985E+01  0.26674935491E+03  0.29003970619E+03  0.88912093953E+02 0.  0.
        -11    1    4    4    0    0 -0.40524882400E+02  0.39747791341E+02  0.15064301243E+03  0.16098282581E+03  0.00000000000E+00 0.  1.
         11    1    4    4    0    0 -0.30194282552E+02 -0.47574162240E+02  0.11610634247E+03  0.12905688038E+03  0.00000000000E+00 0. -1.
        -11    1    3    3    0    0  0.86507535248E+02  0.25202559143E+02  0.28109830298E+03  0.29518634552E+03  0.00000000000E+00 0.  1.
         11    1    3    3    0    0  0.45783433727E+00 -0.33830697123E+02  0.94163780824E+02  0.10005769985E+03  0.00000000000E+00 0. -1.
         21    1    1    2  503  502  0.25663064313E+02 -0.15818185373E+02 -0.20901973991E+02  0.36683788996E+02  0.00000000000E+00 0.  1.
          1    1    1    2  501    0 -0.41909268946E+02  0.32272694251E+02  0.14354400348E+03  0.15297971942E+03  0.00000000000E+00 0. -1.
<scales pt_clust_5="13000.00000" pt_clust_6="13000.00000" pt_clust_7="13000.00000" pt_clust_8="13000.00000" pt_clust_9="30.14644" pt_clust_10="13000.00000"></scales>
<clustering>
<clus scale="   30.146">  2  9  1 -1</clus>
<clus scale="   88.084">  7  8 -1 -1</clus>
<clus scale="   88.912">  5  6 -1 -1</clus>
<clus scale="   47.531">  5 10 -1 -1</clus>
<clus scale="  131.615">  1  7  2 -1</clus>
<clus scale="   30.146">  2  5  1 -1</clus>
</clustering>
</event>
<event>
10    2  0.4951045E-006  0.2640556E+03  0.7546771E-02  0.1145607E+00
         21   -1    0    0  501  502  0.00000000000E+00  0.00000000000E+00  0.34275412104E+03  0.34275412104E+03  0.00000000000E+00 0. -1.
          1   -1    0    0  503    0 -0.00000000000E+00 -0.00000000000E+00 -0.35494521524E+03  0.35494521524E+03  0.00000000000E+00 0. -1.
         23    2    1    2    0    0 -0.20327232943E+02 -0.23123725917E+02 -0.28435337782E+03  0.30006184948E+03  0.90732391889E+02 0.  0.
         23    2    1    2    0    0 -0.55463760604E+02 -0.96633497536E+01  0.10107972710E+02  0.10806796336E+03  0.91689173421E+02 0.  0.
        -11    1    4    4    0    0 -0.38699157791E+02  0.15279272686E+02  0.45488421038E+02  0.61646390293E+02  0.00000000000E+00 0.  1.
         11    1    4    4    0    0 -0.16764602813E+02 -0.24942622440E+02 -0.35380448329E+02  0.46421573063E+02  0.00000000000E+00 0. -1.
        -13    1    3    3    0    0 -0.35153989314E+02 -0.49706531589E+02 -0.22828946504E+03  0.23626811485E+03  0.00000000000E+00 0. -1.
         13    1    3    3    0    0  0.14826756371E+02  0.26582805673E+02 -0.56063912776E+02  0.63793734627E+02  0.00000000000E+00 0.  1.
         21    1    1    2  503  502  0.10114445563E+02 -0.20096983037E+02  0.11623261687E+02  0.25323723037E+02  0.00000000000E+00 0. -1.
          1    1    1    2  501    0  0.65676547985E+02  0.52884058707E+02  0.25043104922E+03  0.26424580041E+03  0.00000000000E+00 0. -1.
<scales pt_clust_5="13000.00000" pt_clust_6="13000.00000" pt_clust_7="13000.00000" pt_clust_8="13000.00000" pt_clust_9="22.49868" pt_clust_10="13000.00000"></scales>
<clustering>
<clus scale="   22.499">  1  9  2 -1</clus>
<clus scale="   90.732">  7  8 -1 -1</clus>
<clus scale="   91.689">  5  6 -1 -1</clus>
<clus scale="   82.440">  5 10 -1 -1</clus>
<clus scale="   95.881">  2  7  1 -1</clus>
<clus scale="   22.499">  1  5  2 -1</clus>
</clustering>
</event>
<event>
10    2  0.4951045E-006  0.1594727E+03  0.7546771E-02  0.1198263E+00
         21   -1    0    0  501  502  0.00000000000E+00  0.00000000000E+00  0.44858003285E+02  0.44858003285E+02  0.00000000000E+00 0. -1.
          2   -1    0    0  503    0 -0.00000000000E+00 -0.00000000000E+00 -0.10168813745E+04  0.10168813745E+04  0.00000000000E+00 0. -1.
         23    2    1    2    0    0  0.53962542890E+02 -0.37113582869E+02 -0.28179061000E+03  0.30319986064E+03  0.90745983607E+02 0.  0.
         23    2    1    2    0    0 -0.61187669686E+02  0.10885934120E+01 -0.39459742132E+03  0.40934724701E+03  0.90071792311E+02 0.  0.
        -11    1    4    4    0    0 -0.32086029441E+02  0.45572898136E+02 -0.20083515878E+03  0.20842543830E+03  0.00000000000E+00 0.  1.
         11    1    4    4    0    0 -0.29101640245E+02 -0.44484304724E+02 -0.19376226253E+03  0.20092180871E+03  0.00000000000E+00 0. -1.
        -13    1    3    3    0    0  0.77897188536E+01  0.29680827429E+02 -0.80212603199E+02  0.85881854595E+02  0.00000000000E+00 0.  1.
         13    1    3    3    0    0  0.46172824036E+02 -0.66794410298E+02 -0.20157800680E+03  0.21731800605E+03  0.00000000000E+00 0. -1.
         21    1    1    2  503  502  0.69743471674E+02 -0.36913428435E+01 -0.34773220082E+02  0.78018938009E+02  0.00000000000E+00 0. -1.
          2    1    1    2  501    0 -0.62518344878E+02  0.39716332301E+02 -0.26086211978E+03  0.27117333209E+03  0.00000000000E+00 0. -1.
<scales pt_clust_5="13000.00000" pt_clust_6="13000.00000" pt_clust_7="13000.00000" pt_clust_8="13000.00000" pt_clust_9="69.84109" pt_clust_10="13000.00000"></scales>
<clustering>
<clus scale="   69.841">  1  9  2 -1</clus>
<clus scale="   90.072">  5  6 -1 -1</clus>
<clus scale="   61.041">  5 10 -1 -1</clus>
<clus scale="   90.746">  7  8 -1 -1</clus>
<clus scale="  130.972">  2  7  1 -1</clus>
<clus scale="   69.841">  1  5  2 -1</clus>
</clustering>
</event>
<event>
10    2  0.4951045E-006  0.1451749E+03  0.7546771E-02  0.1222862E+00
         21   -1    0    0  501  502  0.00000000000E+00  0.00000000000E+00  0.14068216655E+03  0.14068216655E+03  0.00000000000E+00 0.  1.
          2   -1    0    0  503    0 -0.00000000000E+00 -0.00000000000E+00 -0.26925351336E+03  0.26925351336E+03  0.00000000000E+00 0. -1.
         23    2    1    2    0    0 -0.26718432097E+02 -0.47526182144E+02 -0.16611033597E+03  0.19750137412E+03  0.91877834430E+02 0.  0.
         23    2    1    2    0    0 -0.33038532418E+00  0.37627003790E+02  0.41024197836E+02  0.10640252238E+03  0.90678615958E+02 0.  0.
        -11    1    4    4    0    0  0.24123791916E+02  0.51458589315E+02  0.51227032251E+02  0.76512434178E+02  0.00000000000E+00 0.  1.
         11    1    4    4    0    0 -0.24454177240E+02 -0.13831585525E+02 -0.10202834415E+02  0.29890088202E+02  0.00000000000E+00 0. -1.
        -13    1    3    3    0    0 -0.48339238089E+02  0.13020100225E+01 -0.10937356161E+03  0.11958659268E+03  0.00000000000E+00 0.  1.
         13    1    3    3    0    0  0.21620805992E+02 -0.48828192166E+02 -0.56736774360E+02  0.77914781440E+02  0.00000000000E+00 0. -1.
         21    1    1    2  503  502  0.52695312672E+02  0.40187952580E+02 -0.30468827614E+01  0.66341171264E+02  0.00000000000E+00 0. -1.
          2    1    1    2  501    0 -0.25646495250E+02 -0.30288774226E+02 -0.43832591888E+00  0.39690612144E+02  0.00000000000E+00 0. -1.
<scales pt_clust_5="13000.00000" pt_clust_6="13000.00000" pt_clust_7="13000.00000" pt_clust_8="13000.00000" pt_clust_9="66.27117" pt_clust_10="13000.00000"></scales>
<clustering>
<clus scale="   66.271">  1  9  2 -1</clus>
<clus scale="   90.679">  5  6 -1 -1</clus>
<clus scale="   28.155">  5 10 -1 -1</clus>
<clus scale="   91.878">  7  8 -1 -1</clus>
<clus scale="  102.713">  2  7  1 -1</clus>
<clus scale="   66.271">  1  5  2 -1</clus>
</clustering>
</event>
<event>
10    2  0.4951045E-006  0.1937994E+03  0.7546771E-02  0.1182161E+00
          4   -1    0    0  503    0 -0.00000000000E+00  0.00000000000E+00  0.70845319313E+03  0.70845319313E+03  0.00000000000E+00 0. -1.
         21   -1    0    0  501  502  0.00000000000E+00 -0.00000000000E+00 -0.13427389205E+03  0.13427389205E+03  0.00000000000E+00 0.  1.
         23    2    1    2    0    0  0.33013731759E+02 -0.32761956815E+02  0.48749026687E+03  0.49811593154E+03  0.91156287022E+02 0.  0.
         23    2    1    2    0    0 -0.65420263662E+01  0.50313244846E+02  0.17802123573E+03  0.20594277725E+03  0.90258774713E+02 0.  0.
        -13    1    3    3    0    0  0.62336479460E+02 -0.25587954695E+02  0.39818959724E+03  0.40385088269E+03  0.00000000000E+00 0. -1.
         13    1    3    3    0    0 -0.29322747701E+02 -0.71740021205E+01  0.89300669622E+02  0.94265048846E+02  0.00000000000E+00 0.  1.
        -13    1    4    4    0    0 -0.93700622853E+00  0.76508857363E+02  0.13778614392E+03  0.15760553510E+03  0.00000000000E+00 0. -1.
         13    1    4    4    0    0 -0.56050201377E+01 -0.26195612517E+02  0.40235091809E+02  0.48337242151E+02  0.00000000000E+00 0.  1.
         21    1    1    2  503  502  0.21929002383E+02 -0.35555829309E+02 -0.72550837090E+02  0.83718110979E+02  0.00000000000E+00 0.  1.
          4    1    1    2  501    0 -0.48400707776E+02  0.18004541278E+02 -0.18781364428E+02  0.54950265419E+02  0.00000000000E+00 0. -1.
<scales pt_clust_5="13000.00000" pt_clust_6="13000.00000" pt_clust_7="13000.00000" pt_clust_8="13000.00000" pt_clust_9="41.77437" pt_clust_10="13000.00000"></scales>
<clustering>
<clus scale="   41.774">  2  9  1 -1</clus>
<clus scale="   90.259">  7  8 -1 -1</clus>
<clus scale="   34.418">  7 10 -1 -1</clus>
<clus scale="   91.156">  5  6 -1 -1</clus>
<clus scale="  104.143">  1  5  2 -1</clus>
<clus scale="   41.774">  2  5  1 -1</clus>
</clustering>
</event>
<event>
10    2  0.4951045E-006  0.3324881E+03  0.7546771E-02  0.1104723E+00
         -1   -1    0    0    0  501 -0.00000000000E+00  0.00000000000E+00  0.48650012493E+03  0.48650012493E+03  0.00000000000E+00 0.  1.
         21   -1    0    0  503  502  0.00000000000E+00 -0.00000000000E+00 -0.16130833048E+03  0.16130833048E+03  0.00000000000E+00 0.  1.
         23    2    1    2    0    0 -0.16882605331E+02 -0.96498157609E+02  0.17447029942E+03  0.21810044747E+03  0.86781351814E+02 0.  0.
         23    2    1    2    0    0  0.62923764349E+02 -0.71000049437E+02  0.10915595996E+03  0.17230152916E+03  0.93661017581E+02 0.  0.
        -13    1    3    3    0    0 -0.47896815085E+02 -0.64851254091E+02  0.79128988055E+02  0.11296542304E+03  0.00000000000E+00 0. -1.
         13    1    3    3    0    0  0.31014209754E+02 -0.31646903518E+02  0.95341311364E+02  0.10513502443E+03  0.00000000000E+00 0.  1.
        -13    1    4    4    0    0  0.53556760991E+02 -0.92159940809E+02  0.10329450706E+03  0.14843024128E+03  0.00000000000E+00 0.  1.
         13    1    4    4    0    0  0.93670033587E+01  0.21159891372E+02  0.58614529050E+01  0.23871287878E+02  0.00000000000E+00 0. -1.
         21    1    1    2  503  501  0.29243715721E+02 -0.14917905143E+02 -0.32905607184E+02  0.46481370324E+02  0.00000000000E+00 0.  1.
         -1    1    1    2    0  502 -0.75284874739E+02  0.18241611219E+03  0.74471142250E+02  0.21092510846E+03  0.00000000000E+00 0.  1.
<scales pt_clust_5="13000.00000" pt_clust_6="13000.00000" pt_clust_7="13000.00000" pt_clust_8="13000.00000" pt_clust_9="32.82893" pt_clust_10="13000.00000"></scales>
<clustering>
<clus scale="   32.829">  2  9  1 -1</clus>
<clus scale="   86.781">  5  6 -1 -1</clus>
<clus scale="   93.661">  7  8 -1 -1</clus>
<clus scale="  132.295">  1  5  2 -1</clus>
<clus scale="  144.657">  7 10 -1 -1</clus>
<clus scale="   32.829">  2  5  1 -1</clus>
</clustering>
</event>
<event>
10    2  0.6104674E-006  0.6404271E+03  0.7546771E-02  0.1042407E+00
          2   -1    0    0  502    0 -0.00000000000E+00  0.00000000000E+00  0.14155940884E+04  0.14155940884E+04  0.00000000000E+00 0. -1.
         21   -1    0    0  503  502  0.00000000000E+00 -0.00000000000E+00 -0.38452051625E+03  0.38452051625E+03  0.00000000000E+00 0. -1.
         23    2    1    2    0    0  0.16805264470E+02  0.38632834896E+02  0.11037985526E+03  0.14988973225E+03  0.92240482118E+02 0.  0.
         23    2    1    2    0    0  0.11279838015E+03 -0.21962930192E+03  0.12196918739E+04  0.12478572945E+04  0.92407009712E+02 0.  0.
        -11    1    4    4    0    0  0.26963980167E+02 -0.23220626974E+02  0.71910871362E+02  0.80233578778E+02  0.00000000000E+00 0.  1.
         11    1    4    4    0    0  0.85834399982E+02 -0.19640867494E+03  0.11477810025E+04  0.11676237157E+04  0.00000000000E+00 0. -1.
        -11    1    3    3    0    0 -0.36272284483E+02  0.29618418272E+02  0.42387975954E+02  0.63163833228E+02  0.00000000000E+00 0. -1.
         11    1    3    3    0    0  0.53077548953E+02  0.90144166245E+01  0.67991879308E+02  0.86725899026E+02  0.00000000000E+00 0.  1.
         21    1    1    2  503  501 -0.70684128573E+02  0.96672548691E+02 -0.27018986998E+03  0.29554084920E+03  0.00000000000E+00 0. -1.
          2    1    1    2  501    0 -0.58919516046E+02  0.84323918329E+02 -0.28808286961E+02  0.10682672873E+03  0.00000000000E+00 0. -1.
<scales pt_clust_5="13000.00000" pt_clust_6="13000.00000" pt_clust_7="13000.00000" pt_clust_8="13000.00000" pt_clust_9="119.96761" pt_clust_10="13000.00000"></scales>
<clustering>
<clus scale="   92.240">  7  8 -1 -1</clus>
<clus scale="   92.407">  5  6 -1 -1</clus>
<clus scale="  101.406">  1  7  2 -1</clus>
<clus scale="  103.544">  5 10 -1 -1</clus>
<clus scale="  119.968">  2  9  1 -1</clus>
<clus scale="  119.968">  2  5  1 -1</clus>
</clustering>
</event>
<event>
10    2  0.4951045E-006  0.2068034E+03  0.7546771E-02  0.1165448E+00
         21   -1    0    0  501  502  0.00000000000E+00  0.00000000000E+00  0.22033373850E+03  0.22033373850E+03  0.00000000000E+00 0. -1.
         -2   -1    0    0    0  501 -0.00000000000E+00 -0.00000000000E+00 -0.21159733779E+03  0.21159733779E+03  0.00000000000E+00 0.  1.
         23    2    1    2    0    0  0.89249408940E+02  0.96487162526E+00  0.30072379452E+02  0.13149319292E+03  0.91759052986E+02 0.  0.
         23    2    1    2    0    0  0.19109253718E+02 -0.86911666810E+01 -0.76013291387E+02  0.12142860483E+03  0.92337346987E+02 0.  0.
        -11    1    3    3    0    0  0.53799555033E+02 -0.44044386600E+02  0.75727855895E+01  0.69940311654E+02  0.00000000000E+00 0.  1.
         11    1    3    3    0    0  0.35449853907E+02  0.45009258226E+02  0.22499593863E+02  0.61552881265E+02  0.00000000000E+00 0. -1.
        -11    1    4    4    0    0 -0.14484991593E+02 -0.41591968496E+02 -0.53497410818E+02  0.69294154076E+02  0.00000000000E+00 0.  1.
         11    1    4    4    0    0  0.33594245311E+02  0.32900801815E+02 -0.22515880568E+02  0.52134450758E+02  0.00000000000E+00 0. -1.
         21    1    1    2  503  502 -0.15566230386E+02  0.48779841427E+02  0.58151486184E+02  0.77481454578E+02  0.00000000000E+00 0. -1.
         -2    1    1    2    0  503 -0.92792432272E+02 -0.41053546371E+02 -0.34741735363E+01  0.10152782396E+03  0.00000000000E+00 0.  1.
<scales pt_clust_5="13000.00000" pt_clust_6="13000.00000" pt_clust_7="13000.00000" pt_clust_8="13000.00000" pt_clust_9="51.20332" pt_clust_10="13000.00000"></scales>
<clustering>
<clus scale="   51.203">  1  9  2 -1</clus>
<clus scale="   91.759">  5  6 -1 -1</clus>
<clus scale="   92.337">  7  8 -1 -1</clus>
<clus scale="  101.034">  7 10 -1 -1</clus>
<clus scale="  125.299">  2  5  1 -1</clus>
<clus scale="   51.203">  1  5  2 -1</clus>
</clustering>
</event>
<event>
10    2  0.4951045E-006  0.3940131E+03  0.7546771E-02  0.1070246E+00
          2   -1    0    0  503    0 -0.00000000000E+00  0.00000000000E+00  0.78645100624E+03  0.78645100624E+03  0.00000000000E+00 0. -1.
         21   -1    0    0  501  502  0.00000000000E+00 -0.00000000000E+00 -0.24636870883E+03  0.24636870883E+03  0.00000000000E+00 0. -1.
         23    2    1    2    0    0  0.13408634884E+03  0.11536931848E+03  0.22277802058E+03  0.29849449529E+03  0.90441631306E+02 0.  0.
         23    2    1    2    0    0 -0.87454870498E+02  0.66555546687E+02  0.23462752777E+03  0.27418592438E+03  0.89720951666E+02 0.  0.
        -11    1    4    4    0    0 -0.52527554276E+02  0.79055058494E+02  0.11594147315E+03  0.14983748338E+03  0.00000000000E+00 0. -1.
         11    1    4    4    0    0 -0.34927316221E+02 -0.12499511807E+02  0.11868605463E+03  0.12434844099E+03  0.00000000000E+00 0.  1.
        -11    1    3    3    0    0  0.67832463979E+02  0.82374394662E+02  0.18920310437E+03  0.21722016198E+03  0.00000000000E+00 0.  1.
         11    1    3    3    0    0  0.66253884863E+02  0.32994923813E+02  0.33574916206E+02  0.81274333311E+02  0.00000000000E+00 0. -1.
         21    1    1    2  503  502 -0.41565484418E+02 -0.28572489890E+03  0.16046608829E+03  0.33032676676E+03  0.00000000000E+00 0. -1.
          2    1    1    2  501    0 -0.50659939262E+01  0.10380003374E+03 -0.77789339227E+02  0.12981252865E+03  0.00000000000E+00 0. -1.
<scales pt_clust_5="13000.00000" pt_clust_6="13000.00000" pt_clust_7="13000.00000" pt_clust_8="13000.00000" pt_clust_9="232.83252" pt_clust_10="13000.00000"></scales>
<clustering>
<clus scale="   89.721">  5  6 -1 -1</clus>
<clus scale="   90.442">  7  8 -1 -1</clus>
<clus scale="  103.924">  5 10 -1 -1</clus>
<clus scale="  198.668">  1  7  2 -1</clus>
<clus scale="  232.833">  2  9  1 -1</clus>
<clus scale="  232.833">  2  5  1 -1</clus>
</clustering>
</event>
<event>
10    2  0.4951045E-006  0.2440336E+03  0.7546771E-02  0.1125873E+00
          2   -1    0    0  503    0 -0.00000000000E+00  0.00000000000E+00  0.42589327073E+03  0.42589327073E+03  0.00000000000E+00 0. -1.
         21   -1    0    0  501  502  0.00000000000E+00 -0.00000000000E+00 -0.18342072791E+03  0.18342072791E+03  0.00000000000E+00 0.  1.
         23    2    1    2    0    0 -0.11443469740E+03 -0.15690908983E+03  0.18935116123E+02  0.21540241578E+03  0.91235407938E+02 0.  0.
         23    2    1    2    0    0  0.88860034774E+02  0.87462457452E+02  0.24381311040E+03  0.28708926628E+03  0.86195282738E+02 0.  0.
        -11    1    4    4    0    0  0.10531755307E+03  0.65875907442E+02  0.20565649064E+03  0.24026238638E+03  0.00000000000E+00 0. -1.
         11    1    4    4    0    0 -0.16457518295E+02  0.21586550010E+02  0.38156619760E+02  0.46826879901E+02  0.00000000000E+00 0.  1.
        -11    1    3    3    0    0 -0.38961298008E+02 -0.56770686395E+01 -0.16531629523E+02  0.42702536523E+02  0.00000000000E+00 0. -1.
         11    1    3    3    0    0 -0.75473399391E+02 -0.15123202119E+03  0.35466745646E+02  0.17269987926E+03  0.00000000000E+00 0.  1.
         21    1    1    2  503  502 -0.17900719519E+02  0.56777877597E+02 -0.96669937666E+01  0.60312634764E+02  0.00000000000E+00 0.  1.
          2    1    1    2  501    0  0.43475382144E+02  0.12668754784E+02 -0.10608689934E+02  0.46509681814E+02  0.00000000000E+00 0. -1.
<scales pt_clust_5="13000.00000" pt_clust_6="13000.00000" pt_clust_7="13000.00000" pt_clust_8="13000.00000" pt_clust_9="59.53287" pt_clust_10="13000.00000"></scales>
<clustering>
<clus scale="   59.533">  2  9  1 -1</clus>
<clus scale="   86.195">  5  6 -1 -1</clus>
<clus scale="   46.467">  5 10 -1 -1</clus>
<clus scale="   91.235">  7  8 -1 -1</clus>
<clus scale="  196.243">  1  7  2 -1</clus>
<clus scale="   59.533">  2  5  1 -1</clus>
</clustering>
</event>
<event>
10    2  0.4951045E-006  0.1456215E+03  0.7546771E-02  0.1227526E+00
         21   -1    0    0  501  502  0.00000000000E+00  0.00000000000E+00  0.15795047273E+03  0.15795047273E+03  0.00000000000E+00 0. -1.
          2   -1    0    0  503    0 -0.00000000000E+00 -0.00000000000E+00 -0.49278105764E+03  0.49278105764E+03  0.00000000000E+00 0. -1.
         23    2    1    2    0    0 -0.60754499878E+01  0.10942521928E+02 -0.34016985115E+03  0.35237254454E+03  0.91072677759E+02 0.  0.
         23    2    1    2    0    0  0.14030687962E+02 -0.42277902699E+02 -0.12030672072E+03  0.15740689072E+03  0.91208228446E+02 0.  0.
        -11    1    3    3    0    0 -0.17305829037E+02 -0.37124996421E+02 -0.18746636439E+03  0.19188901702E+03  0.00000000000E+00 0. -1.
         11    1    3    3    0    0  0.11230379049E+02  0.48067518350E+02 -0.15270348677E+03  0.16048352752E+03  0.00000000000E+00 0.  1.
        -11    1    4    4    0    0  0.49252770740E+01  0.22432535250E+02 -0.30477050235E+01  0.23168200144E+02  0.00000000000E+00 0.  1.
         11    1    4    4    0    0  0.91054108880E+01 -0.64710437949E+02 -0.11725901569E+03  0.13423869058E+03  0.00000000000E+00 0. -1.
         21    1    1    2  503  502 -0.19504252204E+02  0.11972188965E+02  0.11260351640E+03  0.11490561809E+03  0.00000000000E+00 0. -1.
          2    1    1    2  501    0  0.11549014230E+02  0.19363191806E+02  0.13042470563E+02  0.26046477017E+02  0.00000000000E+00 0. -1.
<scales pt_clust_5="13000.00000" pt_clust_6="13000.00000" pt_clust_7="13000.00000" pt_clust_8="13000.00000" pt_clust_9="22.88557" pt_clust_10="13000.00000"></scales>
<clustering>
<clus scale="   22.886">  1  9  2 -1</clus>
<clus scale="   91.073">  5  6 -1 -1</clus>
<clus scale="   91.208">  7  8 -1 -1</clus>
<clus scale="   24.830">  7 10 -1 -1</clus>
<clus scale="   92.357">  2  5  1 -1</clus>
<clus scale="   22.886">  1  5  2 -1</clus>
</clustering>
</event>
<event>
10    2  0.4951045E-006  0.1362201E+03  0.7546771E-02  0.1229465E+00
         21   -1    0    0  503  502  0.00000000000E+00  0.00000000000E+00  0.13875792263E+03  0.13875792263E+03  0.00000000000E+00 0. -1.
         -2   -1    0    0    0  501 -0.00000000000E+00 -0.00000000000E+00 -0.23032660815E+03  0.23032660815E+03  0.00000000000E+00 0.  1.
         23    2    1    2    0    0 -0.37063009473E+02 -0.58013149937E+02 -0.37974014086E+02  0.11972321843E+03  0.90290813755E+02 0.  0.
         23    2    1    2    0    0  0.84968981184E+01  0.18869700344E+02 -0.85445140223E+02  0.12899729938E+03  0.94398985119E+02 0.  0.
        -11    1    3    3    0    0  0.11786601423E+02 -0.53398718666E+02 -0.44132628786E+02  0.70271160882E+02  0.00000000000E+00 0.  1.
         11    1    3    3    0    0 -0.48849610896E+02 -0.46144312711E+01  0.61586146999E+01  0.49452057547E+02  0.00000000000E+00 0. -1.
        -13    1    4    4    0    0  0.30105225946E+01 -0.21267713466E+02 -0.85838057032E+02  0.88484749631E+02  0.00000000000E+00 0.  1.
         13    1    4    4    0    0  0.54863755238E+01  0.40137413810E+02  0.39291680864E+00  0.40512549751E+02  0.00000000000E+00 0. -1.
         21    1    1    2  503  501 -0.52717486500E+01  0.23309714913E+02  0.65724320537E+02  0.69934401072E+02  0.00000000000E+00 0. -1.
         -2    1    1    2    0  502  0.33837860004E+02  0.15833734680E+02 -0.33873851748E+02  0.50429611894E+02  0.00000000000E+00 0.  1.
<scales pt_clust_5="13000.00000" pt_clust_6="13000.00000" pt_clust_7="13000.00000" pt_clust_8="13000.00000" pt_clust_9="23.89841" pt_clust_10="13000.00000"></scales>
<clustering>
<clus scale="   23.898">  1  9  2 -1</clus>
<clus scale="   90.291">  5  6 -1 -1</clus>
<clus scale="   94.399">  7  8 -1 -1</clus>
<clus scale="   38.053">  7 10 -1 -1</clus>
<clus scale="  108.388">  2  5  1 -1</clus>
<clus scale="   23.898">  1  5  2 -1</clus>
</clustering>
</event>
<event>
10    2  0.4951045E-006  0.2201116E+03  0.7546771E-02  0.1169930E+00
         21   -1    0    0  503  502  0.00000000000E+00  0.00000000000E+00  0.12408249460E+03  0.12408249460E+03  0.00000000000E+00 0.  1.
         -2   -1    0    0    0  501 -0.00000000000E+00 -0.00000000000E+00 -0.78563555257E+03  0.78563555257E+03  0.00000000000E+00 0. -1.
         23    2    1    2    0    0  0.14480828576E+02 -0.84008350057E+01 -0.47519160840E+03  0.48419368052E+03  0.91412182641E+02 0.  0.
         23    2    1    2    0    0  0.33443762255E+02 -0.22391224162E+02 -0.14334323982E+03  0.17773281403E+03  0.97066042602E+02 0.  0.
        -11    1    4    4    0    0  0.43212736048E+02  0.18533971786E+01 -0.13537566335E+02  0.45321532853E+02  0.00000000000E+00 0.  1.
         11    1    4    4    0    0 -0.97689737931E+01 -0.24244621341E+02 -0.12980567349E+03  0.13241128118E+03  0.00000000000E+00 0. -1.
        -13    1    3    3    0    0  0.11909800750E+02  0.41328456841E+02 -0.23286713679E+03  0.23680580250E+03  0.00000000000E+00 0. -1.
         13    1    3    3    0    0  0.25710278266E+01 -0.49729291846E+02 -0.24232447161E+03  0.24738787802E+03  0.00000000000E+00 0.  1.
         21    1    1    2  503  501 -0.75529120763E+01 -0.89872874479E+02  0.36998070459E+02  0.97483523047E+02  0.00000000000E+00 0.  1.
         -2    1    1    2    0  502 -0.40371678755E+02  0.12066493365E+03 -0.80016280201E+02  0.15030802958E+03  0.00000000000E+00 0. -1.
<scales pt_clust_5="13000.00000" pt_clust_6="13000.00000" pt_clust_7="13000.00000" pt_clust_8="13000.00000" pt_clust_9="90.18969" pt_clust_10="13000.00000"></scales>
<clustering>
<clus scale="   90.190">  1  9  2 -1</clus>
<clus scale="   91.412">  7  8 -1 -1</clus>
<clus scale="   93.753">  2  7  1 -1</clus>
<clus scale="   97.066">  5  6 -1 -1</clus>
<clus scale="   73.338">  5 10 -1 -1</clus>
<clus scale="   90.190">  1  5  2 -1</clus>
</clustering>
</event>
<event>
10    2  0.4951045E-006  0.4069135E+03  0.7546771E-02  0.1045037E+00
         -1   -1    0    0    0  501 -0.00000000000E+00  0.00000000000E+00  0.52458459998E+03  0.52458459998E+03  0.00000000000E+00 0.  1.
         21   -1    0    0  503  502  0.00000000000E+00 -0.00000000000E+00 -0.32023374681E+03  0.32023374681E+03  0.00000000000E+00 0.  1.
         23    2    1    2    0    0 -0.13232748169E+03  0.32044758440E+03  0.16590078618E+03  0.39487466361E+03  0.90585387050E+02 0.  0.
         23    2    1    2    0    0  0.15237345331E+02 -0.65815019165E+02  0.51076007014E+02  0.12033241996E+03  0.85482977021E+02 0.  0.
        -13    1    3    3    0    0 -0.76114486002E+02  0.11539972364E+03  0.10534766373E+03  0.17380633316E+03  0.00000000000E+00 0.  1.
         13    1    3    3    0    0 -0.56212995683E+02  0.20504786076E+03  0.60553122456E+02  0.22106833045E+03  0.00000000000E+00 0. -1.
        -13    1    4    4    0    0  0.36417932490E+02 -0.76833176133E+02  0.41412097014E+02  0.94575707983E+02  0.00000000000E+00 0. -1.
         13    1    4    4    0    0 -0.21180587158E+02  0.11018156967E+02  0.96639099995E+01  0.25756711976E+02  0.00000000000E+00 0.  1.
         21    1    1    2  503  501 -0.10871814326E+01  0.23111642847E+02 -0.15336433520E+02  0.27758533673E+02  0.00000000000E+00 0.  1.
         -1    1    1    2    0  502  0.11817731779E+03 -0.27774420809E+03  0.27104934957E+01  0.30185272955E+03  0.00000000000E+00 0.  1.
<scales pt_clust_5="13000.00000" pt_clust_6="13000.00000" pt_clust_7="13000.00000" pt_clust_8="13000.00000" pt_clust_9="23.13720" pt_clust_10="13000.00000"></scales>
<clustering>
<clus scale="   23.137">  2  9  1 -1</clus>
<clus scale="   85.483">  7  8 -1 -1</clus>
<clus scale="   90.585">  5  6 -1 -1</clus>
<clus scale="  291.006">  7 10 -1 -1</clus>
<clus scale="  366.428">  1  5  2 -1</clus>
<clus scale="   23.137">  2  5  1 -1</clus>
</clustering>
</event>
<event>
10    2  0.4951045E-006  0.2246966E+03  0.7546771E-02  0.1167035E+00
         21   -1    0    0  501  502  0.00000000000E+00  0.00000000000E+00  0.10926995801E+03  0.10926995801E+03  0.00000000000E+00 0.  1.
          1   -1    0    0  503    0 -0.00000000000E+00 -0.00000000000E+00 -0.38762955518E+03  0.38762955518E+03  0.00000000000E+00 0. -1.
         23    2    1    2    0    0  0.25940417245E+02  0.17515688560E+02 -0.16308831918E+03  0.18807372756E+03  0.88284894254E+02 0.  0.
         23    2    1    2    0    0  0.10872833278E+02 -0.57033531357E+02 -0.13052766511E+02  0.11191657212E+03  0.94783448970E+02 0.  0.
        -11    1    4    4    0    0  0.35918751317E+02 -0.21620963860E+02  0.29414699664E+02  0.51213741620E+02  0.00000000000E+00 0.  1.
         11    1    4    4    0    0 -0.25045918039E+02 -0.35412567497E+02 -0.42467466175E+02  0.60702830498E+02  0.00000000000E+00 0. -1.
        -13    1    3    3    0    0  0.41880721330E+01 -0.22814965406E+02 -0.53373309418E+01  0.23802304431E+02  0.00000000000E+00 0. -1.
         13    1    3    3    0    0  0.21752345112E+02  0.40330653966E+02 -0.15775098824E+03  0.16427142313E+03  0.00000000000E+00 0.  1.
         21    1    1    2  503  502  0.27283333544E+02 -0.30842351599E+02  0.16835050134E+02  0.44486513174E+02  0.00000000000E+00 0.  1.
          1    1    1    2  501    0 -0.64096584066E+02  0.70360194396E+02 -0.11905356161E+03  0.15242270033E+03  0.00000000000E+00 0. -1.
<scales pt_clust_5="13000.00000" pt_clust_6="13000.00000" pt_clust_7="13000.00000" pt_clust_8="13000.00000" pt_clust_9="41.17804" pt_clust_10="13000.00000"></scales>
<clustering>
<clus scale="   41.178">  1  9  2 -1</clus>
<clus scale="   88.285">  7  8 -1 -1</clus>
<clus scale="   94.181">  2  7  1 -1</clus>
<clus scale="   94.783">  5  6 -1 -1</clus>
<clus scale="   82.061">  5 10 -1 -1</clus>
<clus scale="   41.178">  1  5  2 -1</clus>
</clustering>
</event>
<event>
10    2  0.4951045E-006  0.3113017E+03  0.7546771E-02  0.1123316E+00
         21   -1    0    0  501  502  0.00000000000E+00  0.00000000000E+00  0.21887160813E+03  0.21887160813E+03  0.00000000000E+00 0.  1.
          1   -1    0    0  503    0 -0.00000000000E+00 -0.00000000000E+00 -0.26319679187E+03  0.26319679187E+03  0.00000000000E+00 0. -1.
         23    2    1    2    0    0  0.55516708578E+01 -0.55144053314E+01 -0.41450802809E+02  0.10855591927E+03  0.10002494108E+03 0.  0.
         23    2    1    2    0    0 -0.90733576428E+02  0.15035265382E+02 -0.14592380371E+03  0.19590974425E+03  0.92888267860E+02 0.  0.
        -11    1    4    4    0    0 -0.45910885210E+02  0.34596297854E+02 -0.20072410282E+02  0.60890186899E+02  0.00000000000E+00 0.  1.
         11    1    4    4    0    0 -0.44822691217E+02 -0.19561032473E+02 -0.12585139343E+03  0.13501955735E+03  0.00000000000E+00 0. -1.
        -13    1    3    3    0    0 -0.26709367980E+02 -0.31802917935E+02 -0.51087794233E+02  0.65839035888E+02  0.00000000000E+00 0.  1.
         13    1    3    3    0    0  0.32261038837E+02  0.26288512604E+02  0.96369914238E+01  0.42716883377E+02  0.00000000000E+00 0. -1.
         21    1    1    2  503  502  0.58627797549E+01 -0.20820067713E+02  0.52012264625E+02  0.56330480891E+02  0.00000000000E+00 0.  1.
          1    1    1    2  501    0  0.79319125815E+02  0.11299207663E+02  0.91037158149E+02  0.12127225560E+03  0.00000000000E+00 0. -1.
<scales pt_clust_5="13000.00000" pt_clust_6="13000.00000" pt_clust_7="13000.00000" pt_clust_8="13000.00000" pt_clust_9="21.62978" pt_clust_10="13000.00000"></scales>
<clustering>
<clus scale="   21.630">  1  9  2 -1</clus>
<clus scale="   92.888">  5  6 -1 -1</clus>
<clus scale="   83.125">  5 10 -1 -1</clus>
<clus scale="  100.025">  7  8 -1 -1</clus>
<clus scale="  100.726">  2  7  1 -1</clus>
<clus scale="   21.630">  1  5  2 -1</clus>
</clustering>
</event>
<event>
10    2  0.4951045E-006  0.3057390E+03  0.7546771E-02  0.1101359E+00
         21   -1    0    0  501  502  0.00000000000E+00  0.00000000000E+00  0.10852890875E+03  0.10852890875E+03  0.00000000000E+00 0. -1.
          2   -1    0    0  503    0 -0.00000000000E+00 -0.00000000000E+00 -0.10220309164E+04  0.10220309164E+04  0.00000000000E+00 0. -1.
         23    2    1    2    0    0 -0.15990303026E+03 -0.60389500516E+02 -0.64392105341E+03  0.67116011723E+03  0.81275513392E+02 0.  0.
         23    2    1    2    0    0  0.84326526676E+02  0.33590245121E+02 -0.29971775728E+03  0.32526972126E+03  0.87922635724E+02 0.  0.
        -11    1    3    3    0    0 -0.51390900940E+02  0.14665768871E+02 -0.12962976560E+03  0.14021407064E+03  0.00000000000E+00 0.  1.
         11    1    3    3    0    0 -0.10851212932E+03 -0.75055269386E+02 -0.51429128782E+03  0.53094604660E+03  0.00000000000E+00 0. -1.
        -13    1    4    4    0    0  0.90318130803E+02  0.41866106129E+01 -0.17481152491E+03  0.19680945532E+03  0.00000000000E+00 0. -1.
         13    1    4    4    0    0 -0.59916041275E+01  0.29403634508E+02 -0.12490623237E+03  0.12846026595E+03  0.00000000000E+00 0.  1.
         21    1    1    2  503  502  0.41229614242E+02 -0.37570437483E+02  0.16458176055E+01  0.55804368815E+02  0.00000000000E+00 0. -1.
          2    1    1    2  501    0  0.34346889342E+02  0.64369692878E+02  0.28490985393E+02  0.78325617887E+02  0.00000000000E+00 0. -1.
<scales pt_clust_5="13000.00000" pt_clust_6="13000.00000" pt_clust_7="13000.00000" pt_clust_8="13000.00000" pt_clust_9="55.78009" pt_clust_10="13000.00000"></scales>
<clustering>
<clus scale="   55.780">  1  9  2 -1</clus>
<clus scale="   81.276">  5  6 -1 -1</clus>
<clus scale="   87.923">  7  8 -1 -1</clus>
<clus scale="   73.316">  7 10 -1 -1</clus>
<clus scale="  185.570">  2  5  1 -1</clus>
<clus scale="   55.780">  1  5  2 -1</clus>
</clustering>
</event>
<event>
10    2  0.4951045E-006  0.3420026E+03  0.7546771E-02  0.1101141E+00
         -1   -1    0    0    0  501 -0.00000000000E+00  0.00000000000E+00  0.52543865601E+03  0.52543865601E+03  0.00000000000E+00 0.  1.
         21   -1    0    0  503  502  0.00000000000E+00 -0.00000000000E+00 -0.34745032452E+03  0.34745032452E+03  0.00000000000E+00 0.  1.
         23    2    1    2    0    0 -0.20279785698E+02 -0.95677288970E+02  0.21883146387E+03  0.25655929394E+03  0.91487968597E+02 0.  0.
         23    2    1    2    0    0 -0.36371581703E+02 -0.26084233633E+02  0.21924154217E+03  0.24313694404E+03  0.95107520951E+02 0.  0.
        -11    1    3    3    0    0 -0.47558311857E+02 -0.44651276003E+02  0.64496982450E+02  0.91735436013E+02  0.00000000000E+00 0. -1.
         11    1    3    3    0    0  0.27278526159E+02 -0.51026012968E+02  0.15433448142E+03  0.16482385793E+03  0.00000000000E+00 0.  1.
        -13    1    4    4    0    0 -0.26054781537E+02  0.33329186150E+02  0.11729465357E+03  0.12469050503E+03  0.00000000000E+00 0. -1.
         13    1    4    4    0    0 -0.10316800166E+02 -0.59413419783E+02  0.10194688861E+03  0.11844643900E+03  0.00000000000E+00 0.  1.
         21    1    1    2  503  501 -0.34099869277E+02  0.13663532576E+02 -0.22470011731E+03  0.22768319202E+03  0.00000000000E+00 0.  1.
         -1    1    1    2    0  502  0.90751236678E+02  0.10809799003E+03 -0.35384557231E+02  0.14550955054E+03  0.00000000000E+00 0.  1.
<scales pt_clust_5="13000.00000" pt_clust_6="13000.00000" pt_clust_7="13000.00000" pt_clust_8="13000.00000" pt_clust_9="36.73545" pt_clust_10="13000.00000"></scales>
<clustering>
<clus scale="   36.735">  2  9  1 -1</clus>
<clus scale="   91.488">  5  6 -1 -1</clus>
<clus scale="   95.108">  7  8 -1 -1</clus>
<clus scale="  133.329">  1  5  2 -1</clus>
<clus scale="  117.928">  7 10 -1 -1</clus>
<clus scale="   36.735">  2  5  1 -1</clus>
</clustering>
</event>
<event>
10    2  0.4951045E-006  0.3167036E+03  0.7546771E-02  0.1099788E+00
          1   -1    0    0  503    0 -0.00000000000E+00  0.00000000000E+00  0.87365904516E+03  0.87365904516E+03  0.00000000000E+00 0. -1.
         21   -1    0    0  501  502  0.00000000000E+00 -0.00000000000E+00 -0.82106740140E+02  0.82106740140E+02  0.00000000000E+00 0.  1.
         23    2    1    2    0    0 -0.62238484523E+02 -0.14341938916E+03  0.27315955036E+03  0.32717570063E+03  0.89359101286E+02 0.  0.
         23    2    1    2    0    0  0.63146753942E+02  0.19525114591E+03  0.28651050530E+03  0.36286998173E+03  0.86462890780E+02 0.  0.
        -11    1    3    3    0    0 -0.64648206420E+02 -0.60386792723E+02  0.90706371553E+02  0.12670280648E+03  0.00000000000E+00 0.  1.
         11    1    3    3    0    0  0.24097218973E+01 -0.83032596442E+02  0.18245317881E+03  0.20047289415E+03  0.00000000000E+00 0. -1.
        -13    1    4    4    0    0  0.81562988072E+02  0.16972322821E+03  0.26354623110E+03  0.32390602208E+03  0.00000000000E+00 0.  1.
         13    1    4    4    0    0 -0.18416234130E+02  0.25527917702E+02  0.22964274199E+02  0.38963959645E+02  0.00000000000E+00 0. -1.
         21    1    1    2  503  502  0.14342179636E+02  0.14076708221E+02 -0.38598793728E+01  0.20463394142E+02  0.00000000000E+00 0. -1.
          1    1    1    2  501    0 -0.15250449056E+02 -0.65908464969E+02  0.23574212873E+03  0.24525670879E+03  0.00000000000E+00 0. -1.
<scales pt_clust_5="13000.00000" pt_clust_6="13000.00000" pt_clust_7="13000.00000" pt_clust_8="13000.00000" pt_clust_9="20.09607" pt_clust_10="13000.00000"></scales>
<clustering>
<clus scale="   20.096">  2  9  1 -1</clus>
<clus scale="   86.463">  7  8 -1 -1</clus>
<clus scale="   66.501">  7 10 -1 -1</clus>
<clus scale="   89.359">  5  6 -1 -1</clus>
<clus scale="  173.895">  1  5  2 -1</clus>
<clus scale="   20.096">  2  5  1 -1</clus>
</clustering>
</event>
<event>
10    2  0.4951045E-006  0.5212357E+03  0.7546771E-02  0.1019200E+00
          2   -1    0    0  503    0 -0.00000000000E+00  0.00000000000E+00  0.81121171730E+03  0.81121171730E+03  0.00000000000E+00 0. -1.
         21   -1    0    0  501  502  0.00000000000E+00 -0.00000000000E+00 -0.29280924877E+03  0.29280924877E+03  0.00000000000E+00 0. -1.
         23    2    1    2    0    0 -0.36363737496E+03 -0.98838748064E+02  0.32312847337E+03  0.50444823817E+03  0.89748404475E+02 0.  0.
         23    2    1    2    0    0 -0.36469820951E+02 -0.46503188655E+02  0.34731427514E+02  0.11797446962E+03  0.96016191496E+02 0.  0.
        -11    1    4    4    0    0  0.25035026823E+02 -0.44139981263E+02  0.20952402249E+02  0.54900762053E+02  0.00000000000E+00 0.  1.
         11    1    4    4    0    0 -0.61504847774E+02 -0.23632073919E+01  0.13779025265E+02  0.63073707566E+02  0.00000000000E+00 0. -1.
        -13    1    3    3    0    0 -0.43708637244E+02 -0.43100602373E+02  0.66847434972E+02  0.90756192390E+02  0.00000000000E+00 0.  1.
         13    1    3    3    0    0 -0.31992873772E+03 -0.55738145691E+02  0.25628103840E+03  0.41369204578E+03  0.00000000000E+00 0. -1.
         21    1    1    2  503  502  0.51318734614E+02 -0.32641772404E+02  0.79350095140E+01  0.61335651982E+02  0.00000000000E+00 0. -1.
          2    1    1    2  501    0  0.34878846130E+03  0.17798370912E+03  0.15260755814E+03  0.42026260629E+03  0.00000000000E+00 0. -1.
<scales pt_clust_5="13000.00000" pt_clust_6="13000.00000" pt_clust_7="13000.00000" pt_clust_8="13000.00000" pt_clust_9="60.82021" pt_clust_10="13000.00000"></scales>
<clustering>
<clus scale="   60.820">  2  9  1 -1</clus>
<clus scale="   89.748">  7  8 -1 -1</clus>
<clus scale="   96.016">  5  6 -1 -1</clus>
<clus scale="  374.123">  1  7  2 -1</clus>
<clus scale="  128.696">  5 10 -1 -1</clus>
<clus scale="   60.820">  2  5  1 -1</clus>
</clustering>
</event>
<event>
10    2  0.4951045E-006  0.2092091E+03  0.7546771E-02  0.1159884E+00
         21   -1    0    0  501  502  0.00000000000E+00  0.00000000000E+00  0.26317514381E+03  0.26317514381E+03  0.00000000000E+00 0.  1.
          1   -1    0    0  503    0 -0.00000000000E+00 -0.00000000000E+00 -0.18922980810E+03  0.18922980810E+03  0.00000000000E+00 0. -1.
         23    2    1    2    0    0 -0.26104225230E+02  0.88066660215E+02  0.11102667710E+02  0.13071603784E+03  0.92337674331E+02 0.  0.
         23    2    1    2    0    0  0.29413853108E+02 -0.93419302074E+02 -0.91222487808E+02  0.16064963129E+03  0.88850554280E+02 0.  0.
        -11    1    4    4    0    0  0.48497572998E+02 -0.15860110720E+02 -0.24630866236E+02  0.56658955782E+02  0.00000000000E+00 0.  1.
         11    1    4    4    0    0 -0.19083719890E+02 -0.77559191354E+02 -0.66591621572E+02  0.10399067550E+03  0.00000000000E+00 0. -1.
        -13    1    3    3    0    0 -0.60119787312E+02  0.62359408962E+02 -0.14446500519E+00  0.86620468613E+02  0.00000000000E+00 0. -1.
         13    1    3    3    0    0  0.34015562082E+02  0.25707251253E+02  0.11247132715E+02  0.44095569223E+02  0.00000000000E+00 0.  1.
         21    1    1    2  503  502  0.29068086952E+01  0.25143108736E+02  0.99363408145E+02  0.10253639516E+03  0.00000000000E+00 0.  1.
          1    1    1    2  501    0 -0.62164365731E+01 -0.19790466877E+02  0.54701747664E+02  0.58502887624E+02  0.00000000000E+00 0. -1.
<scales pt_clust_5="13000.00000" pt_clust_6="13000.00000" pt_clust_7="13000.00000" pt_clust_8="13000.00000" pt_clust_9="25.31058" pt_clust_10="13000.00000"></scales>
<clustering>
<clus scale="   25.311">  1  9  2 -1</clus>
<clus scale="   88.851">  5  6 -1 -1</clus>
<clus scale="   12.184">  5 10 -1 -1</clus>
<clus scale="   92.338">  7  8 -1 -1</clus>
<clus scale="  137.678">  2  7  1 -1</clus>
<clus scale="   25.311">  1  5  2 -1</clus>
</clustering>
</event>
<event>
10    2  0.4951045E-006  0.3826329E+03  0.7546771E-02  0.1077829E+00
         21   -1    0    0  503  502  0.00000000000E+00  0.00000000000E+00  0.29697530691E+03  0.29697530691E+03  0.00000000000E+00 0. -1.
          1   -1    0    0  502    0 -0.00000000000E+00 -0.00000000000E+00 -0.71372357501E+03  0.71372357501E+03  0.00000000000E+00 0. -1.
         23    2    1    2    0    0 -0.12642333725E+03 -0.72792936841E+02 -0.43947426734E+03  0.47145224499E+03  0.88588463132E+02 0.  0.
         23    2    1    2    0    0  0.23148420350E+03 -0.14411674997E+02 -0.81373338472E+02  0.26630457121E+03  0.10248839734E+03 0.  0.
        -11    1    3    3    0    0 -0.11066473270E+02  0.19842120200E+02 -0.59958172951E+02  0.64118320847E+02  0.00000000000E+00 0.  1.
         11    1    3    3    0    0 -0.11535686398E+03 -0.92635057040E+02 -0.37951609439E+03  0.40733392415E+03  0.00000000000E+00 0. -1.
        -13    1    4    4    0    0  0.19001361077E+03 -0.17694192945E+02 -0.10566010559E+03  0.21813370820E+03  0.00000000000E+00 0. -1.
         13    1    4    4    0    0  0.41470592732E+02  0.32825179487E+01  0.24286767123E+02  0.48170863008E+02  0.00000000000E+00 0.  1.
         21    1    1    2  503  501 -0.61815535243E+02 -0.61383946635E+02  0.76104767122E+02  0.11567663930E+03  0.00000000000E+00 0. -1.
          1    1    1    2  501    0 -0.43245331007E+02  0.14858855847E+03  0.27994570588E+02  0.15726542641E+03  0.00000000000E+00 0. -1.
<scales pt_clust_5="13000.00000" pt_clust_6="13000.00000" pt_clust_7="13000.00000" pt_clust_8="13000.00000" pt_clust_9="87.11572" pt_clust_10="13000.00000"></scales>
<clustering>
<clus scale="   87.116">  1  9  2 -1</clus>
<clus scale="   88.588">  5  6 -1 -1</clus>
<clus scale="  102.488">  7  8 -1 -1</clus>
<clus scale="  140.067">  7 10 -1 -1</clus>
<clus scale="  176.440">  2  5  1 -1</clus>
<clus scale="   87.116">  1  5  2 -1</clus>
</clustering>
</event>
<event>
10    2  0.4951045E-006  0.3704948E+03  0.7546771E-02  0.1079003E+00
          2   -1    0    0  503    0 -0.00000000000E+00  0.00000000000E+00  0.82001031108E+03  0.82001031108E+03  0.00000000000E+00 0. -1.
         21   -1    0    0  501  502  0.00000000000E+00 -0.00000000000E+00 -0.15301443650E+03  0.15301443650E+03  0.00000000000E+00 0. -1.
         23    2    1    2    0    0  0.79582423896E+02 -0.14224116688E+03  0.40098963952E+03  0.44355085574E+03  0.96843992466E+02 0.  0.
         23    2    1    2    0    0 -0.35513433700E+02  0.27857441418E+01  0.32909481500E+03  0.34355007669E+03  0.91947232636E+02 0.  0.
        -11    1    3    3    0    0  0.56880699060E+02 -0.11182610907E+03  0.38001004410E+03  0.40018511493E+03  0.00000000000E+00 0. -1.
         11    1    3    3    0    0  0.22701724836E+02 -0.30415057810E+02  0.20979595424E+02  0.43365740813E+02  0.00000000000E+00 0.  1.
        -11    1    4    4    0    0  0.12779206312E+02  0.37165771675E+02  0.13498507558E+03  0.14059008972E+03  0.00000000000E+00 0.  1.
         11    1    4    4    0    0 -0.48292640013E+02 -0.34380027534E+02  0.19410973941E+03  0.20295998696E+03  0.00000000000E+00 0. -1.
         21    1    1    2  503  502  0.16197144608E+02  0.18193755075E+02 -0.42457875270E+02  0.48949273637E+02  0.00000000000E+00 0. -1.
          2    1    1    2  501    0 -0.60266134804E+02  0.12126166767E+03 -0.20630704671E+02  0.13697454152E+03  0.00000000000E+00 0. -1.
<scales pt_clust_5="13000.00000" pt_clust_6="13000.00000" pt_clust_7="13000.00000" pt_clust_8="13000.00000" pt_clust_9="24.35899" pt_clust_10="13000.00000"></scales>
<clustering>
<clus scale="   24.359">  2  9  1 -1</clus>
<clus scale="   91.947">  7  8 -1 -1</clus>
<clus scale="   96.844">  5  6 -1 -1</clus>
<clus scale="  143.049">  7 10 -1 -1</clus>
<clus scale="  188.289">  1  5  2 -1</clus>
<clus scale="   24.359">  2  5  1 -1</clus>
</clustering>
</event>
<event>
10    2  0.4951045E-006  0.4764265E+03  0.7546771E-02  0.1031988E+00
          2   -1    0    0  503    0 -0.00000000000E+00  0.00000000000E+00  0.76726105210E+03  0.76726105210E+03  0.00000000000E+00 0. -1.
         21   -1    0    0  501  502  0.00000000000E+00 -0.00000000000E+00 -0.35679043941E+03  0.35679043941E+03  0.00000000000E+00 0. -1.
         23    2    1    2    0    0  0.23562785621E+03 -0.23352758994E+03  0.23123736357E+03  0.41450138476E+03  0.91022292721E+02 0.  0.
         23    2    1    2    0    0 -0.15477635610E+03  0.64061346904E+02  0.35365094170E+03  0.40218297380E+03  0.92857844457E+02 0.  0.
        -11    1    3    3    0    0  0.46556412889E+02 -0.80833285669E+02  0.27171711599E+02  0.97158744148E+02  0.00000000000E+00 0.  1.
         11    1    3    3    0    0  0.18907144332E+03 -0.15269430427E+03  0.20406565197E+03  0.31734264061E+03  0.00000000000E+00 0. -1.
        -13    1    4    4    0    0 -0.67464510423E+02 -0.15831479350E+02  0.17138987573E+03  0.18486910345E+03  0.00000000000E+00 0.  1.
         13    1    4    4    0    0 -0.87311845676E+02  0.79892826254E+02  0.18226106597E+03  0.21731387036E+03  0.00000000000E+00 0. -1.
         21    1    1    2  503  502  0.36312966702E+02  0.77798882771E+02 -0.12293496038E+03  0.14994766485E+03  0.00000000000E+00 0.  1.
          2    1    1    2  501    0 -0.11716446681E+03  0.91667360260E+02 -0.51482732194E+02  0.15741946809E+03  0.00000000000E+00 0. -1.
<scales pt_clust_5="13000.00000" pt_clust_6="13000.00000" pt_clust_7="13000.00000" pt_clust_8="13000.00000" pt_clust_9="85.85626" pt_clust_10="13000.00000"></scales>
<clustering>
<clus scale="   85.856">  2  9  1 -1</clus>
<clus scale="   91.022">  5  6 -1 -1</clus>
<clus scale="   92.858">  7  8 -1 -1</clus>
<clus scale="  162.832">  7 10 -1 -1</clus>
<clus scale="  334.098">  1  5  2 -1</clus>
<clus scale="   85.856">  2  5  1 -1</clus>
</clustering>
</event>
<event>
10    2  0.4951045E-006  0.2205642E+03  0.7546771E-02  0.1162325E+00
         21   -1    0    0  503  502  0.00000000000E+00  0.00000000000E+00  0.11844859538E+03  0.11844859538E+03  0.00000000000E+00 0.  1.
         -1   -1    0    0    0  501 -0.00000000000E+00 -0.00000000000E+00 -0.31140194208E+03  0.31140194208E+03  0.00000000000E+00 0.  1.
         23    2    1    2    0    0 -0.62717937859E+02  0.58297317106E+01 -0.11260324541E+03  0.15865779780E+03  0.92332445140E+02 0.  0.
         23    2    1    2    0    0 -0.11822415963E+02 -0.34026312763E+02 -0.12903404082E+03  0.16881359540E+03  0.10271653627E+03 0.  0.
        -11    1    3    3    0    0 -0.20991840353E+02  0.47197142075E+02 -0.40456250517E+02  0.65612009475E+02  0.00000000000E+00 0. -1.
         11    1    3    3    0    0 -0.41726097505E+02 -0.41367410364E+02 -0.72146994894E+02  0.93045788328E+02  0.00000000000E+00 0.  1.
        -11    1    4    4    0    0 -0.23626470475E+02 -0.59466775596E+02 -0.39988442631E+02  0.75455835102E+02  0.00000000000E+00 0.  1.
         11    1    4    4    0    0  0.11804054512E+02  0.25440462834E+02 -0.89045598187E+02  0.93357760302E+02  0.00000000000E+00 0. -1.
         21    1    1    2  503  501  0.84635008290E+01  0.21058722427E+02  0.18962168094E+02  0.29574726632E+02  0.00000000000E+00 0.  1.
         -1    1    1    2    0  502  0.66076852993E+02  0.71378586251E+01  0.29721771435E+02  0.72804417616E+02  0.00000000000E+00 0.  1.
<scales pt_clust_5="13000.00000" pt_clust_6="13000.00000" pt_clust_7="13000.00000" pt_clust_8="13000.00000" pt_clust_9="22.69583" pt_clust_10="13000.00000"></scales>
<clustering>
<clus scale="   22.696">  1  9  2 -1</clus>
<clus scale="   92.332">  5  6 -1 -1</clus>
<clus scale="  102.717">  7  8 -1 -1</clus>
<clus scale="   73.090">  7 10 -1 -1</clus>
<clus scale="  111.014">  2  5  1 -1</clus>
<clus scale="   22.696">  1  5  2 -1</clus>
</clustering>
</event>
<event>
10    2  0.4951045E-006  0.2331273E+03  0.7546771E-02  0.1139160E+00
         21   -1    0    0  501  502  0.00000000000E+00  0.00000000000E+00  0.98587956070E+02  0.98587956070E+02  0.00000000000E+00 0. -1.
          1   -1    0    0  503    0 -0.00000000000E+00 -0.00000000000E+00 -0.63694776959E+03  0.63694776959E+03  0.00000000000E+00 0. -1.
         23    2    1    2    0    0 -0.39249990509E+02 -0.12247675014E+03 -0.33966572795E+03  0.37460542925E+03  0.91734970423E+02 0.  0.
         23    2    1    2    0    0  0.36858517857E+01  0.17220211218E+02 -0.14964649136E+03  0.17670724227E+03  0.92310648984E+02 0.  0.
        -11    1    4    4    0    0 -0.23491489265E+02  0.43185974804E+02 -0.11704706579E+03  0.12695233003E+03  0.00000000000E+00 0. -1.
         11    1    4    4    0    0  0.27177341050E+02 -0.25965763586E+02 -0.32599425570E+02  0.49754912246E+02  0.00000000000E+00 0.  1.
        -11    1    3    3    0    0 -0.26140454965E+02  0.61178866692E+01 -0.39167278239E+02  0.47485025090E+02  0.00000000000E+00 0.  1.
         11    1    3    3    0    0 -0.13109535543E+02 -0.12859463680E+03 -0.30049844972E+03  0.32712040416E+03  0.00000000000E+00 0. -1.
         21    1    1    2  503  502 -0.53361670639E+01 -0.22862395591E+02  0.21953898515E+02  0.32142455897E+02  0.00000000000E+00 0. -1.
          1    1    1    2  501    0  0.40900305787E+02  0.12811893451E+03 -0.71001492714E+02  0.15208059824E+03  0.00000000000E+00 0. -1.
<scales pt_clust_5="13000.00000" pt_clust_6="13000.00000" pt_clust_7="13000.00000" pt_clust_8="13000.00000" pt_clust_9="23.47688" pt_clust_10="13000.00000"></scales>
<clustering>
<clus scale="   23.477">  1  9  2 -1</clus>
<clus scale="   91.735">  7  8 -1 -1</clus>
<clus scale="   92.311">  5  6 -1 -1</clus>
<clus scale="  121.232">  5 10 -1 -1</clus>
<clus scale="  162.663">  2  7  1 -1</clus>
<clus scale="   23.477">  1  5  2 -1</clus>
</clustering>
</event>
<event>
10    2  0.4951045E-006  0.2696262E+03  0.7546771E-02  0.1142201E+00
          1   -1    0    0  502    0 -0.00000000000E+00  0.00000000000E+00  0.78809753782E+03  0.78809753782E+03  0.00000000000E+00 0. -1.
         21   -1    0    0  503  502  0.00000000000E+00 -0.00000000000E+00 -0.11236537910E+03  0.11236537910E+03  0.00000000000E+00 0. -1.
         23    2    1    2    0    0 -0.28503851265E+02 -0.20878623571E+02  0.38550927857E+03  0.39780773166E+03  0.91570743429E+02 0.  0.
         23    2    1    2    0    0 -0.29115324828E+02 -0.11401762090E+03  0.21968811925E+03  0.26536255645E+03  0.91141080817E+02 0.  0.
        -11    1    3    3    0    0  0.30468833356E+02  0.63502625330E+01  0.89553987395E+02  0.94808186876E+02  0.00000000000E+00 0. -1.
         11    1    3    3    0    0 -0.58972684621E+02 -0.27228886104E+02  0.29595529117E+03  0.30299954479E+03  0.00000000000E+00 0.  1.
        -13    1    4    4    0    0 -0.23560366248E+02 -0.18243189242E+00  0.78901685010E+01  0.24847110458E+02  0.00000000000E+00 0.  1.
         13    1    4    4    0    0 -0.55549585803E+01 -0.11383518901E+03  0.21179795074E+03  0.24051544599E+03  0.00000000000E+00 0. -1.
         21    1    1    2  503  501 -0.11301061739E+02  0.37273530020E+02 -0.52767014211E+02  0.65584966458E+02  0.00000000000E+00 0.  1.
          1    1    1    2  501    0  0.68920237832E+02  0.97622714451E+02  0.12330177512E+03  0.17170766234E+03  0.00000000000E+00 0. -1.
<scales pt_clust_5="13000.00000" pt_clust_6="13000.00000" pt_clust_7="13000.00000" pt_clust_8="13000.00000" pt_clust_9="38.94907" pt_clust_10="13000.00000"></scales>
<clustering>
<clus scale="   38.949">  2  9  1 -1</clus>
<clus scale="   91.141">  7  8 -1 -1</clus>
<clus scale="   91.571">  5  6 -1 -1</clus>
<clus scale="   97.716">  1  5  2 -1</clus>
<clus scale="  118.132">  7 10 -1 -1</clus>
<clus scale="   38.949">  2  5  1 -1</clus>
</clustering>
</event>
<event>
10    2  0.4951045E-006  0.3084604E+03  0.7546771E-02  0.1119975E+00
         21   -1    0    0  503  502  0.00000000000E+00  0.00000000000E+00  0.21417376853E+03  0.21417376853E+03  0.00000000000E+00 0.  1.
          2   -1    0    0  502    0 -0.00000000000E+00 -0.00000000000E+00 -0.37372649105E+03  0.37372649105E+03  0.00000000000E+00 0. -1.
         23    2    1    2    0    0 -0.36079739624E+02 -0.48309645207E+02 -0.32536649083E+02  0.11713876826E+03  0.95012041682E+02 0.  0.
         23    2    1    2    0    0  0.54953639349E+02  0.59636333940E+02  0.59562053148E+02  0.14195350289E+03  0.10013373061E+03 0.  0.
        -11    1    3    3    0    0 -0.46328992983E+02 -0.69630414091E+02 -0.95919036073E+01  0.84182983864E+02  0.00000000000E+00 0.  1.
         11    1    3    3    0    0  0.10249253360E+02  0.21320768884E+02 -0.22944745475E+02  0.32955784396E+02  0.00000000000E+00 0. -1.
        -13    1    4    4    0    0  0.72411281829E+02  0.45530850690E+02  0.82324392488E+01  0.85931514339E+02  0.00000000000E+00 0. -1.
         13    1    4    4    0    0 -0.17457642480E+02  0.14105483250E+02  0.51329613899E+02  0.56021988556E+02  0.00000000000E+00 0.  1.
         21    1    1    2  503  501 -0.12865691063E+03  0.11675464825E+02 -0.24164561282E+02  0.13142618899E+03  0.00000000000E+00 0. -1.
          2    1    1    2  501    0  0.10978301090E+03 -0.23002153557E+02 -0.16241356531E+03  0.19738179943E+03  0.00000000000E+00 0. -1.
<scales pt_clust_5="13000.00000" pt_clust_6="13000.00000" pt_clust_7="13000.00000" pt_clust_8="13000.00000" pt_clust_9="138.05074" pt_clust_10="13000.00000"></scales>
<clustering>
<clus scale="   95.012">  5  6 -1 -1</clus>
<clus scale="  100.134">  7  8 -1 -1</clus>
<clus scale="  112.167">  7 10 -1 -1</clus>
<clus scale="  112.529">  2  5  1 -1</clus>
<clus scale="  138.051">  1  9  2 -1</clus>
<clus scale="  138.051">  1  5  2 -1</clus>
</clustering>
</event>
<event>
10    2  0.4951045E-006  0.1521149E+03  0.7546771E-02  0.1207565E+00
         -1   -1    0    0    0  501 -0.00000000000E+00  0.00000000000E+00  0.40458852798E+02  0.40458852798E+02  0.00000000000E+00 0.  1.
         21   -1    0    0  503  502  0.00000000000E+00 -0.00000000000E+00 -0.13997600927E+04  0.13997600927E+04  0.00000000000E+00 0. -1.
         23    2    1    2    0    0  0.68893725606E+02  0.18990165087E+02 -0.93054804001E+02  0.15151451971E+03  0.95866998168E+02 0.  0.
         23    2    1    2    0    0 -0.70184572511E+02  0.10396373242E+02 -0.66316857974E+03  0.67333508397E+03  0.92485735950E+02 0.  0.
        -11    1    4    4    0    0 -0.87629767403E+02  0.27133673594E+02 -0.55173472357E+03  0.55930887493E+03  0.00000000000E+00 0.  1.
         11    1    4    4    0    0  0.17445194892E+02 -0.16737300352E+02 -0.11143385617E+03  0.11402620904E+03  0.00000000000E+00 0. -1.
        -13    1    3    3    0    0  0.29123430906E+02  0.52544150209E+02 -0.75745404184E+02  0.96676926947E+02  0.00000000000E+00 0.  1.
         13    1    3    3    0    0  0.39770294700E+02 -0.33553985123E+02 -0.17309399818E+02  0.54837592764E+02  0.00000000000E+00 0. -1.
         21    1    1    2  503  501  0.53624781605E+02 -0.90130951464E+01 -0.42959863202E+03  0.43302637069E+03  0.00000000000E+00 0. -1.
         -1    1    1    2    0  502 -0.52333934700E+02 -0.20373443182E+02 -0.17347922413E+03  0.18234297111E+03  0.00000000000E+00 0.  1.
<scales pt_clust_5="13000.00000" pt_clust_6="13000.00000" pt_clust_7="13000.00000" pt_clust_8="13000.00000" pt_clust_9="54.37695" pt_clust_10="13000.00000"></scales>
<clustering>
<clus scale="   54.377">  2  9  1 -1</clus>
<clus scale="   92.486">  5  6 -1 -1</clus>
<clus scale="   47.855">  5 10 -1 -1</clus>
<clus scale="   95.867">  7  8 -1 -1</clus>
<clus scale="  123.428">  1  7  2 -1</clus>
<clus scale="   54.377">  2  5  1 -1</clus>
</clustering>
</event>
<event>
10    2  0.4951045E-006  0.3228806E+03  0.7546771E-02  0.1108836E+00
         21   -1    0    0  503  502  0.00000000000E+00  0.00000000000E+00  0.10342147751E+03  0.10342147751E+03  0.00000000000E+00 0.  1.
         -3   -1    0    0    0  501 -0.00000000000E+00 -0.00000000000E+00 -0.82744864783E+03  0.82744864783E+03  0.00000000000E+00 0.  1.
         23    2    1    2    0    0  0.16479412255E+02  0.87490442065E+02 -0.25397711985E+03  0.28430764612E+03  0.91653214636E+02 0.  0.
         23    2    1    2    0    0 -0.11966456841E+03 -0.28718828471E+02 -0.40107818284E+03  0.42907430073E+03  0.89981480082E+02 0.  0.
        -11    1    4    4    0    0 -0.40634255392E+01  0.21818711897E+02 -0.10354574655E+03  0.10589754126E+03  0.00000000000E+00 0. -1.
         11    1    4    4    0    0 -0.11560114287E+03 -0.50537540369E+02 -0.29753243628E+03  0.32317675947E+03  0.00000000000E+00 0.  1.
        -11    1    3    3    0    0 -0.32226041475E+02  0.71483546468E+01 -0.52732285443E+02  0.62211820833E+02  0.00000000000E+00 0.  1.
         11    1    3    3    0    0  0.48705453730E+02  0.80342087418E+02 -0.20124483441E+03  0.22209582529E+03  0.00000000000E+00 0. -1.
         21    1    1    2  503  501 -0.13106256648E+02  0.15573910616E+02  0.37835821416E+02  0.42963589671E+02  0.00000000000E+00 0.  1.
         -3    1    1    2    0  502  0.11629141281E+03 -0.74345524210E+02 -0.10680768905E+03  0.17452458882E+03  0.00000000000E+00 0.  1.
<scales pt_clust_5="13000.00000" pt_clust_6="13000.00000" pt_clust_7="13000.00000" pt_clust_8="13000.00000" pt_clust_9="20.35487" pt_clust_10="13000.00000"></scales>
<clustering>
<clus scale="   20.355">  1  9  2 -1</clus>
<clus scale="   89.981">  5  6 -1 -1</clus>
<clus scale="   91.653">  7  8 -1 -1</clus>
<clus scale="  127.627">  5 10 -1 -1</clus>
<clus scale="  130.009">  2  7  1 -1</clus>
<clus scale="   20.355">  1  5  2 -1</clus>
</clustering>
</event>
<event>
10    2  0.4951045E-006  0.1781755E+03  0.7546771E-02  0.1179387E+00
         21   -1    0    0  503  502  0.00000000000E+00  0.00000000000E+00  0.94102363413E+02  0.94102363413E+02  0.00000000000E+00 0.  1.
         -2   -1    0    0    0  501 -0.00000000000E+00 -0.00000000000E+00 -0.78841354958E+03  0.78841354958E+03  0.00000000000E+00 0.  1.
         23    2    1    2    0    0 -0.12140349435E+03 -0.15959658979E+02 -0.37770099522E+03  0.40668180128E+03  0.87968895311E+02 0.  0.
         23    2    1    2    0    0  0.39653879787E+02  0.67151033477E+02 -0.28488426902E+03  0.30925267068E+03  0.91632287483E+02 0.  0.
        -13    1    3    3    0    0  0.65320531100E+01 -0.19413446617E+02 -0.31417810882E+02  0.37505045901E+02  0.00000000000E+00 0. -1.
         13    1    3    3    0    0 -0.12793554746E+03  0.34537876383E+01 -0.34628318434E+03  0.36917675537E+03  0.00000000000E+00 0.  1.
        -13    1    4    4    0    0  0.22396123809E+02  0.89398514579E+02 -0.21672249357E+03  0.23550439484E+03  0.00000000000E+00 0.  1.
         13    1    4    4    0    0  0.17257755978E+02 -0.22247481103E+02 -0.68161775453E+02  0.73748275843E+02  0.00000000000E+00 0. -1.
         21    1    1    2  503  501  0.32618470521E+02 -0.38567065133E+02  0.49560989504E+02  0.70764926431E+02  0.00000000000E+00 0.  1.
         -2    1    1    2    0  502  0.49131144040E+02 -0.12624309365E+02 -0.81286911428E+02  0.95816514605E+02  0.00000000000E+00 0.  1.
<scales pt_clust_5="13000.00000" pt_clust_6="13000.00000" pt_clust_7="13000.00000" pt_clust_8="13000.00000" pt_clust_9="50.51122" pt_clust_10="13000.00000"></scales>
<clustering>
<clus scale="   50.511">  1  9  2 -1</clus>
<clus scale="   87.969">  5  6 -1 -1</clus>
<clus scale="   91.632">  7  8 -1 -1</clus>
<clus scale="   59.872">  7 10 -1 -1</clus>
<clus scale="  142.623">  2  5  1 -1</clus>
<clus scale="   50.511">  1  5  2 -1</clus>
</clustering>
</event>
<event>
10    2  0.4951045E-006  0.1226055E+03  0.7546771E-02  0.1246382E+00
         21   -1    0    0  501  502  0.00000000000E+00  0.00000000000E+00  0.14536353520E+03  0.14536353520E+03  0.00000000000E+00 0.  1.
          1   -1    0    0  503    0 -0.00000000000E+00 -0.00000000000E+00 -0.23764772484E+03  0.23764772484E+03  0.00000000000E+00 0. -1.
         23    2    1    2    0    0  0.18177910357E+02 -0.47347073385E+02 -0.17781648401E+03  0.20611528692E+03  0.91063866227E+02 0.  0.
         23    2    1    2    0    0 -0.24089473252E+02  0.44094179773E+02  0.64141575627E+02  0.12280730767E+03  0.91885220142E+02 0.  0.
        -11    1    3    3    0    0  0.71284183825E+01 -0.29671238818E+02 -0.18226395024E+03  0.18480082337E+03  0.00000000000E+00 0. -1.
         11    1    3    3    0    0  0.11049491974E+02 -0.17675834568E+02  0.44474662268E+01  0.21314463549E+02  0.00000000000E+00 0.  1.
        -13    1    4    4    0    0  0.21483577124E+02  0.36273513635E+02  0.63916160550E+02  0.76567535268E+02  0.00000000000E+00 0.  1.
         13    1    4    4    0    0 -0.45573050376E+02  0.78206661381E+01  0.22541507685E+00  0.46239772397E+02  0.00000000000E+00 0. -1.
         21    1    1    2  503  502 -0.25436261115E+01 -0.22259773440E+02  0.63405692684E+01  0.23284552090E+02  0.00000000000E+00 0.  1.
          1    1    1    2  501    0  0.84551890067E+01  0.25512667052E+02  0.15050149473E+02  0.30804113368E+02  0.00000000000E+00 0. -1.
<scales pt_clust_5="13000.00000" pt_clust_6="13000.00000" pt_clust_7="13000.00000" pt_clust_8="13000.00000" pt_clust_9="22.40463" pt_clust_10="13000.00000"></scales>
<clustering>
<clus scale="   22.405">  1  9  2 -1</clus>
<clus scale="   91.064">  5  6 -1 -1</clus>
<clus scale="   91.885">  7  8 -1 -1</clus>
<clus scale="   23.040">  7 10 -1 -1</clus>
<clus scale="  105.305">  2  5  1 -1</clus>
<clus scale="   22.405">  1  5  2 -1</clus>
</clustering>
</event>
<event>
10    2  0.4951045E-006  0.1537092E+03  0.7546771E-02  0.1218259E+00
         21   -1    0    0  503  502  0.00000000000E+00  0.00000000000E+00  0.55466458153E+03  0.55466458153E+03  0.00000000000E+00 0.  1.
          4   -1    0    0  502    0 -0.00000000000E+00 -0.00000000000E+00 -0.81559079412E+02  0.81559079412E+02  0.00000000000E+00 0. -1.
         23    2    1    2    0    0  0.11177336916E+02  0.33625368910E+01  0.13221374222E+03  0.16133724072E+03  0.91722364209E+02 0.  0.
         23    2    1    2    0    0  0.12805518972E+01 -0.86912933518E+01 -0.16407185480E+02  0.92979265452E+02  0.91097583257E+02 0.  0.
        -11    1    3    3    0    0 -0.28883957962E+01 -0.37073693312E+02  0.10299971347E+03  0.10950681505E+03  0.00000000000E+00 0.  1.
         11    1    3    3    0    0  0.14065732712E+02  0.40436230203E+02  0.29214028748E+02  0.51830425674E+02  0.00000000000E+00 0. -1.
        -11    1    4    4    0    0 -0.32152663018E+02  0.24147342036E+02 -0.21913056042E+02  0.45793775687E+02  0.00000000000E+00 0. -1.
         11    1    4    4    0    0  0.33433214915E+02 -0.32838635388E+02  0.55058705622E+01  0.47185489765E+02  0.00000000000E+00 0.  1.
         21    1    1    2  503  501  0.56165762715E+01 -0.40569352669E+02  0.31281005483E+03  0.31547987053E+03  0.00000000000E+00 0.  1.
          4    1    1    2  501    0 -0.18074465085E+02  0.45898109130E+02  0.44488890545E+02  0.66427284242E+02  0.00000000000E+00 0. -1.
<scales pt_clust_5="13000.00000" pt_clust_6="13000.00000" pt_clust_7="13000.00000" pt_clust_8="13000.00000" pt_clust_9="40.95630" pt_clust_10="13000.00000"></scales>
<clustering>
<clus scale="   40.956">  1  9  2 -1</clus>
<clus scale="   91.098">  7  8 -1 -1</clus>
<clus scale="   40.212">  7 10 -1 -1</clus>
<clus scale="   91.722">  5  6 -1 -1</clus>
<clus scale="   95.310">  2  5  1 -1</clus>
<clus scale="   40.956">  1  5  2 -1</clus>
</clustering>
</event>
<event>
10    2  0.4951045E-006  0.5351548E+03  0.7546771E-02  0.1063501E+00
         21   -1    0    0  501  502  0.00000000000E+00  0.00000000000E+00  0.40624019782E+03  0.40624019782E+03  0.00000000000E+00 0.  1.
          2   -1    0    0  503    0 -0.00000000000E+00 -0.00000000000E+00 -0.98395007243E+03  0.98395007243E+03  0.00000000000E+00 0. -1.
         23    2    1    2    0    0 -0.63343808501E+01  0.27636630230E+02  0.19459074853E+02  0.97490370208E+02  0.91223949585E+02 0.  0.
         23    2    1    2    0    0  0.25631354451E+03 -0.66500106770E+02 -0.41189538817E+03  0.49906409893E+03  0.96375654323E+02 0.  0.
        -11    1    4    4    0    0  0.13930424947E+03 -0.82808791641E+02 -0.26404222851E+03  0.30980843812E+03  0.00000000000E+00 0. -1.
         11    1    4    4    0    0  0.11700929504E+03  0.16308684871E+02 -0.14785315967E+03  0.18925566082E+03  0.00000000000E+00 0.  1.
        -13    1    3    3    0    0 -0.26443172135E+02 -0.14986273702E+02  0.36389441689E+02  0.47413302126E+02  0.00000000000E+00 0. -1.
         13    1    3    3    0    0  0.20108791285E+02  0.42622903931E+02 -0.16930366836E+02  0.50077068082E+02  0.00000000000E+00 0.  1.
         21    1    1    2  503  502 -0.45574684399E+03  0.17666752807E+03 -0.76110708770E+01  0.48885021191E+03  0.00000000000E+00 0.  1.
          2    1    1    2  501    0  0.20576768033E+03 -0.13780405153E+03 -0.17766249041E+03  0.30478558921E+03  0.00000000000E+00 0. -1.
<scales pt_clust_5="13000.00000" pt_clust_6="13000.00000" pt_clust_7="13000.00000" pt_clust_8="13000.00000" pt_clust_9="493.00512" pt_clust_10="13000.00000"></scales>
<clustering>
<clus scale="   91.224">  7  8 -1 -1</clus>
<clus scale="   95.529">  2  7  1 -1</clus>
<clus scale="   96.376">  5  6 -1 -1</clus>
<clus scale="  242.431">  5 10 -1 -1</clus>
<clus scale="  493.005">  1  9  2 -1</clus>
<clus scale="  493.005">  1  5  2 -1</clus>
</clustering>
</event>
<event>
10    2  0.4951045E-006  0.3946848E+03  0.7546771E-02  0.1082664E+00
         21   -1    0    0  501  502  0.00000000000E+00  0.00000000000E+00  0.23964740948E+03  0.23964740948E+03  0.00000000000E+00 0. -1.
          4   -1    0    0  503    0 -0.00000000000E+00 -0.00000000000E+00 -0.95217437938E+03  0.95217437938E+03  0.00000000000E+00 0. -1.
         23    2    1    2    0    0  0.64708865995E+02  0.42904491382E+02 -0.38236127655E+03  0.40722661183E+03  0.11664190866E+03 0.  0.
         23    2    1    2    0    0 -0.16719443170E+03 -0.50867824279E+02 -0.47272893157E+03  0.51246849115E+03  0.92788997962E+02 0.  0.
        -13    1    3    3    0    0  0.43179609600E+02  0.81033812526E+02 -0.30275224656E+03  0.31636984726E+03  0.00000000000E+00 0. -1.
         13    1    3    3    0    0  0.21529256395E+02 -0.38129321144E+02 -0.79609029989E+02  0.90856764567E+02  0.00000000000E+00 0.  1.
        -13    1    4    4    0    0 -0.10490518567E+03 -0.48438895947E+02 -0.18543333553E+03  0.21848786361E+03  0.00000000000E+00 0.  1.
         13    1    4    4    0    0 -0.62289246032E+02 -0.24289283316E+01 -0.28729559604E+03  0.29398062754E+03  0.00000000000E+00 0. -1.
         21    1    1    2  503  502 -0.84291385012E+01  0.33201590140E+02  0.15403674190E+03  0.15779960018E+03  0.00000000000E+00 0. -1.
          4    1    1    2  501    0  0.11091470421E+03 -0.25238257243E+02 -0.11473503676E+02  0.11432708570E+03  0.00000000000E+00 0. -1.
<scales pt_clust_5="13000.00000" pt_clust_6="13000.00000" pt_clust_7="13000.00000" pt_clust_8="13000.00000" pt_clust_9="34.25487" pt_clust_10="13000.00000"></scales>
<clustering>
<clus scale="   34.255">  1  9  2 -1</clus>
<clus scale="   92.789">  7  8 -1 -1</clus>
<clus scale="  105.849">  7 10 -1 -1</clus>
<clus scale="  116.642">  5  6 -1 -1</clus>
<clus scale="  141.139">  2  5  1 -1</clus>
<clus scale="   34.255">  1  5  2 -1</clus>
</clustering>
</event>
<event>
10    2  0.4951045E-006  0.7170912E+03  0.7546771E-02  0.1028951E+00
          1   -1    0    0  503    0 -0.00000000000E+00  0.00000000000E+00  0.11363607796E+04  0.11363607796E+04  0.00000000000E+00 0. -1.
         21   -1    0    0  501  502  0.00000000000E+00 -0.00000000000E+00 -0.17844654771E+03  0.17844654771E+03  0.00000000000E+00 0. -1.
         23    2    1    2    0    0  0.44953627577E+02 -0.36441185157E+02  0.26291005778E+03  0.28368601538E+03  0.89483340537E+02 0.  0.
         23    2    1    2    0    0  0.69122339177E+02 -0.30255033581E+03  0.22028397188E+03  0.39116874083E+03  0.90406593027E+02 0.  0.
        -13    1    4    4    0    0  0.17326258451E+02 -0.59817669101E+02  0.47648779153E+01  0.62458440824E+02  0.00000000000E+00 0.  1.
         13    1    4    4    0    0  0.51796080726E+02 -0.24273266671E+03  0.21551909397E+03  0.32871030001E+03  0.00000000000E+00 0. -1.
        -13    1    3    3    0    0  0.17810209205E+02 -0.62011653607E+02  0.20405176832E+03  0.21400881498E+03  0.00000000000E+00 0. -1.
         13    1    3    3    0    0  0.27143418372E+02  0.25570468449E+02  0.58858289458E+02  0.69677200400E+02  0.00000000000E+00 0.  1.
         21    1    1    2  503  502  0.64926923822E+01 -0.20898723465E+02 -0.10209608779E+02  0.24148453538E+02  0.00000000000E+00 0. -1.
          1    1    1    2  501    0 -0.12056865914E+03  0.35989024444E+03  0.48492981100E+03  0.61580411756E+03  0.00000000000E+00 0. -1.
<scales pt_clust_5="13000.00000" pt_clust_6="13000.00000" pt_clust_7="13000.00000" pt_clust_8="13000.00000" pt_clust_9="21.88405" pt_clust_10="13000.00000"></scales>
<clustering>
<clus scale="   21.884">  2  9  1 -1</clus>
<clus scale="   89.483">  7  8 -1 -1</clus>
<clus scale="   90.407">  5  6 -1 -1</clus>
<clus scale="  107.209">  1  7  2 -1</clus>
<clus scale="  340.344">  5 10 -1 -1</clus>
<clus scale="   21.884">  2  5  1 -1</clus>
</clustering>
</event>
<event>
10    2  0.4951045E-006  0.1643091E+03  0.7546771E-02  0.1196570E+00
          2   -1    0    0  503    0 -0.00000000000E+00  0.00000000000E+00  0.20176988147E+03  0.20176988147E+03  0.00000000000E+00 0. -1.
         21   -1    0    0  501  502  0.00000000000E+00 -0.00000000000E+00 -0.37126344437E+03  0.37126344437E+03  0.00000000000E+00 0. -1.
         23    2    1    2    0    0 -0.48802039198E+02 -0.61450807538E+02  0.10562907414E+03  0.16038326937E+03  0.91692153493E+02 0.  0.
         23    2    1    2    0    0  0.73128317375E+02  0.14459585113E+02 -0.37965570251E+02  0.11399881328E+03  0.77443621439E+02 0.  0.
        -11    1    3    3    0    0 -0.56323620465E+02 -0.37648747131E+02  0.19191877858E+02  0.70413823633E+02  0.00000000000E+00 0. -1.
         11    1    3    3    0    0  0.75215812677E+01 -0.23802060407E+02  0.86437196286E+02  0.89969445737E+02  0.00000000000E+00 0.  1.
        -13    1    4    4    0    0  0.33429478804E+02  0.19408407520E+02 -0.57651787929E+02  0.69411418275E+02  0.00000000000E+00 0. -1.
         13    1    4    4    0    0  0.39698838571E+02 -0.49488224072E+01  0.19686217678E+02  0.44587395008E+02  0.00000000000E+00 0.  1.
         21    1    1    2  503  502 -0.18254877130E+02 -0.21257218966E+02 -0.22777728962E+03  0.22949423427E+03  0.00000000000E+00 0. -1.
          2    1    1    2  501    0 -0.60714010482E+01  0.68248441391E+02 -0.93797771793E+01  0.69157008921E+02  0.00000000000E+00 0. -1.
<scales pt_clust_5="13000.00000" pt_clust_6="13000.00000" pt_clust_7="13000.00000" pt_clust_8="13000.00000" pt_clust_9="28.01981" pt_clust_10="13000.00000"></scales>
<clustering>
<clus scale="   28.020">  2  9  1 -1</clus>
<clus scale="   77.444">  7  8 -1 -1</clus>
<clus scale="   63.375">  7 10 -1 -1</clus>
<clus scale="   91.692">  5  6 -1 -1</clus>
<clus scale="  124.249">  1  5  2 -1</clus>
<clus scale="   28.020">  2  5  1 -1</clus>
</clustering>
</event>
<event>
10    2  0.4951045E-006  0.2087131E+03  0.7546771E-02  0.1155509E+00
          2   -1    0    0  503    0 -0.00000000000E+00  0.00000000000E+00  0.82439713968E+03  0.82439713968E+03  0.00000000000E+00 0. -1.
         21   -1    0    0  501  502  0.00000000000E+00 -0.00000000000E+00 -0.13697958776E+03  0.13697958776E+03  0.00000000000E+00 0. -1.
         23    2    1    2    0    0 -0.83243929530E+02 -0.96470967106E+02  0.44615169786E+03  0.47311877643E+03  0.92486971038E+02 0.  0.
         23    2    1    2    0    0  0.27871646649E+02  0.72713347991E+02  0.31634548835E+03  0.34737605348E+03  0.12054706496E+03 0.  0.
        -11    1    3    3    0    0 -0.10354461369E+03 -0.83082037505E+02  0.38816704170E+03  0.41024110501E+03  0.00000000000E+00 0. -1.
         11    1    3    3    0    0  0.20300684159E+02 -0.13388929600E+02  0.57984656162E+02  0.62877671422E+02  0.00000000000E+00 0.  1.
        -11    1    4    4    0    0  0.62749210701E+02  0.17509101674E+01  0.11418711803E+03  0.13030436314E+03  0.00000000000E+00 0.  1.
         11    1    4    4    0    0 -0.34877564052E+02  0.70962437823E+02  0.20215837032E+03  0.21707169034E+03  0.00000000000E+00 0. -1.
         21    1    1    2  503  502  0.21615111469E+02  0.14613334695E+01 -0.93825373756E+02  0.96294077179E+02  0.00000000000E+00 0.  1.
          2    1    1    2  501    0  0.33757171413E+02  0.22296285645E+02  0.18745739456E+02  0.44587820345E+02  0.00000000000E+00 0. -1.
<scales pt_clust_5="13000.00000" pt_clust_6="13000.00000" pt_clust_7="13000.00000" pt_clust_8="13000.00000" pt_clust_9="21.66445" pt_clust_10="13000.00000"></scales>
<clustering>
<clus scale="   21.664">  2  9  1 -1</clus>
<clus scale="   92.487">  5  6 -1 -1</clus>
<clus scale="  120.547">  7  8 -1 -1</clus>
<clus scale="   46.381">  7 10 -1 -1</clus>
<clus scale="  153.592">  1  5  2 -1</clus>
<clus scale="   21.664">  2  5  1 -1</clus>
</clustering>
</event>
<event>
10    2  0.4951045E-006  0.2163233E+03  0.7546771E-02  0.1170578E+00
         21   -1    0    0  501  502  0.00000000000E+00  0.00000000000E+00  0.24849134860E+03  0.24849134860E+03  0.00000000000E+00 0. -1.
          2   -1    0    0  503    0 -0.00000000000E+00 -0.00000000000E+00 -0.39860528273E+03  0.39860528273E+03  0.00000000000E+00 0. -1.
         23    2    1    2    0    0 -0.19507588014E+02 -0.25422018137E+02 -0.29506031604E+03  0.31058819314E+03  0.91529288335E+02 0.  0.
         23    2    1    2    0    0  0.31793361422E+02 -0.22085862336E+02 -0.22896036867E+02  0.10399015512E+03  0.93760976483E+02 0.  0.
        -11    1    3    3    0    0  0.24439597202E+02  0.18008711072E+02 -0.56304847054E+02  0.63967518223E+02  0.00000000000E+00 0.  1.
         11    1    3    3    0    0 -0.43947185217E+02 -0.43430729209E+02 -0.23875546898E+03  0.24662067492E+03  0.00000000000E+00 0. -1.
        -13    1    4    4    0    0 -0.28809257814E+02 -0.70911393641E+01 -0.28715140540E+02  0.41289428302E+02  0.00000000000E+00 0.  1.
         13    1    4    4    0    0  0.60602619237E+02 -0.14994722972E+02  0.58191036728E+01  0.62700726813E+02  0.00000000000E+00 0. -1.
         21    1    1    2  503  502  0.29436874444E+02 -0.44854279930E+02  0.89789148835E+02  0.10459697536E+03  0.00000000000E+00 0. -1.
          2    1    1    2  501    0 -0.41722647852E+02  0.92362160403E+02  0.78053269940E+02  0.12792130771E+03  0.00000000000E+00 0. -1.
<scales pt_clust_5="13000.00000" pt_clust_6="13000.00000" pt_clust_7="13000.00000" pt_clust_8="13000.00000" pt_clust_9="53.65106" pt_clust_10="13000.00000"></scales>
<clustering>
<clus scale="   53.651">  1  9  2 -1</clus>
<clus scale="   91.529">  5  6 -1 -1</clus>
<clus scale="   93.761">  7  8 -1 -1</clus>
<clus scale="   65.523">  7 10 -1 -1</clus>
<clus scale="   97.314">  2  5  1 -1</clus>
<clus scale="   53.651">  1  5  2 -1</clus>
</clustering>
</event>
<event>
10    2  0.4951045E-006  0.4245016E+03  0.7546771E-02  0.1053766E+00
          2   -1    0    0  503    0 -0.00000000000E+00  0.00000000000E+00  0.34328430691E+03  0.34328430691E+03  0.00000000000E+00 0. -1.
         21   -1    0    0  501  502  0.00000000000E+00 -0.00000000000E+00 -0.80790031988E+03  0.80790031988E+03  0.00000000000E+00 0. -1.
         23    2    1    2    0    0 -0.21624826780E+03  0.93695116677E+02  0.21097190309E+03  0.32903413374E+03  0.90621349885E+02 0.  0.
         23    2    1    2    0    0  0.53294911359E+02  0.12022014262E+03 -0.11255523924E+03  0.19170824828E+03  0.82402307687E+02 0.  0.
        -11    1    4    4    0    0 -0.20522722115E+02  0.11235214925E+02 -0.13947509266E+02  0.27238670895E+02  0.00000000000E+00 0. -1.
         11    1    4    4    0    0  0.73817633474E+02  0.10898492769E+03 -0.98607729974E+02  0.16446957739E+03  0.00000000000E+00 0.  1.
        -11    1    3    3    0    0 -0.18212913736E+03  0.55544787590E+02  0.12124366789E+03  0.22573496208E+03  0.00000000000E+00 0. -1.
         11    1    3    3    0    0 -0.34119130436E+02  0.38150329087E+02  0.89728235203E+02  0.10329917165E+03  0.00000000000E+00 0.  1.
         21    1    1    2  503  502 -0.50218093034E+01 -0.43899426837E+02 -0.10142992546E+03  0.11063637749E+03  0.00000000000E+00 0.  1.
          2    1    1    2  501    0  0.16797516574E+03 -0.17001583246E+03 -0.46160275135E+03  0.51980586727E+03  0.00000000000E+00 0. -1.
<scales pt_clust_5="13000.00000" pt_clust_6="13000.00000" pt_clust_7="13000.00000" pt_clust_8="13000.00000" pt_clust_9="44.18572" pt_clust_10="13000.00000"></scales>
<clustering>
<clus scale="   44.186">  2  9  1 -1</clus>
<clus scale="   82.402">  5  6 -1 -1</clus>
<clus scale="   90.621">  7  8 -1 -1</clus>
<clus scale="  251.513">  1  7  2 -1</clus>
<clus scale="  167.285">  5 10 -1 -1</clus>
<clus scale="   44.186">  2  5  1 -1</clus>
</clustering>
</event>
<event>
10    2  0.4951045E-006  0.1467450E+03  0.7546771E-02  0.1224071E+00
          1   -1    0    0  502    0 -0.00000000000E+00  0.00000000000E+00  0.51394108649E+03  0.51394108649E+03  0.00000000000E+00 0. -1.
         21   -1    0    0  503  502  0.00000000000E+00 -0.00000000000E+00 -0.11127210564E+03  0.11127210564E+03  0.00000000000E+00 0.  1.
         23    2    1    2    0    0  0.12958479797E+01  0.30747119755E+02  0.21547157591E+03  0.23683393220E+03  0.93355486290E+02 0.  0.
         23    2    1    2    0    0 -0.32456077946E+02 -0.16886594962E+02  0.18779517465E+03  0.21165303087E+03  0.90506484689E+02 0.  0.
        -11    1    4    4    0    0 -0.18853000935E+02  0.22032762454E+02  0.15836593906E+03  0.16099890969E+03  0.00000000000E+00 0. -1.
         11    1    4    4    0    0 -0.13603077011E+02 -0.38919357416E+02  0.29429235589E+02  0.50654121187E+02  0.00000000000E+00 0.  1.
        -13    1    3    3    0    0 -0.15696759861E+02 -0.30719469007E+02  0.72988482422E+02  0.80730369827E+02  0.00000000000E+00 0.  1.
         13    1    3    3    0    0  0.16992607840E+02  0.61466588762E+02  0.14248309349E+03  0.15610356238E+03  0.00000000000E+00 0. -1.
         21    1    1    2  503  501  0.70398493911E+02 -0.56075870106E+02 -0.48090349961E+02  0.10204475936E+03  0.00000000000E+00 0.  1.
          1    1    1    2  501    0 -0.39238263945E+02  0.42215345313E+02  0.47492580247E+02  0.74681469695E+02  0.00000000000E+00 0. -1.
<scales pt_clust_5="13000.00000" pt_clust_6="13000.00000" pt_clust_7="13000.00000" pt_clust_8="13000.00000" pt_clust_9="90.00251" pt_clust_10="13000.00000"></scales>
<clustering>
<clus scale="   90.003">  2  9  1 -1</clus>
<clus scale="   90.506">  5  6 -1 -1</clus>
<clus scale="   24.732">  5 10 -1 -1</clus>
<clus scale="   93.355">  7  8 -1 -1</clus>
<clus scale="   96.973">  1  7  2 -1</clus>
<clus scale="   90.003">  2  5  1 -1</clus>
</clustering>
</event>
<event>
10    2  0.4951045E-006  0.7789299E+03  0.7546771E-02  0.9743779E-01
         -1   -1    0    0    0  501 -0.00000000000E+00  0.00000000000E+00  0.86699227387E+03  0.86699227387E+03  0.00000000000E+00 0.  1.
         21   -1    0    0  503  502  0.00000000000E+00 -0.00000000000E+00 -0.80366218806E+03  0.80366218806E+03  0.00000000000E+00 0.  1.
         23    2    1    2    0    0  0.25824638490E+03 -0.37821581371E+03  0.50191811943E+03  0.68614394779E+03  0.95568412283E+02 0.  0.
         23    2    1    2    0    0  0.12302705076E+03  0.35225455876E+03 -0.12731433748E+03  0.40464300676E+03  0.91148741104E+02 0.  0.
        -11    1    3    3    0    0  0.19294568669E+03 -0.25079910341E+03  0.28274510736E+03  0.42435011962E+03  0.00000000000E+00 0.  1.
         11    1    3    3    0    0  0.65300698208E+02 -0.12741671030E+03  0.21917301207E+03  0.26179382817E+03  0.00000000000E+00 0. -1.
        -13    1    4    4    0    0 -0.16384515323E+01  0.80702582702E+02 -0.23222361302E+01  0.80752610848E+02  0.00000000000E+00 0. -1.
         13    1    4    4    0    0  0.12466550230E+03  0.27155197605E+03 -0.12499210135E+03  0.32389039591E+03  0.00000000000E+00 0.  1.
         21    1    1    2  503  501  0.37930956051E+01  0.26650698841E+02 -0.16622002748E+03  0.16838570265E+03  0.00000000000E+00 0. -1.
         -1    1    1    2    0  502 -0.38506653127E+03 -0.68944388471E+00 -0.14505366866E+03  0.41148180473E+03  0.00000000000E+00 0.  1.
<scales pt_clust_5="13000.00000" pt_clust_6="13000.00000" pt_clust_7="13000.00000" pt_clust_8="13000.00000" pt_clust_9="26.91927" pt_clust_10="13000.00000"></scales>
<clustering>
<clus scale="   26.919">  2  9  1 -1</clus>
<clus scale="   91.149">  7  8 -1 -1</clus>
<clus scale="   95.568">  5  6 -1 -1</clus>
<clus scale="  383.565">  7 10 -1 -1</clus>
<clus scale="  465.029">  1  5  2 -1</clus>
<clus scale="   26.919">  2  5  1 -1</clus>
</clustering>
</event>
<event>
10    2  0.4951045E-006  0.1476599E+03  0.7546771E-02  0.1224404E+00
         21   -1    0    0  501  502  0.00000000000E+00  0.00000000000E+00  0.64246535324E+02  0.64246535324E+02  0.00000000000E+00 0.  1.
          2   -1    0    0  503    0 -0.00000000000E+00 -0.00000000000E+00 -0.87155053429E+03  0.87155053429E+03  0.00000000000E+00 0. -1.
         23    2    1    2    0    0 -0.10493969999E+02  0.91707369050E+01 -0.35596727785E+03  0.36809732520E+03  0.92675304694E+02 0.  0.
         23    2    1    2    0    0  0.59510832008E+01 -0.38317318249E+01 -0.34271100053E+03  0.35489099340E+03  0.91905874435E+02 0.  0.
        -11    1    4    4    0    0 -0.23876383517E+02 -0.39206938181E+02 -0.17158568166E+03  0.17762013355E+03  0.00000000000E+00 0.  1.
         11    1    4    4    0    0  0.29827466717E+02  0.35375206356E+02 -0.17112531886E+03  0.17727085985E+03  0.00000000000E+00 0. -1.
        -13    1    3    3    0    0 -0.24248267499E+01 -0.37248127584E+02 -0.81838043706E+02  0.89948697550E+02  0.00000000000E+00 0. -1.
         13    1    3    3    0    0 -0.80691432494E+01  0.46418864489E+02 -0.27412923414E+03  0.27814862765E+03  0.00000000000E+00 0.  1.
         21    1    1    2  503  502  0.58036105461E+02  0.23150547725E+02  0.24045223685E+02  0.66950057349E+02  0.00000000000E+00 0.  1.
          2    1    1    2  501    0 -0.53493218662E+02 -0.28489552805E+02 -0.13267094428E+03  0.14585869367E+03  0.00000000000E+00 0. -1.
<scales pt_clust_5="13000.00000" pt_clust_6="13000.00000" pt_clust_7="13000.00000" pt_clust_8="13000.00000" pt_clust_9="62.48310" pt_clust_10="13000.00000"></scales>
<clustering>
<clus scale="   62.483">  1  9  2 -1</clus>
<clus scale="   91.906">  5  6 -1 -1</clus>
<clus scale="   38.839">  5 10 -1 -1</clus>
<clus scale="   92.675">  7  8 -1 -1</clus>
<clus scale="   94.524">  2  7  1 -1</clus>
<clus scale="   62.483">  1  5  2 -1</clus>
</clustering>
</event>
<event>
10    2  0.4951045E-006  0.3223699E+03  0.7546771E-02  0.1115143E+00
         -3   -1    0    0    0  501 -0.00000000000E+00  0.00000000000E+00  0.97852115970E+03  0.97852115970E+03  0.00000000000E+00 0.  1.
         21   -1    0    0  501  502  0.00000000000E+00 -0.00000000000E+00 -0.85033977810E+02  0.85033977810E+02  0.00000000000E+00 0. -1.
         23    2    1    2    0    0  0.15709085477E+02  0.50892993008E+02  0.23675520535E+03  0.26094419698E+03  0.95926923096E+02 0.  0.
         23    2    1    2    0    0 -0.56086840987E+02  0.10235142518E+03  0.45321265929E+03  0.47670293729E+03  0.90677604250E+02 0.  0.
        -11    1    3    3    0    0 -0.35892225918E+02  0.37242532804E+02  0.15413610678E+03  0.16258289437E+03  0.00000000000E+00 0.  1.
         11    1    3    3    0    0  0.51601311396E+02  0.13650460204E+02  0.82619098569E+02  0.98361302604E+02  0.00000000000E+00 0. -1.
        -13    1    4    4    0    0 -0.52481793345E+02  0.25415361347E+02  0.29537470323E+03  0.30107556283E+03  0.00000000000E+00 0.  1.
         13    1    4    4    0    0 -0.36050476420E+01  0.76936063834E+02  0.15783795605E+03  0.17562737446E+03  0.00000000000E+00 0. -1.
         21    1    1    2  503  502  0.21845787799E+02  0.57628528263E+01 -0.33189547041E+02  0.40149656910E+02  0.00000000000E+00 0. -1.
         -3    1    1    2    0  503  0.18531967710E+02 -0.15900727101E+03  0.23670886430E+03  0.28575834634E+03  0.00000000000E+00 0.  1.
<scales pt_clust_5="13000.00000" pt_clust_6="13000.00000" pt_clust_7="13000.00000" pt_clust_8="13000.00000" pt_clust_9="22.59312" pt_clust_10="13000.00000"></scales>
<clustering>
<clus scale="   22.593">  2  9  1 -1</clus>
<clus scale="   90.678">  7  8 -1 -1</clus>
<clus scale="   95.927">  5  6 -1 -1</clus>
<clus scale="  111.306">  1  5  2 -1</clus>
<clus scale="  142.186">  7 10 -1 -1</clus>
<clus scale="   22.593">  2  5  1 -1</clus>
</clustering>
</event>
<event>
10    2  0.4951045E-006  0.4561449E+03  0.7546771E-02  0.1081500E+00
         21   -1    0    0  503  502  0.00000000000E+00  0.00000000000E+00  0.11984540508E+03  0.11984540508E+03  0.00000000000E+00 0. -1.
          1   -1    0    0  502    0 -0.00000000000E+00 -0.00000000000E+00 -0.82156066498E+03  0.82156066498E+03  0.00000000000E+00 0. -1.
         23    2    1    2    0    0  0.17231555788E+02 -0.10561845086E+02 -0.22762166254E+03  0.24615497504E+03  0.91499570470E+02 0.  0.
         23    2    1    2    0    0 -0.25131373179E+03 -0.18520547641E+02 -0.27573070018E+03  0.38466933252E+03  0.91877493906E+02 0.  0.
        -11    1    3    3    0    0  0.19554631589E+02  0.39119211443E+02 -0.97839961303E+02  0.10716974549E+03  0.00000000000E+00 0. -1.
         11    1    3    3    0    0 -0.23230758008E+01 -0.49681056529E+02 -0.12978170123E+03  0.13898522955E+03  0.00000000000E+00 0.  1.
        -11    1    4    4    0    0 -0.16120419778E+03  0.22675302197E+02 -0.21025299035E+03  0.26590841029E+03  0.00000000000E+00 0. -1.
         11    1    4    4    0    0 -0.90109534015E+02 -0.41195849838E+02 -0.65477709826E+02  0.11876092223E+03  0.00000000000E+00 0.  1.
         21    1    1    2  503  501  0.43542909428E+02  0.16033580332E+02 -0.25307307777E+02  0.52853765113E+02  0.00000000000E+00 0.  1.
          1    1    1    2  501    0  0.19053926657E+03  0.13048812395E+02 -0.17305558941E+03  0.25772799739E+03  0.00000000000E+00 0. -1.
<scales pt_clust_5="13000.00000" pt_clust_6="13000.00000" pt_clust_7="13000.00000" pt_clust_8="13000.00000" pt_clust_9="46.40108" pt_clust_10="13000.00000"></scales>
<clustering>
<clus scale="   46.401">  1  9  2 -1</clus>
<clus scale="   91.500">  5  6 -1 -1</clus>
<clus scale="   91.877">  7  8 -1 -1</clus>
<clus scale="   94.332">  2  5  1 -1</clus>
<clus scale="  218.516">  7 10 -1 -1</clus>
<clus scale="   46.401">  1  5  2 -1</clus>
</clustering>
</event>
<event>
10    2  0.4951045E-006  0.4306266E+03  0.7546771E-02  0.1052432E+00
          2   -1    0    0  502    0 -0.00000000000E+00  0.00000000000E+00  0.17905331094E+04  0.17905331094E+04  0.00000000000E+00 0. -1.
         21   -1    0    0  503  502  0.00000000000E+00 -0.00000000000E+00 -0.87581090604E+02  0.87581090604E+02  0.00000000000E+00 0. -1.
         23    2    1    2    0    0 -0.68698995591E+02  0.21595548509E+03  0.67805841511E+03  0.72003684107E+03  0.85635942591E+02 0.  0.
         23    2    1    2    0    0  0.17635069078E+03 -0.23396662518E+03  0.53256015837E+03  0.61465008340E+03  0.91293235769E+02 0.  0.
        -13    1    4    4    0    0  0.24163342120E+02  0.39151946831E+01  0.41913621103E+02  0.48538103442E+02  0.00000000000E+00 0.  1.
         13    1    4    4    0    0  0.15218734866E+03 -0.23788181986E+03  0.49064653727E+03  0.56611197995E+03  0.00000000000E+00 0. -1.
        -13    1    3    3    0    0 -0.19297615888E+02  0.16781030490E+03  0.41440899220E+03  0.44751257996E+03  0.00000000000E+00 0.  1.
         13    1    3    3    0    0 -0.49401379703E+02  0.48145180195E+02  0.26364942291E+03  0.27252426111E+03  0.00000000000E+00 0. -1.
         21    1    1    2  503  501 -0.18917056242E+02  0.21890112600E+02 -0.12008056928E+02  0.31324518794E+02  0.00000000000E+00 0. -1.
          2    1    1    2  501    0 -0.88734638950E+02 -0.38789725155E+01  0.50434150227E+03  0.51210275677E+03  0.00000000000E+00 0. -1.
<scales pt_clust_5="13000.00000" pt_clust_6="13000.00000" pt_clust_7="13000.00000" pt_clust_8="13000.00000" pt_clust_9="28.93151" pt_clust_10="13000.00000"></scales>
<clustering>
<clus scale="   28.932">  2  9  1 -1</clus>
<clus scale="   85.636">  7  8 -1 -1</clus>
<clus scale="   91.293">  5  6 -1 -1</clus>
<clus scale="   89.886">  5 10 -1 -1</clus>
<clus scale="  250.226">  1  7  2 -1</clus>
<clus scale="   28.932">  2  5  1 -1</clus>
</clustering>
</event>
<event>
10    2  0.4951045E-006  0.2078273E+03  0.7546771E-02  0.1169090E+00
         21   -1    0    0  501  502  0.00000000000E+00  0.00000000000E+00  0.18223578630E+02  0.18223578630E+02  0.00000000000E+00 0. -1.
          2   -1    0    0  503    0 -0.00000000000E+00 -0.00000000000E+00 -0.16455637038E+04  0.16455637038E+04  0.00000000000E+00 0. -1.
         23    2    1    2    0    0 -0.10300721376E+02  0.71158072407E+02 -0.56848573860E+03  0.58008157415E+03  0.90271931098E+02 0.  0.
         23    2    1    2    0    0  0.32073488921E+02 -0.11368492040E+03 -0.71086643062E+03  0.72675843359E+03  0.94306780267E+02 0.  0.
        -11    1    4    4    0    0 -0.18297763160E+02 -0.96053410114E+02 -0.46197108214E+03  0.47220583061E+03  0.00000000000E+00 0. -1.
         11    1    4    4    0    0  0.50371252081E+02 -0.17631510287E+02 -0.24889534848E+03  0.25455260298E+03  0.00000000000E+00 0.  1.
        -13    1    3    3    0    0  0.39227340546E+02  0.21838359914E+02 -0.25215726062E+03  0.25612298275E+03  0.00000000000E+00 0.  1.
         13    1    3    3    0    0 -0.49528061922E+02  0.49319712494E+02 -0.31632847798E+03  0.32395859140E+03  0.00000000000E+00 0. -1.
         21    1    1    2  503  502 -0.20071183539E+02 -0.12996494642E+02 -0.10205101950E+03  0.10481494103E+03  0.00000000000E+00 0. -1.
          2    1    1    2  501    0 -0.17015840063E+01  0.55523342636E+02 -0.24593693647E+03  0.25213233368E+03  0.00000000000E+00 0. -1.
<scales pt_clust_5="13000.00000" pt_clust_6="13000.00000" pt_clust_7="13000.00000" pt_clust_8="13000.00000" pt_clust_9="23.91153" pt_clust_10="13000.00000"></scales>
<clustering>
<clus scale="   23.912">  1  9  2 -1</clus>
<clus scale="   90.272">  7  8 -1 -1</clus>
<clus scale="   94.307">  5  6 -1 -1</clus>
<clus scale="   53.406">  5 10 -1 -1</clus>
<clus scale="  113.543">  2  7  1 -1</clus>
<clus scale="   23.912">  1  5  2 -1</clus>
</clustering>
</event>
<event>
10    2  0.4951045E-006  0.2917519E+03  0.7546771E-02  0.1120962E+00
         -1   -1    0    0    0  501 -0.00000000000E+00  0.00000000000E+00  0.33129705399E+03  0.33129705399E+03  0.00000000000E+00 0.  1.
         21   -1    0    0  501  502  0.00000000000E+00 -0.00000000000E+00 -0.18851692111E+03  0.18851692111E+03  0.00000000000E+00 0.  1.
         23    2    1    2    0    0  0.33007702653E+02  0.81070858761E+02  0.47014283603E+02  0.13521193737E+03  0.91705684508E+02 0.  0.
         23    2    1    2    0    0 -0.13908460005E+03  0.63006886830E+01  0.11591998224E+03  0.20336874951E+03  0.92396868690E+02 0.  0.
        -11    1    3    3    0    0 -0.55035539574E+01  0.73602699684E+02  0.58672710773E+02  0.94287504455E+02  0.00000000000E+00 0.  1.
         11    1    3    3    0    0  0.38511256610E+02  0.74681590775E+01 -0.11658427170E+02  0.40924432919E+02  0.00000000000E+00 0. -1.
        -13    1    4    4    0    0 -0.12764804991E+03  0.33923414933E+02  0.72550311631E+02  0.15069296746E+03  0.00000000000E+00 0.  1.
         13    1    4    4    0    0 -0.11436550143E+02 -0.27622726250E+02  0.43369670613E+02  0.52675782042E+02  0.00000000000E+00 0. -1.
         21    1    1    2  503  502  0.24301377361E+02  0.34067719275E+01 -0.49791643479E+02  0.55510096351E+02  0.00000000000E+00 0.  1.
         -1    1    1    2    0  503  0.81775520035E+02 -0.90778319372E+02  0.29637510506E+02  0.12572319187E+03  0.00000000000E+00 0.  1.
<scales pt_clust_5="13000.00000" pt_clust_6="13000.00000" pt_clust_7="13000.00000" pt_clust_8="13000.00000" pt_clust_9="24.53901" pt_clust_10="13000.00000"></scales>
<clustering>
<clus scale="   24.539">  2  9  1 -1</clus>
<clus scale="   91.706">  5  6 -1 -1</clus>
<clus scale="   92.397">  7  8 -1 -1</clus>
<clus scale="  127.240">  7 10 -1 -1</clus>
<clus scale="  129.751">  1  5  2 -1</clus>
<clus scale="   24.539">  2  5  1 -1</clus>
</clustering>
</event>
<event>
10    2  0.4951045E-006  0.3349103E+03  0.7546771E-02  0.1102319E+00
          1   -1    0    0  503    0 -0.00000000000E+00  0.00000000000E+00  0.60012649992E+03  0.60012649992E+03  0.00000000000E+00 0. -1.
         21   -1    0    0  501  502  0.00000000000E+00 -0.00000000000E+00 -0.20046219770E+03  0.20046219770E+03  0.00000000000E+00 0.  1.
         23    2    1    2    0    0 -0.95341756595E+02 -0.32070295236E+02  0.88343783271E+02  0.16322178256E+03  0.93371151181E+02 0.  0.
         23    2    1    2    0    0  0.45280182893E+02  0.28370938827E+02  0.45299787433E+03  0.46515265461E+03  0.91130197018E+02 0.  0.
        -11    1    4    4    0    0  0.67588147488E+02  0.41811648624E+02  0.35051818779E+03  0.35941531912E+03  0.00000000000E+00 0. -1.
         11    1    4    4    0    0 -0.22307964595E+02 -0.13440709797E+02  0.10247968654E+03  0.10573733549E+03  0.00000000000E+00 0.  1.
        -11    1    3    3    0    0 -0.27143133764E+02 -0.25762500722E+02  0.87012988407E+02  0.94719144345E+02  0.00000000000E+00 0. -1.
         11    1    3    3    0    0 -0.68198622831E+02 -0.63077945144E+01  0.13307948643E+01  0.68502638217E+02  0.00000000000E+00 0.  1.
         21    1    1    2  503  502  0.10687692875E+02 -0.30716547303E+02 -0.10056655429E+03  0.10569467773E+03  0.00000000000E+00 0.  1.
          1    1    1    2  501    0  0.39373880827E+02  0.34415903713E+02 -0.41110801085E+02  0.66519582723E+02  0.00000000000E+00 0. -1.
<scales pt_clust_5="13000.00000" pt_clust_6="13000.00000" pt_clust_7="13000.00000" pt_clust_8="13000.00000" pt_clust_9="32.52281" pt_clust_10="13000.00000"></scales>
<clustering>
<clus scale="   32.523">  2  9  1 -1</clus>
<clus scale="   91.130">  5  6 -1 -1</clus>
<clus scale="   48.523">  5 10 -1 -1</clus>
<clus scale="   93.371">  7  8 -1 -1</clus>
<clus scale="  137.721">  1  7  2 -1</clus>
<clus scale="   32.523">  2  5  1 -1</clus>
</clustering>
</event>
<event>
10    2  0.4951045E-006  0.2526388E+03  0.7546771E-02  0.1121790E+00
          1   -1    0    0  502    0 -0.00000000000E+00  0.00000000000E+00  0.53208314100E+03  0.53208314100E+03  0.00000000000E+00 0. -1.
         21   -1    0    0  503  502  0.00000000000E+00 -0.00000000000E+00 -0.26339136268E+03  0.26339136268E+03  0.00000000000E+00 0. -1.
         23    2    1    2    0    0  0.16509733535E+03  0.39478722840E+02 -0.93970664988E+02  0.21383178474E+03  0.89876841242E+02 0.  0.
         23    2    1    2    0    0 -0.47882202145E+02  0.13986409015E+02  0.23127847767E+03  0.25333034973E+03  0.90543950353E+02 0.  0.
        -13    1    3    3    0    0  0.15073048983E+03  0.63805785093E+02 -0.77141004744E+02  0.18094638263E+03  0.00000000000E+00 0. -1.
         13    1    3    3    0    0  0.14366845525E+02 -0.24327062253E+02 -0.16829660244E+02  0.32885402113E+02  0.00000000000E+00 0.  1.
        -13    1    4    4    0    0 -0.58233880917E+02  0.42740423367E+02  0.17425645739E+03  0.18863520779E+03  0.00000000000E+00 0. -1.
         13    1    4    4    0    0  0.10351678772E+02 -0.28754014351E+02  0.57022020276E+02  0.64695141943E+02  0.00000000000E+00 0.  1.
         21    1    1    2  503  501 -0.11104620581E+02  0.45671081750E+02 -0.67379455610E+02  0.82153218712E+02  0.00000000000E+00 0. -1.
          1    1    1    2  501    0 -0.10611051263E+03 -0.99136213605E+02  0.19876342126E+03  0.24615915049E+03  0.00000000000E+00 0. -1.
<scales pt_clust_5="13000.00000" pt_clust_6="13000.00000" pt_clust_7="13000.00000" pt_clust_8="13000.00000" pt_clust_9="47.00171" pt_clust_10="13000.00000"></scales>
<clustering>
<clus scale="   47.002">  2  9  1 -1</clus>
<clus scale="   89.877">  5  6 -1 -1</clus>
<clus scale="   90.544">  7  8 -1 -1</clus>
<clus scale="  142.410">  7 10 -1 -1</clus>
<clus scale="  195.742">  1  5  2 -1</clus>
<clus scale="   47.002">  2  5  1 -1</clus>
</clustering>
</event>
<event>
10    2  0.4951045E-006  0.1588882E+03  0.7546771E-02  0.1213291E+00
         -4   -1    0    0    0  501 -0.00000000000E+00  0.00000000000E+00  0.64795663111E+03  0.64795663111E+03  0.00000000000E+00 0.  1.
         21   -1    0    0  503  502  0.00000000000E+00 -0.00000000000E+00 -0.72134732170E+02  0.72134732170E+02  0.00000000000E+00 0.  1.
         23    2    1    2    0    0 -0.11649496194E+02  0.27721858788E+02  0.26219222527E+03  0.27988893914E+03  0.93213963801E+02 0.  0.
         23    2    1    2    0    0 -0.17295575666E+02 -0.27087921877E+02  0.29195545940E+03  0.30733675481E+03  0.90470979518E+02 0.  0.
        -11    1    3    3    0    0  0.25476408989E+02  0.42632537105E+02  0.86918108978E+02  0.10010663466E+03  0.00000000000E+00 0.  1.
         11    1    3    3    0    0 -0.37125905182E+02 -0.14910678317E+02  0.17527411629E+03  0.17978230448E+03  0.00000000000E+00 0. -1.
        -11    1    4    4    0    0 -0.18352300188E+02  0.27388246391E+02  0.17797238633E+03  0.18100025762E+03  0.00000000000E+00 0.  1.
         11    1    4    4    0    0  0.10567245216E+01 -0.54476168269E+02  0.11398307307E+03  0.12633649719E+03  0.00000000000E+00 0. -1.
         21    1    1    2  503  501 -0.10618904313E+02 -0.33531141777E+02 -0.39526026858E+02  0.52909407451E+02  0.00000000000E+00 0.  1.
         -4    1    1    2    0  502  0.39563976173E+02  0.32897204866E+02  0.61200241136E+02  0.79956261879E+02  0.00000000000E+00 0.  1.
<scales pt_clust_5="13000.00000" pt_clust_6="13000.00000" pt_clust_7="13000.00000" pt_clust_8="13000.00000" pt_clust_9="35.17241" pt_clust_10="13000.00000"></scales>
<clustering>
<clus scale="   35.172">  2  9  1 -1</clus>
<clus scale="   90.471">  7  8 -1 -1</clus>
<clus scale="   41.318">  7 10 -1 -1</clus>
<clus scale="   93.214">  5  6 -1 -1</clus>
<clus scale="   95.849">  1  5  2 -1</clus>
<clus scale="   35.172">  2  5  1 -1</clus>
</clustering>
</event>
<event>
10    2  0.4951045E-006  0.4156313E+03  0.7546771E-02  0.1066818E+00
         21   -1    0    0  503  502  0.00000000000E+00  0.00000000000E+00  0.13761305866E+04  0.13761305866E+04  0.00000000000E+00 0. -1.
          1   -1    0    0  502    0 -0.00000000000E+00 -0.00000000000E+00 -0.11584747188E+03  0.11584747188E+03  0.00000000000E+00 0. -1.
         23    2    1    2    0    0 -0.15440904535E+03 -0.46031574924E+02  0.40705609905E+02  0.18926879172E+03  0.90579631614E+02 0.  0.
         23    2    1    2    0    0 -0.41461571136E+01 -0.23676305219E+02  0.35934137222E+02  0.99143878990E+02  0.89221569565E+02 0.  0.
        -11    1    4    4    0    0 -0.34788171777E+01  0.30611971764E+02  0.32440770690E+02  0.44739228728E+02  0.00000000000E+00 0.  1.
         11    1    4    4    0    0 -0.66733993587E+00 -0.54288276983E+02  0.34933665328E+01  0.54404650262E+02  0.00000000000E+00 0. -1.
        -11    1    3    3    0    0 -0.62379181209E+02  0.48231751743E-01  0.57676677820E+02  0.84957423095E+02  0.00000000000E+00 0.  1.
         11    1    3    3    0    0 -0.92029864145E+02 -0.46079806675E+02 -0.16971067915E+02  0.10431136862E+03  0.00000000000E+00 0. -1.
         21    1    1    2  503  501 -0.67675421854E+01 -0.25993225853E+02  0.16340648328E+03  0.16559929407E+03  0.00000000000E+00 0. -1.
          1    1    1    2  501    0  0.16532274465E+03  0.95701105996E+02  0.10202368843E+04  0.10379660937E+04  0.00000000000E+00 0. -1.
<scales pt_clust_5="13000.00000" pt_clust_6="13000.00000" pt_clust_7="13000.00000" pt_clust_8="13000.00000" pt_clust_9="26.85977" pt_clust_10="13000.00000"></scales>
<clustering>
<clus scale="   26.860">  1  9  2 -1</clus>
<clus scale="   89.222">  5  6 -1 -1</clus>
<clus scale="   90.580">  7  8 -1 -1</clus>
<clus scale="  175.740">  5 10 -1 -1</clus>
<clus scale="  186.004">  2  7  1 -1</clus>
<clus scale="   26.860">  1  5  2 -1</clus>
</clustering>
</event>
<event>
10    2  0.4951045E-006  0.2956689E+03  0.7546771E-02  0.1123087E+00
          2   -1    0    0  503    0 -0.00000000000E+00  0.00000000000E+00  0.53496619376E+02  0.53496619376E+02  0.00000000000E+00 0. -1.
         21   -1    0    0  501  502  0.00000000000E+00 -0.00000000000E+00 -0.99701506711E+03  0.99701506711E+03  0.00000000000E+00 0.  1.
         23    2    1    2    0    0  0.74267870307E+02 -0.38025416233E+02 -0.29769626545E+03  0.32187194892E+03  0.89536786867E+02 0.  0.
         23    2    1    2    0    0 -0.16263650337E+03  0.44963777997E+02 -0.33740344525E+03  0.38815403719E+03  0.91378871521E+02 0.  0.
        -11    1    3    3    0    0  0.46657338393E+02 -0.67437742130E+02 -0.20340187639E+03  0.21931046398E+03  0.00000000000E+00 0. -1.
         11    1    3    3    0    0  0.27610531914E+02  0.29412325897E+02 -0.94294389054E+02  0.10256148495E+03  0.00000000000E+00 0.  1.
        -13    1    4    4    0    0 -0.11227154867E+03  0.19461507561E+02 -0.29873152497E+03  0.31972515530E+03  0.00000000000E+00 0.  1.
         13    1    4    4    0    0 -0.50364954701E+02  0.25502270436E+02 -0.38671920280E+02  0.68428881896E+02  0.00000000000E+00 0. -1.
         21    1    1    2  503  502 -0.82823736773E+01  0.22209247042E+02 -0.15520268287E+03  0.15700229661E+03  0.00000000000E+00 0. -1.
          2    1    1    2  501    0  0.96651006745E+02 -0.29147608806E+02 -0.15321605416E+03  0.18348340376E+03  0.00000000000E+00 0. -1.
<scales pt_clust_5="13000.00000" pt_clust_6="13000.00000" pt_clust_7="13000.00000" pt_clust_8="13000.00000" pt_clust_9="23.70334" pt_clust_10="13000.00000"></scales>
<clustering>
<clus scale="   23.703">  2  9  1 -1</clus>
<clus scale="   89.537">  5  6 -1 -1</clus>
<clus scale="   91.379">  7  8 -1 -1</clus>
<clus scale="   98.152">  7 10 -1 -1</clus>
<clus scale="  118.234">  1  5  2 -1</clus>
<clus scale="   23.703">  2  5  1 -1</clus>
</clustering>
</event>
<event>
10    2  0.4951045E-006  0.5973210E+03  0.7546771E-02  0.1029644E+00
         21   -1    0    0  501  502  0.00000000000E+00  0.00000000000E+00  0.43060096527E+03  0.43060096527E+03  0.00000000000E+00 0. -1.
          2   -1    0    0  503    0 -0.00000000000E+00 -0.00000000000E+00 -0.71512264344E+03  0.71512264344E+03  0.00000000000E+00 0. -1.
         23    2    1    2    0    0 -0.14573476228E+03 -0.39214625850E+02 -0.13162395699E+03  0.21981766713E+03  0.90656124512E+02 0.  0.
         23    2    1    2    0    0  0.28854809306E+03 -0.13731290024E+03 -0.53530375877E+02  0.33664414052E+03  0.91372543055E+02 0.  0.
        -13    1    3    3    0    0 -0.11333256933E+03 -0.24465367150E+02 -0.14143983087E+03  0.18288808386E+03  0.00000000000E+00 0. -1.
         13    1    3    3    0    0 -0.32402192948E+02 -0.14749258699E+02  0.98158738870E+01  0.36929583266E+02  0.00000000000E+00 0.  1.
        -13    1    4    4    0    0  0.20196837734E+02  0.54022391845E+01 -0.23143048827E+02  0.31188093107E+02  0.00000000000E+00 0.  1.
         13    1    4    4    0    0  0.26835125533E+03 -0.14271513943E+03 -0.30387327050E+02  0.30545604742E+03  0.00000000000E+00 0. -1.
         21    1    1    2  503  502 -0.35639314560E+02  0.10691027001E+02  0.21490812229E+03  0.21810538698E+03  0.00000000000E+00 0. -1.
          2    1    1    2  501    0 -0.10717401623E+03  0.16583649909E+03 -0.31427546760E+03  0.37115641409E+03  0.00000000000E+00 0. -1.
<scales pt_clust_5="13000.00000" pt_clust_6="13000.00000" pt_clust_7="13000.00000" pt_clust_8="13000.00000" pt_clust_9="37.20832" pt_clust_10="13000.00000"></scales>
<clustering>
<clus scale="   37.208">  1  9  2 -1</clus>
<clus scale="   90.656">  5  6 -1 -1</clus>
<clus scale="   91.373">  7  8 -1 -1</clus>
<clus scale="  181.716">  2  5  1 -1</clus>
<clus scale="  258.193">  7 10 -1 -1</clus>
<clus scale="   37.208">  1  5  2 -1</clus>
</clustering>
</event>
<event>
10    2  0.4951045E-006  0.6185469E+03  0.7546771E-02  0.1022306E+00
         21   -1    0    0  501  502  0.00000000000E+00  0.00000000000E+00  0.23445471730E+03  0.23445471730E+03  0.00000000000E+00 0. -1.
          1   -1    0    0  503    0 -0.00000000000E+00 -0.00000000000E+00 -0.16059013406E+04  0.16059013406E+04  0.00000000000E+00 0. -1.
         23    2    1    2    0    0  0.18180847650E+02 -0.18135505809E+03 -0.39454108546E+03  0.44407250946E+03  0.91200467246E+02 0.  0.
         23    2    1    2    0    0 -0.97009554072E+02 -0.14126760585E+03 -0.41364730424E+03  0.45699304132E+03  0.91494029644E+02 0.  0.
        -11    1    4    4    0    0 -0.26260926223E+02 -0.26138591691E+02 -0.20560645165E+03  0.20891834573E+03  0.00000000000E+00 0.  1.
         11    1    4    4    0    0 -0.70748627849E+02 -0.11512901416E+03 -0.20804085259E+03  0.24807469559E+03  0.00000000000E+00 0. -1.
        -11    1    3    3    0    0  0.10667499143E+02 -0.25441123185E+02 -0.10494704988E+02  0.29515845230E+02  0.00000000000E+00 0.  1.
         11    1    3    3    0    0  0.75133485074E+01 -0.15591393490E+03 -0.38404638047E+03  0.41455666423E+03  0.00000000000E+00 0. -1.
         21    1    1    2  503  502  0.28747506704E+03  0.12445060318E+03 -0.57115817240E+03  0.65142269281E+03  0.00000000000E+00 0.  1.
          1    1    1    2  501    0 -0.20864636062E+03  0.19817206076E+03  0.78999388336E+01  0.28786781428E+03  0.00000000000E+00 0. -1.
<scales pt_clust_5="13000.00000" pt_clust_6="13000.00000" pt_clust_7="13000.00000" pt_clust_8="13000.00000" pt_clust_9="298.45805" pt_clust_10="13000.00000"></scales>
<clustering>
<clus scale="   91.200">  7  8 -1 -1</clus>
<clus scale="   91.494">  5  6 -1 -1</clus>
<clus scale="  203.808">  2  7  1 -1</clus>
<clus scale="  271.833">  5 10 -1 -1</clus>
<clus scale="  298.458">  1  9  2 -1</clus>
<clus scale="  298.458">  1  5  2 -1</clus>
</clustering>
</event>
<event>
10    2  0.4951045E-006  0.3168284E+03  0.7546771E-02  0.1089076E+00
         21   -1    0    0  503  502  0.00000000000E+00  0.00000000000E+00  0.30118286197E+03  0.30118286197E+03  0.00000000000E+00 0.  1.
          2   -1    0    0  502    0 -0.00000000000E+00 -0.00000000000E+00 -0.74883526042E+03  0.74883526042E+03  0.00000000000E+00 0. -1.
         23    2    1    2    0    0  0.22165565650E+03  0.50823109356E+02 -0.53315490578E+03  0.58263051384E+03  0.59075744603E+02 0.  0.
         23    2    1    2    0    0 -0.20239735299E+03 -0.12556275971E+03 -0.62580764267E+02  0.26259958941E+03  0.91167412916E+02 0.  0.
        -11    1    3    3    0    0  0.22271418790E+02  0.21847838955E+02 -0.47366764043E+02  0.56718202526E+02  0.00000000000E+00 0.  1.
         11    1    3    3    0    0  0.19938423771E+03  0.28975270402E+02 -0.48578814174E+03  0.52591231131E+03  0.00000000000E+00 0. -1.
        -11    1    4    4    0    0 -0.14119703880E+03 -0.49741296172E+02 -0.57808670003E+01  0.14981394706E+03  0.00000000000E+00 0. -1.
         11    1    4    4    0    0 -0.61200314192E+02 -0.75821463542E+02 -0.56799897267E+02  0.11278564235E+03  0.00000000000E+00 0.  1.
         21    1    1    2  503  501 -0.39441275480E+02  0.33184853681E+02  0.14994147895E+03  0.15855376323E+03  0.00000000000E+00 0.  1.
          2    1    1    2  501    0  0.20182971976E+02  0.41554796677E+02 -0.18582073513E+01  0.46234255906E+02  0.00000000000E+00 0. -1.
<scales pt_clust_5="13000.00000" pt_clust_6="13000.00000" pt_clust_7="13000.00000" pt_clust_8="13000.00000" pt_clust_9="51.54463" pt_clust_10="13000.00000"></scales>
<clustering>
<clus scale="   51.545">  1  9  2 -1</clus>
<clus scale="   59.076">  5  6 -1 -1</clus>
<clus scale="   91.167">  7  8 -1 -1</clus>
<clus scale="   48.691">  7 10 -1 -1</clus>
<clus scale="  230.008">  2  5  1 -1</clus>
<clus scale="   51.545">  1  5  2 -1</clus>
</clustering>
</event>
<event>
10    2  0.4951045E-006  0.3307959E+03  0.7546771E-02  0.1103472E+00
         21   -1    0    0  501  502  0.00000000000E+00  0.00000000000E+00  0.21389237213E+03  0.21389237213E+03  0.00000000000E+00 0. -1.
          2   -1    0    0  503    0 -0.00000000000E+00 -0.00000000000E+00 -0.11860017017E+04  0.11860017017E+04  0.00000000000E+00 0. -1.
         23    2    1    2    0    0  0.88624999249E+02  0.63880602796E+02 -0.60146083266E+03  0.61805607423E+03  0.91121104947E+02 0.  0.
         23    2    1    2    0    0 -0.95472240409E+02  0.94314116623E+02 -0.18452428680E+03  0.24514671761E+03  0.89652660025E+02 0.  0.
        -11    1    4    4    0    0 -0.13339086178E+02  0.60138925580E+02 -0.12118275016E+03  0.13594072432E+03  0.00000000000E+00 0.  1.
         11    1    4    4    0    0 -0.82133154231E+02  0.34175191043E+02 -0.63341536638E+02  0.10920599329E+03  0.00000000000E+00 0. -1.
        -13    1    3    3    0    0  0.10517091301E+03  0.47433318168E+02 -0.54280866965E+03  0.55493431365E+03  0.00000000000E+00 0. -1.
         13    1    3    3    0    0 -0.16545913759E+02  0.16447284628E+02 -0.58652163008E+02  0.63121760584E+02  0.00000000000E+00 0.  1.
         21    1    1    2  503  502 -0.27080974420E+02 -0.13923972423E+02  0.15857963128E+03  0.16147679598E+03  0.00000000000E+00 0. -1.
          2    1    1    2  501    0  0.33928215581E+02 -0.14427074700E+03 -0.34470384137E+03  0.37521448600E+03  0.00000000000E+00 0. -1.
<scales pt_clust_5="13000.00000" pt_clust_6="13000.00000" pt_clust_7="13000.00000" pt_clust_8="13000.00000" pt_clust_9="30.45088" pt_clust_10="13000.00000"></scales>
<clustering>
<clus scale="   30.451">  1  9  2 -1</clus>
<clus scale="   89.653">  5  6 -1 -1</clus>
<clus scale="   91.121">  7  8 -1 -1</clus>
<clus scale="  138.732">  2  7  1 -1</clus>
<clus scale="  135.162">  5 10 -1 -1</clus>
<clus scale="   30.451">  1  5  2 -1</clus>
</clustering>
</event>
<event>
10    2  0.4951045E-006  0.1246412E+03  0.7546771E-02  0.1250359E+00
         21   -1    0    0  501  502  0.00000000000E+00  0.00000000000E+00  0.15807479661E+03  0.15807479661E+03  0.00000000000E+00 0.  1.
          1   -1    0    0  503    0 -0.00000000000E+00 -0.00000000000E+00 -0.23347712443E+03  0.23347712443E+03  0.00000000000E+00 0. -1.
         23    2    1    2    0    0 -0.32844412556E+02 -0.82548071036E+01 -0.59991166708E+02  0.11431505059E+03  0.91225508664E+02 0.  0.
         23    2    1    2    0    0  0.10744857028E+02  0.48932180192E+01 -0.10897037772E+03  0.14349856852E+03  0.92616955303E+02 0.  0.
        -11    1    4    4    0    0 -0.21555477988E+02 -0.11768140780E+02  0.39492235330E+01  0.24874166021E+02  0.00000000000E+00 0.  1.
         11    1    4    4    0    0  0.32300335017E+02  0.16661358799E+02 -0.11291960126E+03  0.11862440249E+03  0.00000000000E+00 0. -1.
        -13    1    3    3    0    0  0.60518107851E+01 -0.22116814281E+02  0.15909866253E+02  0.27908811009E+02  0.00000000000E+00 0.  1.
         13    1    3    3    0    0 -0.38896223342E+02  0.13862007178E+02 -0.75901032961E+02  0.86406239577E+02  0.00000000000E+00 0. -1.
         21    1    1    2  503  502  0.45099522748E+02 -0.66586332260E+01  0.98162037696E+02  0.10823164968E+03  0.00000000000E+00 0.  1.
          1    1    1    2  501    0 -0.22999967220E+02  0.10020222310E+02 -0.46028210820E+01  0.25506652254E+02  0.00000000000E+00 0. -1.
<scales pt_clust_5="13000.00000" pt_clust_6="13000.00000" pt_clust_7="13000.00000" pt_clust_8="13000.00000" pt_clust_9="45.58842" pt_clust_10="13000.00000"></scales>
<clustering>
<clus scale="   45.588">  1  9  2 -1</clus>
<clus scale="   91.226">  7  8 -1 -1</clus>
<clus scale="   92.554">  2  7  1 -1</clus>
<clus scale="   92.617">  5  6 -1 -1</clus>
<clus scale="   17.085">  5 10 -1 -1</clus>
<clus scale="   45.588">  1  5  2 -1</clus>
</clustering>
</event>
<event>
10    2  0.4951045E-006  0.2288201E+03  0.7546771E-02  0.1136998E+00
          3   -1    0    0  503    0 -0.00000000000E+00  0.00000000000E+00  0.89638066260E+02  0.89638066260E+02  0.00000000000E+00 0. -1.
         21   -1    0    0  501  502  0.00000000000E+00 -0.00000000000E+00 -0.70860549694E+03  0.70860549694E+03  0.00000000000E+00 0. -1.
         23    2    1    2    0    0  0.11483814001E+03 -0.10458512061E+03 -0.14765440661E+03  0.23241728881E+03  0.89945130447E+02 0.  0.
         23    2    1    2    0    0 -0.91821223552E+02  0.10472253019E+03 -0.13869627749E+03  0.21732163451E+03  0.92704314978E+02 0.  0.
        -13    1    3    3    0    0  0.10688334666E+03 -0.42886270056E+02 -0.78368820926E+02  0.13930166563E+03  0.00000000000E+00 0. -1.
         13    1    3    3    0    0  0.79547933488E+01 -0.61698850552E+02 -0.69285585681E+02  0.93115623178E+02  0.00000000000E+00 0.  1.
        -13    1    4    4    0    0 -0.35389622140E+02  0.43131378353E+01 -0.80999200934E+02  0.88498017295E+02  0.00000000000E+00 0.  1.
         13    1    4    4    0    0 -0.56431601412E+02  0.10040939235E+03 -0.57697076551E+02  0.12882361722E+03  0.00000000000E+00 0. -1.
         21    1    1    2  503  502  0.26720978221E+02  0.23936356930E+02 -0.22172032222E+03  0.22460378703E+03  0.00000000000E+00 0. -1.
          3    1    1    2  501    0 -0.49737894681E+02 -0.24073766509E+02 -0.11089642437E+03  0.12390085286E+03  0.00000000000E+00 0. -1.
<scales pt_clust_5="13000.00000" pt_clust_6="13000.00000" pt_clust_7="13000.00000" pt_clust_8="13000.00000" pt_clust_9="35.87422" pt_clust_10="13000.00000"></scales>
<clustering>
<clus scale="   35.874">  2  9  1 -1</clus>
<clus scale="   89.945">  5  6 -1 -1</clus>
<clus scale="   92.704">  7  8 -1 -1</clus>
<clus scale="   46.980">  7 10 -1 -1</clus>
<clus scale="  181.261">  1  5  2 -1</clus>
<clus scale="   35.874">  2  5  1 -1</clus>
</clustering>
</event>
<event>
10    2  0.5596773E-006  0.2578460E+03  0.7546771E-02  0.1127836E+00
          2   -1    0    0  502    0 -0.00000000000E+00  0.00000000000E+00  0.75010418936E+03  0.75010418936E+03  0.00000000000E+00 0. -1.
         21   -1    0    0  503  502  0.00000000000E+00 -0.00000000000E+00 -0.29018795114E+03  0.29018795114E+03  0.00000000000E+00 0. -1.
         23    2    1    2    0    0 -0.93539555905E+02 -0.71995795374E+02  0.19471497057E+03  0.24558848628E+03  0.92014899650E+02 0.  0.
         23    2    1    2    0    0  0.10246955239E+03  0.50439013761E+02  0.48777824271E+03  0.50881542947E+03  0.89002381571E+02 0.  0.
        -11    1    4    4    0    0  0.55548597641E+01 -0.22656436706E+02  0.72667394016E+02  0.76319858125E+02  0.00000000000E+00 0. -1.
         11    1    4    4    0    0  0.96914692631E+02  0.73095450467E+02  0.41511084870E+03  0.43249557134E+03  0.00000000000E+00 0.  1.
        -13    1    3    3    0    0 -0.13021994785E+02 -0.20602550119E+02 -0.43812706045E+01  0.24763540774E+02  0.00000000000E+00 0.  1.
         13    1    3    3    0    0 -0.80517561120E+02 -0.51393245255E+02  0.19909624118E+03  0.22082494551E+03  0.00000000000E+00 0. -1.
         21    1    1    2  503  501 -0.55492130039E+02  0.41466271924E+02 -0.22476780438E+03  0.23520075274E+03  0.00000000000E+00 0. -1.
          2    1    1    2  501    0  0.46562133549E+02 -0.19909490312E+02  0.21908293101E+01  0.50687472004E+02  0.00000000000E+00 0. -1.
<scales pt_clust_5="13000.00000" pt_clust_6="13000.00000" pt_clust_7="13000.00000" pt_clust_8="13000.00000" pt_clust_9="69.27358" pt_clust_10="13000.00000"></scales>
<clustering>
<clus scale="   69.274">  2  9  1 -1</clus>
<clus scale="   89.002">  5  6 -1 -1</clus>
<clus scale="   24.423">  5 10 -1 -1</clus>
<clus scale="   92.015">  7  8 -1 -1</clus>
<clus scale="  158.493">  1  7  2 -1</clus>
<clus scale="   69.274">  2  5  1 -1</clus>
</clustering>
</event>
<event>
10    2  0.4951045E-006  0.3595056E+03  0.7546771E-02  0.1073374E+00
         -3   -1    0    0    0  501 -0.00000000000E+00  0.00000000000E+00  0.63109755388E+03  0.63109755388E+03  0.00000000000E+00 0.  1.
         21   -1    0    0  503  502  0.00000000000E+00 -0.00000000000E+00 -0.86293664335E+03  0.86293664335E+03  0.00000000000E+00 0. -1.
         23    2    1    2    0    0 -0.22024601307E+03  0.15294082641E+02  0.98209708939E+02  0.25940511033E+03  0.94359149527E+02 0.  0.
         23    2    1    2    0    0  0.27040712637E+03 -0.19035022824E+03  0.31070153098E+03  0.46273246940E+03  0.90734081268E+02 0.  0.
        -11    1    4    4    0    0  0.23501698286E+03 -0.19724436167E+03  0.27997299459E+03  0.41535911949E+03  0.00000000000E+00 0.  1.
         11    1    4    4    0    0  0.35390143504E+02  0.68941334303E+01  0.30728536392E+02  0.47373349911E+02  0.00000000000E+00 0. -1.
        -13    1    3    3    0    0 -0.39127395759E+02  0.41527798946E+02  0.25088088575E+02  0.62329153472E+02  0.00000000000E+00 0.  1.
         13    1    3    3    0    0 -0.18111861731E+03 -0.26233716304E+02  0.73121620363E+02  0.19707595686E+03  0.00000000000E+00 0. -1.
         21    1    1    2  503  501 -0.15302424718E+03  0.19970117914E+03 -0.61288394115E+03  0.66251317458E+03  0.00000000000E+00 0. -1.
         -3    1    1    2    0  502  0.10286313388E+03 -0.24645033540E+02 -0.27866388252E+02  0.10938344292E+03  0.00000000000E+00 0.  1.
<scales pt_clust_5="13000.00000" pt_clust_6="13000.00000" pt_clust_7="13000.00000" pt_clust_8="13000.00000" pt_clust_9="259.76340" pt_clust_10="13000.00000"></scales>
<clustering>
<clus scale="   90.734">  5  6 -1 -1</clus>
<clus scale="   94.359">  7  8 -1 -1</clus>
<clus scale="  105.774">  5 10 -1 -1</clus>
<clus scale="  240.096">  1  7  2 -1</clus>
<clus scale="  259.763">  2  9  1 -1</clus>
<clus scale="  259.763">  2  5  1 -1</clus>
</clustering>
</event>
<event>
10    2  0.4951045E-006  0.3413451E+03  0.7546771E-02  0.1087915E+00
         -4   -1    0    0    0  501 -0.00000000000E+00  0.00000000000E+00  0.10792862295E+04  0.10792862295E+04  0.00000000000E+00 0.  1.
         21   -1    0    0  501  502  0.00000000000E+00 -0.00000000000E+00 -0.17632092769E+03  0.17632092769E+03  0.00000000000E+00 0.  1.
         23    2    1    2    0    0  0.12410690922E+03  0.84742508821E+02  0.53595540547E+03  0.56392564351E+03  0.90443999499E+02 0.  0.
         23    2    1    2    0    0  0.66619112867E+01 -0.45353672705E+02  0.86287177165E+01  0.11932801702E+03  0.10983343838E+03 0.  0.
        -11    1    4    4    0    0  0.31945301213E+02 -0.73676214626E+02 -0.39372747644E+00  0.80304681635E+02  0.00000000000E+00 0. -1.
         11    1    4    4    0    0 -0.25283389926E+02  0.28322541921E+02  0.90224451929E+01  0.39023335381E+02  0.00000000000E+00 0.  1.
        -13    1    3    3    0    0  0.65017097354E+02 -0.32436246261E+01  0.14661776912E+03  0.16041980636E+03  0.00000000000E+00 0.  1.
         13    1    3    3    0    0  0.59089811868E+02  0.87986133447E+02  0.38933763634E+03  0.40350583716E+03  0.00000000000E+00 0. -1.
         21    1    1    2  503  502  0.91809767602E+02  0.13011318826E+03  0.82118734447E+02  0.17917020325E+03  0.00000000000E+00 0.  1.
         -4    1    1    2    0  503 -0.22257858811E+03 -0.16950202438E+03  0.27626244417E+03  0.39318329341E+03  0.00000000000E+00 0.  1.
<scales pt_clust_5="13000.00000" pt_clust_6="13000.00000" pt_clust_7="13000.00000" pt_clust_8="13000.00000" pt_clust_9="159.24345" pt_clust_10="13000.00000"></scales>
<clustering>
<clus scale="   90.444">  7  8 -1 -1</clus>
<clus scale="  109.833">  5  6 -1 -1</clus>
<clus scale="  159.243">  2  9  1 -1</clus>
<clus scale="  189.670">  1  7  2 -1</clus>
<clus scale="  116.396">  5 10 -1 -1</clus>
<clus scale="  159.243">  2  5  1 -1</clus>
</clustering>
</event>
<event>
10    2  0.4951045E-006  0.5032926E+03  0.7546771E-02  0.1056273E+00
         21   -1    0    0  501  502  0.00000000000E+00  0.00000000000E+00  0.10888265714E+03  0.10888265714E+03  0.00000000000E+00 0. -1.
          4   -1    0    0  503    0 -0.00000000000E+00 -0.00000000000E+00 -0.12370623973E+04  0.12370623973E+04  0.00000000000E+00 0. -1.
         23    2    1    2    0    0 -0.87899683715E+02 -0.64308162553E+02 -0.53079048727E+03  0.54942124582E+03  0.90902529203E+02 0.  0.
         23    2    1    2    0    0  0.12579931140E+03  0.23123954965E+03 -0.18700675917E+03  0.33551072910E+03  0.91097339648E+02 0.  0.
        -13    1    4    4    0    0  0.20379744705E+02  0.35252522040E+01 -0.39096045448E+02  0.44229652576E+02  0.00000000000E+00 0.  1.
         13    1    4    4    0    0  0.10541956670E+03  0.22771429745E+03 -0.14791071373E+03  0.29128107652E+03  0.00000000000E+00 0. -1.
        -13    1    3    3    0    0  0.12333873890E+02 -0.18290434503E+02 -0.33961971987E+02  0.40497900942E+02  0.00000000000E+00 0. -1.
         13    1    3    3    0    0 -0.10023355761E+03 -0.46017728050E+02 -0.49682851528E+03  0.50892334488E+03  0.00000000000E+00 0.  1.
         21    1    1    2  503  502  0.24890863400E+02 -0.30087984461E+01 -0.17140585704E+02  0.30371164402E+02  0.00000000000E+00 0.  1.
          4    1    1    2  501    0 -0.62790491086E+02 -0.16392258866E+03 -0.39324190805E+03  0.43064191515E+03  0.00000000000E+00 0. -1.
<scales pt_clust_5="13000.00000" pt_clust_6="13000.00000" pt_clust_7="13000.00000" pt_clust_8="13000.00000" pt_clust_9="25.07206" pt_clust_10="13000.00000"></scales>
<clustering>
<clus scale="   25.072">  1  9  2 -1</clus>
<clus scale="   90.903">  7  8 -1 -1</clus>
<clus scale="   91.097">  5  6 -1 -1</clus>
<clus scale="  140.595">  2  7  1 -1</clus>
<clus scale="  229.933">  5 10 -1 -1</clus>
<clus scale="   25.072">  1  5  2 -1</clus>
</clustering>
</event>
<event>
10    2  0.4951045E-006  0.3382981E+03  0.7546771E-02  0.1079252E+00
         21   -1    0    0  501  502  0.00000000000E+00  0.00000000000E+00  0.93221628203E+02  0.93221628203E+02  0.00000000000E+00 0.  1.
         -3   -1    0    0    0  501 -0.00000000000E+00 -0.00000000000E+00 -0.10152867053E+04  0.10152867053E+04  0.00000000000E+00 0.  1.
         23    2    1    2    0    0  0.16232610932E+03  0.17441727308E+03 -0.37099409754E+03  0.45048347780E+03  0.92344964365E+02 0.  0.
         23    2    1    2    0    0  0.15205376239E+02 -0.34838872493E+01 -0.23148457008E+03  0.24924398473E+03  0.91072041814E+02 0.  0.
        -11    1    4    4    0    0  0.44889464823E+02 -0.26996571873E+02 -0.10711559049E+03  0.11923769820E+03  0.00000000000E+00 0.  1.
         11    1    4    4    0    0 -0.29684088584E+02  0.23512684624E+02 -0.12436897959E+03  0.13000628653E+03  0.00000000000E+00 0. -1.
        -13    1    3    3    0    0  0.16882474372E+02  0.23894647020E+02 -0.62015113125E+01  0.29907036625E+02  0.00000000000E+00 0. -1.
         13    1    3    3    0    0  0.14544363495E+03  0.15052262606E+03 -0.36479258623E+03  0.42057644117E+03  0.00000000000E+00 0.  1.
         21    1    1    2  503  502 -0.25184487252E+02 -0.98324776536E+01 -0.69404952937E+02  0.74484787086E+02  0.00000000000E+00 0. -1.
         -3    1    1    2    0  503 -0.15234699831E+03 -0.16110090817E+03 -0.25018145652E+03  0.33429608387E+03  0.00000000000E+00 0.  1.
<scales pt_clust_5="13000.00000" pt_clust_6="13000.00000" pt_clust_7="13000.00000" pt_clust_8="13000.00000" pt_clust_9="27.03584" pt_clust_10="13000.00000"></scales>
<clustering>
<clus scale="   27.036">  1  9  2 -1</clus>
<clus scale="   91.072">  5  6 -1 -1</clus>
<clus scale="   92.345">  7  8 -1 -1</clus>
<clus scale="  233.128">  5 10 -1 -1</clus>
<clus scale="  245.667">  2  7  1 -1</clus>
<clus scale="   27.036">  1  5  2 -1</clus>
</clustering>
</event>
<event>
10    2  0.4951045E-006  0.2842650E+03  0.7546771E-02  0.1121269E+00
          1   -1    0    0  502    0 -0.00000000000E+00  0.00000000000E+00  0.59506548497E+03  0.59506548497E+03  0.00000000000E+00 0. -1.
         21   -1    0    0  503  502  0.00000000000E+00 -0.00000000000E+00 -0.16913787834E+03  0.16913787834E+03  0.00000000000E+00 0. -1.
         23    2    1    2    0    0 -0.75116783244E+02 -0.70228824697E+02  0.38469594606E+03  0.40864986853E+03  0.91810267370E+02 0.  0.
         23    2    1    2    0    0  0.29760406528E+02 -0.40133951691E+02  0.12834604399E+03  0.16566028569E+03  0.92055458126E+02 0.  0.
        -11    1    3    3    0    0 -0.37823412032E+02  0.14654715659E+02  0.17032528924E+03  0.17508876418E+03  0.00000000000E+00 0.  1.
         11    1    3    3    0    0 -0.37293371211E+02 -0.84883540356E+02  0.21437065682E+03  0.23356110435E+03  0.00000000000E+00 0. -1.
        -13    1    4    4    0    0  0.13808100154E+02 -0.27359408034E+02  0.13919054950E+03  0.14252441864E+03  0.00000000000E+00 0. -1.
         13    1    4    4    0    0  0.15952306374E+02 -0.12774543657E+02 -0.10844505511E+02  0.23135867048E+02  0.00000000000E+00 0.  1.
         21    1    1    2  503  501 -0.20243144608E+02 -0.46629479534E+01 -0.47235741452E+02  0.51601775723E+02  0.00000000000E+00 0. -1.
          1    1    1    2  501    0  0.65599521323E+02  0.11502572434E+03 -0.39878641965E+02  0.13829143337E+03  0.00000000000E+00 0. -1.
<scales pt_clust_5="13000.00000" pt_clust_6="13000.00000" pt_clust_7="13000.00000" pt_clust_8="13000.00000" pt_clust_9="20.77325" pt_clust_10="13000.00000"></scales>
<clustering>
<clus scale="   20.773">  2  9  1 -1</clus>
<clus scale="   91.810">  5  6 -1 -1</clus>
<clus scale="   92.055">  7  8 -1 -1</clus>
<clus scale="  122.469">  7 10 -1 -1</clus>
<clus scale="  139.204">  1  5  2 -1</clus>
<clus scale="   20.773">  2  5  1 -1</clus>
</clustering>
</event>
<event>
10    2  0.4951045E-006  0.2975367E+03  0.7546771E-02  0.1104174E+00
          1   -1    0    0  503    0 -0.00000000000E+00  0.00000000000E+00  0.78491199084E+03  0.78491199084E+03  0.00000000000E+00 0. -1.
         21   -1    0    0  501  502  0.00000000000E+00 -0.00000000000E+00 -0.19870208580E+03  0.19870208580E+03  0.00000000000E+00 0. -1.
         23    2    1    2    0    0 -0.69792986538E+02  0.14914689274E+03  0.62855015407E+03  0.65614088935E+03  0.91267266409E+02 0.  0.
         23    2    1    2    0    0  0.14277695034E+03 -0.11657287261E+03 -0.65977025843E+02  0.22731628214E+03  0.11552156513E+03 0.  0.
        -11    1    3    3    0    0 -0.25821968273E+02 -0.63628351094E+01  0.82799634442E+02  0.86965735665E+02  0.00000000000E+00 0.  1.
         11    1    3    3    0    0 -0.43971018265E+02  0.15550972785E+03  0.54575051963E+03  0.56917515369E+03  0.00000000000E+00 0. -1.
        -13    1    4    4    0    0  0.48159713681E+02 -0.17819497837E+02  0.30703412942E+02  0.59829692389E+02  0.00000000000E+00 0.  1.
         13    1    4    4    0    0  0.94617236656E+02 -0.98753374772E+02 -0.96680438786E+02  0.16748658975E+03  0.00000000000E+00 0. -1.
         21    1    1    2  503  502 -0.46513380914E+01 -0.20699486754E+02  0.22310716741E+02  0.30787526361E+02  0.00000000000E+00 0.  1.
          1    1    1    2  501    0 -0.68332625708E+02 -0.11874533374E+02  0.13260600777E+01  0.69369378794E+02  0.00000000000E+00 0. -1.
<scales pt_clust_5="13000.00000" pt_clust_6="13000.00000" pt_clust_7="13000.00000" pt_clust_8="13000.00000" pt_clust_9="21.21566" pt_clust_10="13000.00000"></scales>
<clustering>
<clus scale="   21.216">  2  9  1 -1</clus>
<clus scale="   91.267">  5  6 -1 -1</clus>
<clus scale="  115.522">  7  8 -1 -1</clus>
<clus scale="   70.861">  7 10 -1 -1</clus>
<clus scale="  187.232">  1  5  2 -1</clus>
<clus scale="   21.216">  2  5  1 -1</clus>
</clustering>
</event>
<event>
10    2  0.4951045E-006  0.3104381E+03  0.7546771E-02  0.1083134E+00
          1   -1    0    0  502    0 -0.00000000000E+00  0.00000000000E+00  0.14105979069E+04  0.14105979069E+04  0.00000000000E+00 0. -1.
         21   -1    0    0  503  502  0.00000000000E+00 -0.00000000000E+00 -0.10044475168E+03  0.10044475168E+03  0.00000000000E+00 0.  1.
         23    2    1    2    0    0 -0.22152742289E+03  0.12508037254E+03  0.30834817965E+03  0.41040938422E+03  0.92939572169E+02 0.  0.
         23    2    1    2    0    0  0.22242801057E+03 -0.12383532618E+03  0.79645106641E+03  0.84111450441E+03  0.91268288337E+02 0.  0.
        -13    1    4    4    0    0  0.19019856832E+03 -0.13096150671E+03  0.62013719345E+03  0.66173752375E+03  0.00000000000E+00 0. -1.
         13    1    4    4    0    0  0.32229442248E+02  0.71261805307E+01  0.17631387295E+03  0.17937698067E+03  0.00000000000E+00 0.  1.
        -13    1    3    3    0    0 -0.17938023998E+03  0.13606762960E+03  0.23761690573E+03  0.32734303751E+03  0.00000000000E+00 0.  1.
         13    1    3    3    0    0 -0.42147182911E+02 -0.10987257056E+02  0.70731273924E+02  0.83066346710E+02  0.00000000000E+00 0. -1.
         21    1    1    2  503  501 -0.38621430955E+02 -0.22395367199E+02 -0.48544674324E+01  0.44908053343E+02  0.00000000000E+00 0.  1.
          1    1    1    2  501    0  0.37720843281E+02  0.21150320833E+02  0.21020837655E+03  0.21461071655E+03  0.00000000000E+00 0. -1.
<scales pt_clust_5="13000.00000" pt_clust_6="13000.00000" pt_clust_7="13000.00000" pt_clust_8="13000.00000" pt_clust_9="44.64490" pt_clust_10="13000.00000"></scales>
<clustering>
<clus scale="   44.645">  2  9  1 -1</clus>
<clus scale="   91.268">  5  6 -1 -1</clus>
<clus scale="   41.945">  5 10 -1 -1</clus>
<clus scale="   92.940">  7  8 -1 -1</clus>
<clus scale="  286.424">  1  7  2 -1</clus>
<clus scale="   44.645">  2  5  1 -1</clus>
</clustering>
</event>
<event>
10    2  0.4951045E-006  0.2456706E+03  0.7546771E-02  0.1152950E+00
         21   -1    0    0  503  502  0.00000000000E+00  0.00000000000E+00  0.18902703685E+03  0.18902703685E+03  0.00000000000E+00 0. -1.
          4   -1    0    0  502    0 -0.00000000000E+00 -0.00000000000E+00 -0.23549449875E+03  0.23549449875E+03  0.00000000000E+00 0. -1.
         23    2    1    2    0    0 -0.45765012877E+02  0.81424786862E+01  0.37038374750E+02  0.11088755880E+03  0.93613423875E+02 0.  0.
         23    2    1    2    0    0 -0.67557361061E+02 -0.25818838503E+02 -0.13595344392E+03  0.17918938531E+03  0.91623618337E+02 0.  0.
        -11    1    4    4    0    0  0.44835409554E+00 -0.43709574417E+02 -0.34196433570E+02  0.55498864727E+02  0.00000000000E+00 0.  1.
         11    1    4    4    0    0 -0.68005715156E+02  0.17890735914E+02 -0.10175701035E+03  0.12369052058E+03  0.00000000000E+00 0. -1.
        -13    1    3    3    0    0  0.25275399628E+02  0.20076159292E+02  0.14696345386E+02  0.35466611989E+02  0.00000000000E+00 0.  1.
         13    1    3    3    0    0 -0.71040412505E+02 -0.11933680605E+02  0.22342029364E+02  0.75420946811E+02  0.00000000000E+00 0. -1.
         21    1    1    2  503  501  0.24113190760E+02  0.27858038836E+01  0.34586576970E+02  0.42254443298E+02  0.00000000000E+00 0. -1.
          4    1    1    2  501    0  0.89209183178E+02  0.14890555933E+02  0.17861030304E+02  0.92190148188E+02  0.00000000000E+00 0. -1.
<scales pt_clust_5="13000.00000" pt_clust_6="13000.00000" pt_clust_7="13000.00000" pt_clust_8="13000.00000" pt_clust_9="24.27358" pt_clust_10="13000.00000"></scales>
<clustering>
<clus scale="   24.274">  1  9  2 -1</clus>
<clus scale="   91.624">  5  6 -1 -1</clus>
<clus scale="   93.613">  7  8 -1 -1</clus>
<clus scale="   99.302">  5 10 -1 -1</clus>
<clus scale="  100.024">  2  7  1 -1</clus>
<clus scale="   24.274">  1  5  2 -1</clus>
</clustering>
</event>
<event>
10    2  0.4951045E-006  0.1829017E+03  0.7546771E-02  0.1184932E+00
         21   -1    0    0  501  502  0.00000000000E+00  0.00000000000E+00  0.33068696620E+03  0.33068696620E+03  0.00000000000E+00 0.  1.
          2   -1    0    0  503    0 -0.00000000000E+00 -0.00000000000E+00 -0.42902224899E+03  0.42902224899E+03  0.00000000000E+00 0. -1.
         23    2    1    2    0    0  0.40301924739E+02 -0.63535944135E+02 -0.31541094746E+03  0.33723012391E+03  0.92623049830E+02 0.  0.
         23    2    1    2    0    0  0.37746402919E+02  0.45762166234E+02 -0.42813346709E+02  0.11686700045E+03  0.91136964768E+02 0.  0.
        -11    1    4    4    0    0 -0.74023648914E+01  0.24005575522E+02  0.23057039634E+02  0.34098236593E+02  0.00000000000E+00 0. -1.
         11    1    4    4    0    0  0.45148767810E+02  0.21756590712E+02 -0.65870386342E+02  0.82768763861E+02  0.00000000000E+00 0.  1.
        -11    1    3    3    0    0  0.36628684271E+02 -0.22829516896E+01 -0.36913900466E+02  0.52052938701E+02  0.00000000000E+00 0.  1.
         11    1    3    3    0    0  0.36732404685E+01 -0.61252992446E+02 -0.27849704700E+03  0.28517718521E+03  0.00000000000E+00 0. -1.
         21    1    1    2  503  502 -0.22674899047E+02  0.28551043960E+02  0.24441006837E+03  0.24711453757E+03  0.00000000000E+00 0.  1.
          2    1    1    2  501    0 -0.55373428610E+02 -0.10777266059E+02  0.15478943004E+02  0.58497553250E+02  0.00000000000E+00 0. -1.
<scales pt_clust_5="13000.00000" pt_clust_6="13000.00000" pt_clust_7="13000.00000" pt_clust_8="13000.00000" pt_clust_9="36.45975" pt_clust_10="13000.00000"></scales>
<clustering>
<clus scale="   36.460">  1  9  2 -1</clus>
<clus scale="   91.137">  5  6 -1 -1</clus>
<clus scale="   65.270">  5 10 -1 -1</clus>
<clus scale="   92.623">  7  8 -1 -1</clus>
<clus scale="  116.452">  2  7  1 -1</clus>
<clus scale="   36.460">  1  5  2 -1</clus>
</clustering>
</event>
<event>
10    2  0.4951045E-006  0.4220450E+03  0.7546771E-02  0.1083118E+00
          2   -1    0    0  502    0 -0.00000000000E+00  0.00000000000E+00  0.41574117819E+03  0.41574117819E+03  0.00000000000E+00 0. -1.
         21   -1    0    0  503  502  0.00000000000E+00 -0.00000000000E+00 -0.99478222276E+03  0.99478222276E+03  0.00000000000E+00 0. -1.
         23    2    1    2    0    0 -0.23234118561E+02  0.65760868015E+02  0.10651191487E+03  0.15604257212E+03  0.90222947615E+02 0.  0.
         23    2    1    2    0    0  0.11737908074E+03 -0.60741418500E+02  0.22351222660E+03  0.27761484442E+03  0.98208542823E+02 0.  0.
        -11    1    3    3    0    0 -0.57830228130E+02  0.47774803308E+02  0.71861452926E+02  0.10387894654E+03  0.00000000000E+00 0.  1.
         11    1    3    3    0    0  0.34596109569E+02  0.17986064708E+02  0.34650461940E+02  0.52163625580E+02  0.00000000000E+00 0. -1.
        -13    1    4    4    0    0  0.18584370451E+01 -0.41489364012E+02  0.29307866409E+02  0.50830818878E+02  0.00000000000E+00 0.  1.
         13    1    4    4    0    0  0.11552064369E+03 -0.19252054488E+02  0.19420436020E+03  0.22678402554E+03  0.00000000000E+00 0. -1.
         21    1    1    2  503  501 -0.13271105458E+03 -0.11210815008E+03 -0.80200822684E+03  0.82060810211E+03  0.00000000000E+00 0. -1.
          2    1    1    2  501    0  0.38566092403E+02  0.10708870057E+03 -0.10705695919E+03  0.15625788231E+03  0.00000000000E+00 0. -1.
<scales pt_clust_5="13000.00000" pt_clust_6="13000.00000" pt_clust_7="13000.00000" pt_clust_8="13000.00000" pt_clust_9="172.93128" pt_clust_10="13000.00000"></scales>
<clustering>
<clus scale="   90.223">  5  6 -1 -1</clus>
<clus scale="   98.209">  7  8 -1 -1</clus>
<clus scale="  113.822">  7 10 -1 -1</clus>
<clus scale="  114.037">  1  5  2 -1</clus>
<clus scale="  172.931">  2  9  1 -1</clus>
<clus scale="  172.931">  2  5  1 -1</clus>
</clustering>
</event>
<event>
10    2  0.4951045E-006  0.2842925E+03  0.7546771E-02  0.1119631E+00
         21   -1    0    0  501  502  0.00000000000E+00  0.00000000000E+00  0.41075454903E+03  0.41075454903E+03  0.00000000000E+00 0.  1.
          1   -1    0    0  503    0 -0.00000000000E+00 -0.00000000000E+00 -0.21156192609E+03  0.21156192609E+03  0.00000000000E+00 0. -1.
         23    2    1    2    0    0  0.62064248679E+02  0.11206344284E+03  0.10665806553E+03  0.18852088450E+03  0.88056770124E+02 0.  0.
         23    2    1    2    0    0 -0.54560400424E+02 -0.56155449749E+02 -0.14144325345E+03  0.18604549641E+03  0.92067697692E+02 0.  0.
        -13    1    3    3    0    0  0.61586242348E+02  0.47402958132E+02  0.19733450194E+02  0.80183007818E+02  0.00000000000E+00 0. -1.
         13    1    3    3    0    0  0.47800633098E+00  0.64660484707E+02  0.86924615333E+02  0.10833787668E+03  0.00000000000E+00 0.  1.
        -13    1    4    4    0    0 -0.67223798104E+02 -0.40212726947E+02 -0.14553610539E+03  0.16527813047E+03  0.00000000000E+00 0. -1.
         13    1    4    4    0    0  0.12663397680E+02 -0.15942722802E+02  0.40928519408E+01  0.20767365941E+02  0.00000000000E+00 0.  1.
         21    1    1    2  503  502 -0.24461097650E+02 -0.13476098461E+02  0.14564174873E+03  0.14829521065E+03  0.00000000000E+00 0. -1.
          1    1    1    2  501    0  0.16957249396E+02 -0.42431894629E+02  0.88336062133E+02  0.99454883550E+02  0.00000000000E+00 0. -1.
<scales pt_clust_5="13000.00000" pt_clust_6="13000.00000" pt_clust_7="13000.00000" pt_clust_8="13000.00000" pt_clust_9="27.92759" pt_clust_10="13000.00000"></scales>
<clustering>
<clus scale="   27.928">  1  9  2 -1</clus>
<clus scale="   88.057">  5  6 -1 -1</clus>
<clus scale="   92.068">  7  8 -1 -1</clus>
<clus scale="   47.944">  7 10 -1 -1</clus>
<clus scale="  144.981">  2  5  1 -1</clus>
<clus scale="   27.928">  1  5  2 -1</clus>
</clustering>
</event>
<event>
10    2  0.4951045E-006  0.6345761E+03  0.7546771E-02  0.1018352E+00
          2   -1    0    0  503    0 -0.00000000000E+00  0.00000000000E+00  0.65891496183E+03  0.65891496183E+03  0.00000000000E+00 0. -1.
         21   -1    0    0  501  502  0.00000000000E+00 -0.00000000000E+00 -0.50473416475E+03  0.50473416475E+03  0.00000000000E+00 0. -1.
         23    2    1    2    0    0 -0.14491454808E+03  0.10145028777E+03 -0.81774447071E+02  0.21522236809E+03  0.91330281949E+02 0.  0.
         23    2    1    2    0    0  0.26526496202E+03 -0.10443915670E+03  0.53814501718E+03  0.61532650168E+03  0.88054566201E+02 0.  0.
        -11    1    3    3    0    0 -0.17428950631E+02  0.62699268006E+02 -0.18112346913E+02  0.67550156471E+02  0.00000000000E+00 0. -1.
         11    1    3    3    0    0 -0.12748559745E+03  0.38751019764E+02 -0.63662100158E+02  0.14767221162E+03  0.00000000000E+00 0.  1.
        -13    1    4    4    0    0  0.92082518616E+02  0.69017895374E+01  0.17564943881E+03  0.19844281365E+03  0.00000000000E+00 0.  1.
         13    1    4    4    0    0  0.17318244340E+03 -0.11134094624E+03  0.36249557837E+03  0.41688368804E+03  0.00000000000E+00 0. -1.
         21    1    1    2  503  502 -0.34355267372E+02  0.81876734133E+01 -0.18097193527E+03  0.18438590984E+03  0.00000000000E+00 0. -1.
          2    1    1    2  501    0 -0.85995146568E+02 -0.51988044819E+01 -0.12121783777E+03  0.14871434697E+03  0.00000000000E+00 0. -1.
<scales pt_clust_5="13000.00000" pt_clust_6="13000.00000" pt_clust_7="13000.00000" pt_clust_8="13000.00000" pt_clust_9="35.31745" pt_clust_10="13000.00000"></scales>
<clustering>
<clus scale="   35.317">  2  9  1 -1</clus>
<clus scale="   88.055">  7  8 -1 -1</clus>
<clus scale="   91.330">  5  6 -1 -1</clus>
<clus scale="  100.408">  7 10 -1 -1</clus>
<clus scale="  212.735">  1  5  2 -1</clus>
<clus scale="   35.317">  2  5  1 -1</clus>
</clustering>
</event>
<event>
10    2  0.4951045E-006  0.3090543E+03  0.7546771E-02  0.1118941E+00
         21   -1    0    0  503  502  0.00000000000E+00  0.00000000000E+00  0.15870119023E+03  0.15870119023E+03  0.00000000000E+00 0.  1.
          4   -1    0    0  502    0 -0.00000000000E+00 -0.00000000000E+00 -0.11261675785E+04  0.11261675785E+04  0.00000000000E+00 0. -1.
         23    2    1    2    0    0  0.58875620536E+02 -0.44766129560E+02 -0.45806861935E+03  0.47223904017E+03  0.87820874438E+02 0.  0.
         23    2    1    2    0    0 -0.16760550397E+03 -0.33111224281E+02 -0.48756162644E+03  0.52384421791E+03  0.86651410404E+02 0.  0.
        -13    1    4    4    0    0 -0.76843611369E+02  0.11994742636E+02 -0.12359291681E+03  0.14602747531E+03  0.00000000000E+00 0.  1.
         13    1    4    4    0    0 -0.90761892604E+02 -0.45105966918E+02 -0.36396870963E+03  0.37781674260E+03  0.00000000000E+00 0. -1.
        -13    1    3    3    0    0 -0.66236114535E+01  0.20177381373E+02 -0.60769349653E+02  0.64373230500E+02  0.00000000000E+00 0.  1.
         13    1    3    3    0    0  0.65499231989E+02 -0.64943510933E+02 -0.39729926969E+03  0.40786580967E+03  0.00000000000E+00 0. -1.
         21    1    1    2  503  501  0.25726965106E+02  0.12537546818E+03  0.78525026214E+02  0.15015679970E+03  0.00000000000E+00 0.  1.
          4    1    1    2  501    0  0.83002918331E+02 -0.47498114336E+02 -0.10036116873E+03  0.13862871097E+03  0.00000000000E+00 0. -1.
<scales pt_clust_5="13000.00000" pt_clust_6="13000.00000" pt_clust_7="13000.00000" pt_clust_8="13000.00000" pt_clust_9="126.30468" pt_clust_10="13000.00000"></scales>
<clustering>
<clus scale="   86.651">  5  6 -1 -1</clus>
<clus scale="   87.821">  7  8 -1 -1</clus>
<clus scale="   95.632">  5 10 -1 -1</clus>
<clus scale="  114.817">  2  7  1 -1</clus>
<clus scale="  126.305">  1  9  2 -1</clus>
<clus scale="  126.305">  1  5  2 -1</clus>
</clustering>
</event>
<event>
10    2  0.4951045E-006  0.3448427E+03  0.7546771E-02  0.1069453E+00
         21   -1    0    0  503  502  0.00000000000E+00  0.00000000000E+00  0.13744247283E+03  0.13744247283E+03  0.00000000000E+00 0.  1.
         -3   -1    0    0    0  501 -0.00000000000E+00 -0.00000000000E+00 -0.12719590225E+04  0.12719590225E+04  0.00000000000E+00 0.  1.
         23    2    1    2    0    0  0.26876832227E+03 -0.85935354327E+02 -0.80762051589E+03  0.86035343486E+03  0.91300816061E+02 0.  0.
         23    2    1    2    0    0 -0.77189286977E+02 -0.11680600813E+02 -0.10629490784E+03  0.16041132393E+03  0.91315732233E+02 0.  0.
        -11    1    4    4    0    0  0.17318737273E+02  0.11492270772E+02 -0.85093718750E+01  0.22459304485E+02  0.00000000000E+00 0. -1.
         11    1    4    4    0    0 -0.94508024250E+02 -0.23172871586E+02 -0.97785535963E+02  0.13795201944E+03  0.00000000000E+00 0.  1.
        -13    1    3    3    0    0  0.16339121001E+03 -0.89383324571E+02 -0.58694808020E+03  0.61578739437E+03  0.00000000000E+00 0.  1.
         13    1    3    3    0    0  0.10537711225E+03  0.34479702436E+01 -0.22067243570E+03  0.24456604049E+03  0.00000000000E+00 0. -1.
         21    1    1    2  503  501  0.24444037155E+02 -0.70524355858E+01  0.31527950942E+02  0.40512460931E+02  0.00000000000E+00 0.  1.
         -3    1    1    2    0  502 -0.21602307244E+03  0.10466839073E+03 -0.25212907684E+03  0.34812427556E+03  0.00000000000E+00 0.  1.
<scales pt_clust_5="13000.00000" pt_clust_6="13000.00000" pt_clust_7="13000.00000" pt_clust_8="13000.00000" pt_clust_9="25.44107" pt_clust_10="13000.00000"></scales>
<clustering>
<clus scale="   25.441">  1  9  2 -1</clus>
<clus scale="   91.301">  7  8 -1 -1</clus>
<clus scale="   91.316">  5  6 -1 -1</clus>
<clus scale="  228.188">  5 10 -1 -1</clus>
<clus scale="  302.873">  2  7  1 -1</clus>
<clus scale="   25.441">  1  5  2 -1</clus>
</clustering>
</event>
<event>
10    2  0.4951045E-006  0.2425342E+03  0.7546771E-02  0.1151739E+00
         21   -1    0    0  503  502  0.00000000000E+00  0.00000000000E+00  0.80562937516E+02  0.80562937516E+02  0.00000000000E+00 0.  1.
          2   -1    0    0  502    0 -0.00000000000E+00 -0.00000000000E+00 -0.85445774165E+03  0.85445774165E+03  0.00000000000E+00 0. -1.
         23    2    1    2    0    0 -0.64953738370E+02  0.36330700085E+01 -0.38893575509E+03  0.40415094694E+03  0.88514286936E+02 0.  0.
         23    2    1    2    0    0  0.87345385690E+02 -0.26113708611E+02 -0.11072723643E+03  0.16986076928E+03  0.91000098206E+02 0.  0.
        -11    1    3    3    0    0 -0.85160304030E+02  0.14774941526E+02 -0.29325641139E+03  0.30572847284E+03  0.00000000000E+00 0. -1.
         11    1    3    3    0    0  0.20206565660E+02 -0.11141871517E+02 -0.95679343702E+02  0.98422474100E+02  0.00000000000E+00 0.  1.
        -13    1    4    4    0    0  0.48030804324E+02 -0.37119652459E+02 -0.10455886802E+02  0.61596690914E+02  0.00000000000E+00 0.  1.
         13    1    4    4    0    0  0.39314581366E+02  0.11005943848E+02 -0.10027134963E+03  0.10826407836E+03  0.00000000000E+00 0. -1.
         21    1    1    2  503  501  0.27222379510E+02  0.16621609087E+02  0.35239785225E+02  0.47530814189E+02  0.00000000000E+00 0.  1.
          2    1    1    2  501    0 -0.49614026829E+02  0.58590295150E+01 -0.30947159783E+03  0.31347814876E+03  0.00000000000E+00 0. -1.
<scales pt_clust_5="13000.00000" pt_clust_6="13000.00000" pt_clust_7="13000.00000" pt_clust_8="13000.00000" pt_clust_9="31.89570" pt_clust_10="13000.00000"></scales>
<clustering>
<clus scale="   31.896">  1  9  2 -1</clus>
<clus scale="   88.514">  5  6 -1 -1</clus>
<clus scale="   91.000">  7  8 -1 -1</clus>
<clus scale="   48.687">  7 10 -1 -1</clus>
<clus scale="  106.968">  2  5  1 -1</clus>
<clus scale="   31.896">  1  5  2 -1</clus>
</clustering>
</event>
<event>
10    2  0.4951045E-006  0.3305170E+03  0.7546771E-02  0.1110940E+00
         21   -1    0    0  501  502  0.00000000000E+00  0.00000000000E+00  0.49419165436E+03  0.49419165436E+03  0.00000000000E+00 0.  1.
          1   -1    0    0  503    0 -0.00000000000E+00 -0.00000000000E+00 -0.15606896353E+03  0.15606896353E+03  0.00000000000E+00 0. -1.
         23    2    1    2    0    0 -0.70431399902E+01  0.66490160387E+02  0.21055105724E+01  0.11468705108E+03  0.93156530969E+02 0.  0.
         23    2    1    2    0    0 -0.84348619381E+02 -0.95287941861E+02  0.16760836249E+03  0.23115102727E+03  0.95622971997E+02 0.  0.
        -11    1    3    3    0    0  0.37845119609E+02  0.10155673416E+02 -0.12619276948E+02  0.41165968122E+02  0.00000000000E+00 0. -1.
         11    1    3    3    0    0 -0.44888259599E+02  0.56334486971E+02  0.14724787520E+02  0.73521082961E+02  0.00000000000E+00 0.  1.
        -11    1    4    4    0    0 -0.49475922151E+02 -0.99521535619E+02  0.80517695841E+02  0.13724249440E+03  0.00000000000E+00 0.  1.
         11    1    4    4    0    0 -0.34872697231E+02  0.42335937572E+01  0.87090666650E+02  0.93908532870E+02  0.00000000000E+00 0. -1.
         21    1    1    2  503  502 -0.68694286547E+02 -0.10592142528E+02  0.10881886945E+03  0.12912259614E+03  0.00000000000E+00 0.  1.
          1    1    1    2  501    0  0.16008604592E+03  0.39389924002E+02  0.59589948320E+02  0.17529994339E+03  0.00000000000E+00 0. -1.
<scales pt_clust_5="13000.00000" pt_clust_6="13000.00000" pt_clust_7="13000.00000" pt_clust_8="13000.00000" pt_clust_9="69.50610" pt_clust_10="13000.00000"></scales>
<clustering>
<clus scale="   69.506">  1  9  2 -1</clus>
<clus scale="   93.157">  5  6 -1 -1</clus>
<clus scale="   95.623">  7  8 -1 -1</clus>
<clus scale="  114.879">  2  5  1 -1</clus>
<clus scale="  146.614">  7 10 -1 -1</clus>
<clus scale="   69.506">  1  5  2 -1</clus>
</clustering>
</event>
<event>
10    2  0.4951045E-006  0.3634377E+03  0.7546771E-02  0.1071762E+00
         -1   -1    0    0    0  501 -0.00000000000E+00  0.00000000000E+00  0.82017321531E+03  0.82017321531E+03  0.00000000000E+00 0.  1.
         21   -1    0    0  501  502  0.00000000000E+00 -0.00000000000E+00 -0.22461696326E+03  0.22461696326E+03  0.00000000000E+00 0.  1.
         23    2    1    2    0    0  0.18822017957E+03 -0.13761551630E+03  0.60352694822E+03  0.65295076900E+03  0.87949207958E+02 0.  0.
         23    2    1    2    0    0 -0.18498015895E+02 -0.33657444626E+02 -0.88198951484E+02  0.12965147644E+03  0.86922092290E+02 0.  0.
        -11    1    4    4    0    0 -0.41528168655E+02 -0.49774523718E+02 -0.73248924590E+02  0.97813582681E+02  0.00000000000E+00 0.  1.
         11    1    4    4    0    0  0.23030152759E+02  0.16117079093E+02 -0.14950026893E+02  0.31837893754E+02  0.00000000000E+00 0. -1.
        -11    1    3    3    0    0  0.85318843600E+02 -0.48524643693E+02  0.14852567286E+03  0.17802758667E+03  0.00000000000E+00 0.  1.
         11    1    3    3    0    0  0.10290133597E+03 -0.89090872612E+02  0.45500127536E+03  0.47492318232E+03  0.00000000000E+00 0. -1.
         21    1    1    2  503  502 -0.50906079049E+02  0.22341091609E+02  0.33335384706E+00  0.55593744101E+02  0.00000000000E+00 0.  1.
         -1    1    1    2    0  503 -0.11881608462E+03  0.14893186932E+03  0.79894901462E+02  0.20659418904E+03  0.00000000000E+00 0.  1.
<scales pt_clust_5="13000.00000" pt_clust_6="13000.00000" pt_clust_7="13000.00000" pt_clust_8="13000.00000" pt_clust_9="55.59274" pt_clust_10="13000.00000"></scales>
<clustering>
<clus scale="   55.593">  2  9  1 -1</clus>
<clus scale="   86.922">  5  6 -1 -1</clus>
<clus scale="   87.949">  7  8 -1 -1</clus>
<clus scale="  206.514">  5 10 -1 -1</clus>
<clus scale="  242.844">  1  7  2 -1</clus>
<clus scale="   55.593">  2  5  1 -1</clus>
</clustering>
</event>
<event>
10    2  0.4951045E-006  0.2719541E+03  0.7546771E-02  0.1126982E+00
         -4   -1    0    0    0  501 -0.00000000000E+00  0.00000000000E+00  0.18379342636E+03  0.18379342636E+03  0.00000000000E+00 0.  1.
         21   -1    0    0  503  502  0.00000000000E+00 -0.00000000000E+00 -0.36819036413E+03  0.36819036413E+03  0.00000000000E+00 0.  1.
         23    2    1    2    0    0  0.35695249746E+01  0.97354496535E+02  0.11333541386E+02  0.14588487854E+03  0.10799680145E+03 0.  0.
         23    2    1    2    0    0  0.56685502838E+02 -0.75112337789E+01 -0.13490901263E+03  0.17395593131E+03  0.93757983584E+02 0.  0.
        -11    1    4    4    0    0  0.49693152774E+02  0.32541311944E+02 -0.11326456875E+03  0.12789530465E+03  0.00000000000E+00 0.  1.
         11    1    4    4    0    0  0.69923500641E+01 -0.40052545723E+02 -0.21644443875E+02  0.46060626667E+02  0.00000000000E+00 0. -1.
        -11    1    3    3    0    0  0.29815258567E+02  0.10969388528E+03 -0.26138425890E+01  0.11370369512E+03  0.00000000000E+00 0.  1.
         11    1    3    3    0    0 -0.26245733592E+02 -0.12339388748E+02  0.13947383975E+02  0.32181183418E+02  0.00000000000E+00 0. -1.
         21    1    1    2  503  501 -0.44494633213E+01 -0.40891357532E+02 -0.12650397584E+03  0.13302314365E+03  0.00000000000E+00 0.  1.
         -4    1    1    2    0  502 -0.55805564491E+02 -0.48951905224E+02  0.65682509317E+02  0.99119836982E+02  0.00000000000E+00 0.  1.
<scales pt_clust_5="13000.00000" pt_clust_6="13000.00000" pt_clust_7="13000.00000" pt_clust_8="13000.00000" pt_clust_9="41.13272" pt_clust_10="13000.00000"></scales>
<clustering>
<clus scale="   41.133">  2  9  1 -1</clus>
<clus scale="   93.758">  5  6 -1 -1</clus>
<clus scale="   76.383">  5 10 -1 -1</clus>
<clus scale="  107.997">  7  8 -1 -1</clus>
<clus scale="  137.961">  1  7  2 -1</clus>
<clus scale="   41.133">  2  5  1 -1</clus>
</clustering>
</event>
<event>
10    2  0.4951045E-006  0.5873057E+03  0.7546771E-02  0.1050618E+00
         21   -1    0    0  501  502  0.00000000000E+00  0.00000000000E+00  0.24386007686E+03  0.24386007686E+03  0.00000000000E+00 0. -1.
          1   -1    0    0  503    0 -0.00000000000E+00 -0.00000000000E+00 -0.58635161118E+03  0.58635161118E+03  0.00000000000E+00 0. -1.
         23    2    1    2    0    0 -0.43524855902E+02 -0.23572902590E+02 -0.41669742400E+02  0.10964893172E+03  0.88523589950E+02 0.  0.
         23    2    1    2    0    0 -0.21521739797E+02 -0.10604744345E+03 -0.37138970980E+03  0.39843970349E+03  0.95470598784E+02 0.  0.
        -11    1    3    3    0    0 -0.44257795967E+02  0.22748545023E+02 -0.39691344108E+01  0.49919964267E+02  0.00000000000E+00 0.  1.
         11    1    3    3    0    0  0.73294006439E+00 -0.46321447613E+02 -0.37700607990E+02  0.59728967452E+02  0.00000000000E+00 0. -1.
        -11    1    4    4    0    0 -0.46242142219E+02 -0.10899102839E+03 -0.32313090085E+03  0.34413799423E+03  0.00000000000E+00 0. -1.
         11    1    4    4    0    0  0.24720402422E+02  0.29435849461E+01 -0.48258808943E+02  0.54301709262E+02  0.00000000000E+00 0.  1.
         21    1    1    2  503  502 -0.77053187865E+01 -0.51011472703E+02 -0.66370146499E+02  0.84062706543E+02  0.00000000000E+00 0. -1.
          1    1    1    2  501    0  0.72751914486E+02  0.18063181874E+03  0.13693806437E+03  0.23806034629E+03  0.00000000000E+00 0. -1.
<scales pt_clust_5="13000.00000" pt_clust_6="13000.00000" pt_clust_7="13000.00000" pt_clust_8="13000.00000" pt_clust_9="51.59016" pt_clust_10="13000.00000"></scales>
<clustering>
<clus scale="   51.590">  1  9  2 -1</clus>
<clus scale="   88.524">  5  6 -1 -1</clus>
<clus scale="   95.471">  7  8 -1 -1</clus>
<clus scale="  103.861">  2  5  1 -1</clus>
<clus scale="  146.313">  7 10 -1 -1</clus>
<clus scale="   51.590">  1  5  2 -1</clus>
</clustering>
</event>
<event>
10    2  0.4951045E-006  0.1425085E+03  0.7546771E-02  0.1227103E+00
         -4   -1    0    0    0  501 -0.00000000000E+00  0.00000000000E+00  0.18348191732E+03  0.18348191732E+03  0.00000000000E+00 0.  1.
         21   -1    0    0  501  502  0.00000000000E+00 -0.00000000000E+00 -0.22644471803E+03  0.22644471803E+03  0.00000000000E+00 0. -1.
         23    2    1    2    0    0 -0.19847133461E+01  0.33806889496E+02  0.86952217656E+02  0.13132482060E+03  0.92404953795E+02 0.  0.
         23    2    1    2    0    0  0.56292254831E+01 -0.25086647096E+02  0.35276506560E+02  0.10071757315E+03  0.90766566448E+02 0.  0.
        -13    1    3    3    0    0 -0.36141042200E+02  0.14488720261E+01  0.45752691220E+01  0.36458294653E+02  0.00000000000E+00 0.  1.
         13    1    3    3    0    0  0.34156328854E+02  0.32358017470E+02  0.82376948534E+02  0.94866525946E+02  0.00000000000E+00 0. -1.
        -13    1    4    4    0    0 -0.50104466185E+01 -0.58609834764E+02  0.17891330254E+02  0.61484282582E+02  0.00000000000E+00 0.  1.
         13    1    4    4    0    0  0.10639672102E+02  0.33523187668E+02  0.17385176305E+02  0.39233290571E+02  0.00000000000E+00 0. -1.
         21    1    1    2  503  502  0.17526769613E+02  0.11892271645E+02 -0.13096860082E+03  0.13267022341E+03  0.00000000000E+00 0. -1.
         -4    1    1    2    0  503 -0.21171281750E+02 -0.20612514046E+02 -0.34222924105E+02  0.45214018186E+02  0.00000000000E+00 0.  1.
<scales pt_clust_5="13000.00000" pt_clust_6="13000.00000" pt_clust_7="13000.00000" pt_clust_8="13000.00000" pt_clust_9="21.18050" pt_clust_10="13000.00000"></scales>
<clustering>
<clus scale="   21.181">  2  9  1 -1</clus>
<clus scale="   90.767">  7  8 -1 -1</clus>
<clus scale="   20.853">  7 10 -1 -1</clus>
<clus scale="   92.405">  5  6 -1 -1</clus>
<clus scale="   99.410">  1  5  2 -1</clus>
<clus scale="   21.181">  2  5  1 -1</clus>
</clustering>
</event>
<event>
10    2  0.4951045E-006  0.1122149E+03  0.7546771E-02  0.1265904E+00
         -3   -1    0    0    0  501 -0.00000000000E+00  0.00000000000E+00  0.41742137555E+03  0.41742137555E+03  0.00000000000E+00 0.  1.
         21   -1    0    0  501  502  0.00000000000E+00 -0.00000000000E+00 -0.84334690160E+02  0.84334690160E+02  0.00000000000E+00 0. -1.
         23    2    1    2    0    0  0.14928130943E+02  0.16896789638E+01  0.15830285437E+03  0.18280871475E+03  0.90186076406E+02 0.  0.
         23    2    1    2    0    0 -0.10546942595E+02 -0.11533434901E+02  0.18898614307E+03  0.21081224990E+03  0.92096603182E+02 0.  0.
        -11    1    4    4    0    0 -0.31492125986E+02  0.31433914838E+02  0.74946143951E+02  0.87159448680E+02  0.00000000000E+00 0.  1.
         11    1    4    4    0    0  0.20945183391E+02 -0.42967349739E+02  0.11403999911E+03  0.12365280122E+03  0.00000000000E+00 0. -1.
        -11    1    3    3    0    0 -0.33983400447E+02  0.13231147617E+02  0.39215072836E+02  0.53551439857E+02  0.00000000000E+00 0.  1.
         11    1    3    3    0    0  0.48911531389E+02 -0.11541468654E+02  0.11908778153E+03  0.12925727489E+03  0.00000000000E+00 0. -1.
         21    1    1    2  503  502  0.17053956505E+02  0.11249519715E+02 -0.56835512688E+02  0.60395899106E+02  0.00000000000E+00 0. -1.
         -3    1    1    2    0  503 -0.21435144852E+02 -0.14057637785E+01  0.42633200650E+02  0.47739201966E+02  0.00000000000E+00 0.  1.
<scales pt_clust_5="13000.00000" pt_clust_6="13000.00000" pt_clust_7="13000.00000" pt_clust_8="13000.00000" pt_clust_9="20.43010" pt_clust_10="13000.00000"></scales>
<clustering>
<clus scale="   20.430">  2  9  1 -1</clus>
<clus scale="   90.186">  7  8 -1 -1</clus>
<clus scale="   92.097">  5  6 -1 -1</clus>
<clus scale="   19.744">  5 10 -1 -1</clus>
<clus scale="   93.352">  1  7  2 -1</clus>
<clus scale="   20.430">  2  5  1 -1</clus>
</clustering>
</event>
<event>
10    2  0.4951045E-006  0.2452737E+03  0.7546771E-02  0.1145824E+00
         21   -1    0    0  501  502  0.00000000000E+00  0.00000000000E+00  0.49707309361E+02  0.49707309361E+02  0.00000000000E+00 0.  1.
          1   -1    0    0  503    0 -0.00000000000E+00 -0.00000000000E+00 -0.10789047562E+04  0.10789047562E+04  0.00000000000E+00 0. -1.
         23    2    1    2    0    0 -0.12655863006E+02 -0.86028395300E+02 -0.21078108266E+03  0.24566233063E+03  0.91434458579E+02 0.  0.
         23    2    1    2    0    0  0.69139753408E+02  0.11535773468E+03 -0.65047368595E+03  0.67095665458E+03  0.94758132945E+02 0.  0.
        -13    1    4    4    0    0  0.41154126641E+02 -0.45169432530E+01 -0.16836266706E+03  0.17337835094E+03  0.00000000000E+00 0. -1.
         13    1    4    4    0    0  0.27985626767E+02  0.11987467794E+03 -0.48211101889E+03  0.49757830364E+03  0.00000000000E+00 0.  1.
        -13    1    3    3    0    0 -0.15969667148E+02  0.16576369128E+02 -0.30630729526E+02  0.38315112861E+02  0.00000000000E+00 0.  1.
         13    1    3    3    0    0  0.33138041415E+01 -0.10260476443E+03 -0.18015035314E+03  0.20734721777E+03  0.00000000000E+00 0. -1.
         21    1    1    2  503  502 -0.43212234016E+02  0.36585857975E+02 -0.46868559752E+02  0.73501592266E+02  0.00000000000E+00 0.  1.
          1    1    1    2  501    0 -0.13271656385E+02 -0.65915197357E+02 -0.12107411842E+03  0.13849148803E+03  0.00000000000E+00 0. -1.
<scales pt_clust_5="13000.00000" pt_clust_6="13000.00000" pt_clust_7="13000.00000" pt_clust_8="13000.00000" pt_clust_9="56.61998" pt_clust_10="13000.00000"></scales>
<clustering>
<clus scale="   56.620">  1  9  2 -1</clus>
<clus scale="   91.434">  7  8 -1 -1</clus>
<clus scale="   94.758">  5  6 -1 -1</clus>
<clus scale="   61.845">  5 10 -1 -1</clus>
<clus scale="  119.017">  2  7  1 -1</clus>
<clus scale="   56.620">  1  5  2 -1</clus>
</clustering>
</event>
<event>
10    2  0.4951045E-006  0.2685987E+03  0.7546771E-02  0.1129247E+00
          2   -1    0    0  503    0 -0.00000000000E+00  0.00000000000E+00  0.46551827892E+03  0.46551827892E+03  0.00000000000E+00 0. -1.
         21   -1    0    0  501  502  0.00000000000E+00 -0.00000000000E+00 -0.14085424478E+03  0.14085424478E+03  0.00000000000E+00 0. -1.
         23    2    1    2    0    0  0.10947217365E+03  0.19218056258E+02  0.17876813074E+03  0.23079632806E+03  0.94633027982E+02 0.  0.
         23    2    1    2    0    0 -0.34831048167E+02  0.64640029370E+02  0.20718472186E+03  0.23881103740E+03  0.93347026197E+02 0.  0.
        -11    1    3    3    0    0  0.10100579238E+03  0.44399840198E+02  0.17029012002E+03  0.20290944010E+03  0.00000000000E+00 0. -1.
         11    1    3    3    0    0  0.84663812709E+01 -0.25181783940E+02  0.84780107206E+01  0.27886887958E+02  0.00000000000E+00 0.  1.
        -13    1    4    4    0    0  0.10525249665E+02  0.37245336471E+02  0.18633325136E+02  0.42955753689E+02  0.00000000000E+00 0. -1.
         13    1    4    4    0    0 -0.45356297832E+02  0.27394692899E+02  0.18855139672E+03  0.19585528371E+03  0.00000000000E+00 0.  1.
         21    1    1    2  503  502 -0.48810305091E+02 -0.19773132088E+02 -0.32697625291E+02  0.61988364516E+02  0.00000000000E+00 0.  1.
          2    1    1    2  501    0 -0.25830820390E+02 -0.64084953541E+02 -0.28591193169E+02  0.74776793721E+02  0.00000000000E+00 0. -1.
<scales pt_clust_5="13000.00000" pt_clust_6="13000.00000" pt_clust_7="13000.00000" pt_clust_8="13000.00000" pt_clust_9="52.66329" pt_clust_10="13000.00000"></scales>
<clustering>
<clus scale="   52.663">  2  9  1 -1</clus>
<clus scale="   93.347">  7  8 -1 -1</clus>
<clus scale="   91.738">  7 10 -1 -1</clus>
<clus scale="   94.633">  5  6 -1 -1</clus>
<clus scale="  135.422">  1  5  2 -1</clus>
<clus scale="   52.663">  2  5  1 -1</clus>
</clustering>
</event>
<event>
10    2  0.4951045E-006  0.2000402E+03  0.7546771E-02  0.1174650E+00
         21   -1    0    0  503  502  0.00000000000E+00  0.00000000000E+00  0.24194188357E+03  0.24194188357E+03  0.00000000000E+00 0. -1.
          1   -1    0    0  502    0 -0.00000000000E+00 -0.00000000000E+00 -0.22069615679E+03  0.22069615679E+03  0.00000000000E+00 0. -1.
         23    2    1    2    0    0  0.69113469151E+02 -0.98138716353E+01 -0.97892405172E+02  0.15099562526E+03  0.91344250841E+02 0.  0.
         23    2    1    2    0    0 -0.10356524477E+03 -0.43299515367E+02  0.20310247563E+02  0.14516554627E+03  0.89777066742E+02 0.  0.
        -11    1    3    3    0    0 -0.16974108221E+01  0.24077151151E+02 -0.58245694956E+02  0.63048801670E+02  0.00000000000E+00 0.  1.
         11    1    3    3    0    0  0.70810879973E+02 -0.33891022786E+02 -0.39646710215E+02  0.87946823586E+02  0.00000000000E+00 0. -1.
        -11    1    4    4    0    0 -0.39150260680E+02  0.21932069608E+02 -0.14415175563E+02  0.47133383871E+02  0.00000000000E+00 0.  1.
         11    1    4    4    0    0 -0.64414984091E+02 -0.65231584975E+02  0.34725423126E+02  0.98032162401E+02  0.00000000000E+00 0. -1.
         21    1    1    2  503  501 -0.22500654986E+02  0.63737673104E+02  0.81755397843E+02  0.10607881751E+03  0.00000000000E+00 0. -1.
          1    1    1    2  501    0  0.56952430606E+02 -0.10624286101E+02  0.17072486542E+02  0.60398051325E+02  0.00000000000E+00 0. -1.
<scales pt_clust_5="13000.00000" pt_clust_6="13000.00000" pt_clust_7="13000.00000" pt_clust_8="13000.00000" pt_clust_9="67.59268" pt_clust_10="13000.00000"></scales>
<clustering>
<clus scale="   67.593">  1  9  2 -1</clus>
<clus scale="   89.777">  7  8 -1 -1</clus>
<clus scale="   51.422">  7 10 -1 -1</clus>
<clus scale="   91.344">  5  6 -1 -1</clus>
<clus scale="  112.167">  2  5  1 -1</clus>
<clus scale="   67.593">  1  5  2 -1</clus>
</clustering>
</event>
<event>
10    2  0.4951045E-006  0.1603493E+03  0.7546771E-02  0.1209018E+00
         21   -1    0    0  503  502  0.00000000000E+00  0.00000000000E+00  0.28890335598E+03  0.28890335598E+03  0.00000000000E+00 0. -1.
          2   -1    0    0  502    0 -0.00000000000E+00 -0.00000000000E+00 -0.10711270323E+03  0.10711270323E+03  0.00000000000E+00 0. -1.
         23    2    1    2    0    0  0.71097940087E+01 -0.40276216021E+02  0.48859522792E+01  0.99628956414E+02  0.90715674934E+02 0.  0.
         23    2    1    2    0    0 -0.47564995672E+01 -0.40220628041E+01  0.13752555928E+02  0.90654576135E+02  0.89388579262E+02 0.  0.
        -13    1    3    3    0    0 -0.27207904078E+02  0.10540488043E+02  0.21329771033E+02  0.36143202193E+02  0.00000000000E+00 0.  1.
         13    1    3    3    0    0  0.34317698087E+02 -0.50816704063E+02 -0.16443818753E+02  0.63485754221E+02  0.00000000000E+00 0. -1.
        -13    1    4    4    0    0  0.37222533043E+02  0.30865245447E+01 -0.13937166071E+02  0.39865877615E+02  0.00000000000E+00 0.  1.
         13    1    4    4    0    0 -0.41979032610E+02 -0.71085873488E+01  0.27689721999E+02  0.50788698520E+02  0.00000000000E+00 0. -1.
         21    1    1    2  503  501  0.47023385273E+02 -0.69740698525E+01  0.99367695162E+02  0.11015341690E+03  0.00000000000E+00 0. -1.
          2    1    1    2  501    0 -0.49376679715E+02  0.51272348677E+02  0.63784449380E+02  0.95579109753E+02  0.00000000000E+00 0. -1.
<scales pt_clust_5="13000.00000" pt_clust_6="13000.00000" pt_clust_7="13000.00000" pt_clust_8="13000.00000" pt_clust_9="47.53774" pt_clust_10="13000.00000"></scales>
<clustering>
<clus scale="   47.538">  1  9  2 -1</clus>
<clus scale="   89.389">  7  8 -1 -1</clus>
<clus scale="   56.313">  7 10 -1 -1</clus>
<clus scale="   90.716">  5  6 -1 -1</clus>
<clus scale="  102.143">  2  5  1 -1</clus>
<clus scale="   47.538">  1  5  2 -1</clus>
</clustering>
</event>
<event>
10    2  0.4951045E-006  0.4862869E+03  0.7546771E-02  0.1043132E+00
          2   -1    0    0  503    0 -0.00000000000E+00  0.00000000000E+00  0.76303809385E+03  0.76303809385E+03  0.00000000000E+00 0. -1.
         21   -1    0    0  501  502  0.00000000000E+00 -0.00000000000E+00 -0.26068924923E+03  0.26068924923E+03  0.00000000000E+00 0.  1.
         23    2    1    2    0    0 -0.16648205342E+03  0.11875932159E+03  0.42913754429E+03  0.48415510227E+03  0.91799131563E+02 0.  0.
         23    2    1    2    0    0 -0.70853199529E+02  0.40367586288E+02  0.13020812824E+03  0.17901991092E+03  0.91892621778E+02 0.  0.
        -11    1    4    4    0    0 -0.48224477494E+02 -0.24528379980E+02  0.55546123872E+02  0.77541044171E+02  0.00000000000E+00 0.  1.
         11    1    4    4    0    0 -0.22628722036E+02  0.64895966268E+02  0.74662004372E+02  0.10147886674E+03  0.00000000000E+00 0. -1.
        -11    1    3    3    0    0 -0.36046797102E+01  0.43633544486E+02  0.10363209483E+03  0.11250107110E+03  0.00000000000E+00 0. -1.
         11    1    3    3    0    0 -0.16287737371E+03  0.75125777103E+02  0.32550544946E+03  0.37165403117E+03  0.00000000000E+00 0.  1.
         21    1    1    2  503  502 -0.35633532080E+02 -0.47583589564E+01  0.14744722828E+02  0.38856112000E+02  0.00000000000E+00 0.  1.
          2    1    1    2  501    0  0.27296878503E+03 -0.15436854892E+03 -0.71741550744E+02  0.32169621789E+03  0.00000000000E+00 0. -1.
<scales pt_clust_5="13000.00000" pt_clust_6="13000.00000" pt_clust_7="13000.00000" pt_clust_8="13000.00000" pt_clust_9="35.94983" pt_clust_10="13000.00000"></scales>
<clustering>
<clus scale="   35.950">  2  9  1 -1</clus>
<clus scale="   91.799">  7  8 -1 -1</clus>
<clus scale="   91.893">  5  6 -1 -1</clus>
<clus scale="  226.827">  1  7  2 -1</clus>
<clus scale="  205.045">  5 10 -1 -1</clus>
<clus scale="   35.950">  2  5  1 -1</clus>
</clustering>
</event>
<event>
10    2  0.4951045E-006  0.3261555E+03  0.7546771E-02  0.1116880E+00
         -1   -1    0    0    0  501 -0.00000000000E+00  0.00000000000E+00  0.19017461875E+03  0.19017461875E+03  0.00000000000E+00 0.  1.
         21   -1    0    0  503  502  0.00000000000E+00 -0.00000000000E+00 -0.42990853434E+03  0.42990853434E+03  0.00000000000E+00 0.  1.
         23    2    1    2    0    0 -0.11151917922E+01  0.99826871682E+01 -0.16394696115E+03  0.18835521155E+03  0.92185584300E+02 0.  0.
         23    2    1    2    0    0 -0.21891111247E+02 -0.16545131587E+02  0.12398082285E+03  0.15720772373E+03  0.92682586462E+02 0.  0.
        -11    1    3    3    0    0 -0.36622298737E+02  0.14490317093E+00 -0.13928320188E+03  0.14401744369E+03  0.00000000000E+00 0.  1.
         11    1    3    3    0    0  0.35507106945E+02  0.98377839973E+01 -0.24663759271E+02  0.44337767861E+02  0.00000000000E+00 0. -1.
        -13    1    4    4    0    0 -0.40339384288E+02 -0.24047794759E+01  0.12745266880E+03  0.13370576529E+03  0.00000000000E+00 0.  1.
         13    1    4    4    0    0  0.18448273041E+02 -0.14140352111E+02 -0.34718459434E+01  0.23501958435E+02  0.00000000000E+00 0. -1.
         21    1    1    2  503  501 -0.75105445021E+02  0.29646504570E+02 -0.53397838945E+02  0.96804299021E+02  0.00000000000E+00 0.  1.
         -1    1    1    2    0  502  0.98111748060E+02 -0.23084060152E+02 -0.14636993834E+03  0.17771591879E+03  0.00000000000E+00 0.  1.
<scales pt_clust_5="13000.00000" pt_clust_6="13000.00000" pt_clust_7="13000.00000" pt_clust_8="13000.00000" pt_clust_9="80.74493" pt_clust_10="13000.00000"></scales>
<clustering>
<clus scale="   80.745">  2  9  1 -1</clus>
<clus scale="   92.186">  5  6 -1 -1</clus>
<clus scale="   92.683">  7  8 -1 -1</clus>
<clus scale="   64.520">  7 10 -1 -1</clus>
<clus scale="  102.874">  1  5  2 -1</clus>
<clus scale="   80.745">  2  5  1 -1</clus>
</clustering>
</event>
<event>
10    2  0.4951045E-006  0.3255866E+03  0.7546771E-02  0.1113860E+00
         -2   -1    0    0    0  501 -0.00000000000E+00  0.00000000000E+00  0.32347149465E+03  0.32347149465E+03  0.00000000000E+00 0.  1.
         21   -1    0    0  503  502  0.00000000000E+00 -0.00000000000E+00 -0.20779410957E+03  0.20779410957E+03  0.00000000000E+00 0.  1.
         23    2    1    2    0    0 -0.22796593996E+02 -0.56936392496E+02 -0.67577850271E+02  0.12604307035E+03  0.86940509817E+02 0.  0.
         23    2    1    2    0    0  0.39099398073E+02  0.18131424196E+03  0.80983919403E+02  0.22674042996E+03  0.10222137793E+03 0.  0.
        -13    1    3    3    0    0  0.29386427748E+02 -0.10308125880E+02 -0.40308757490E+02  0.50937368653E+02  0.00000000000E+00 0.  1.
         13    1    3    3    0    0 -0.52183021744E+02 -0.46628266616E+02 -0.27269092781E+02  0.75105701695E+02  0.00000000000E+00 0. -1.
        -13    1    4    4    0    0  0.71639174216E+02  0.92249150258E+02  0.49105667075E+02  0.12670218445E+03  0.00000000000E+00 0. -1.
         13    1    4    4    0    0 -0.32539776143E+02  0.89065091707E+02  0.31878252328E+02  0.10003824550E+03  0.00000000000E+00 0.  1.
         21    1    1    2  503  501  0.14191138403E+02 -0.22291504567E+02 -0.54393142842E+01  0.26979357386E+02  0.00000000000E+00 0. -1.
         -2    1    1    2    0  502 -0.30493942480E+02 -0.10208634490E+03  0.10771063023E+03  0.15150274654E+03  0.00000000000E+00 0.  1.
<scales pt_clust_5="13000.00000" pt_clust_6="13000.00000" pt_clust_7="13000.00000" pt_clust_8="13000.00000" pt_clust_9="26.42536" pt_clust_10="13000.00000"></scales>
<clustering>
<clus scale="   26.425">  2  9  1 -1</clus>
<clus scale="   86.941">  5  6 -1 -1</clus>
<clus scale="  102.221">  7  8 -1 -1</clus>
<clus scale="  108.544">  7 10 -1 -1</clus>
<clus scale="  111.598">  1  5  2 -1</clus>
<clus scale="   26.425">  2  5  1 -1</clus>
</clustering>
</event>
<event>
10    2  0.4951045E-006  0.1327026E+03  0.7546771E-02  0.1237022E+00
         21   -1    0    0  501  502  0.00000000000E+00  0.00000000000E+00  0.71500607329E+02  0.71500607329E+02  0.00000000000E+00 0. -1.
         -1   -1    0    0    0  501 -0.00000000000E+00 -0.00000000000E+00 -0.52407554526E+03  0.52407554526E+03  0.00000000000E+00 0.  1.
         23    2    1    2    0    0 -0.31144686931E+02 -0.45118937460E+02 -0.32260190453E+03  0.33968667558E+03  0.91155574254E+02 0.  0.
         23    2    1    2    0    0 -0.31714374541E+02  0.26188893423E+02 -0.29910179497E+02  0.10384754733E+03  0.90542998391E+02 0.  0.
        -11    1    3    3    0    0 -0.39003899034E+02  0.12819874020E+02 -0.19573444036E+03  0.19999406105E+03  0.00000000000E+00 0. -1.
         11    1    3    3    0    0  0.78592121022E+01 -0.57938811480E+02 -0.12686746417E+03  0.13969261454E+03  0.00000000000E+00 0.  1.
        -11    1    4    4    0    0 -0.29968822199E+02  0.46571329436E+02 -0.50409148837E+02  0.74887257367E+02  0.00000000000E+00 0.  1.
         11    1    4    4    0    0 -0.17455523422E+01 -0.20382436013E+02  0.20498969339E+02  0.28960289964E+02  0.00000000000E+00 0. -1.
         21    1    1    2  503  502  0.72194778211E+02  0.45942925435E+02 -0.69950574279E+02  0.11052565874E+03  0.00000000000E+00 0. -1.
         -1    1    1    2    0  503 -0.93357167386E+01 -0.27012881398E+02 -0.30112279624E+02  0.41516270938E+02  0.00000000000E+00 0.  1.
<scales pt_clust_5="13000.00000" pt_clust_6="13000.00000" pt_clust_7="13000.00000" pt_clust_8="13000.00000" pt_clust_9="85.57358" pt_clust_10="13000.00000"></scales>
<clustering>
<clus scale="   85.574">  1  9  2 -1</clus>
<clus scale="   90.543">  7  8 -1 -1</clus>
<clus scale="   21.936">  7 10 -1 -1</clus>
<clus scale="   91.156">  5  6 -1 -1</clus>
<clus scale="  100.385">  2  5  1 -1</clus>
<clus scale="   85.574">  1  5  2 -1</clus>
</clustering>
</event>
<event>
10    2  0.4951045E-006  0.1154481E+03  0.7546771E-02  0.1258484E+00
          2   -1    0    0  503    0 -0.00000000000E+00  0.00000000000E+00  0.71002281706E+03  0.71002281706E+03  0.00000000000E+00 0. -1.
         21   -1    0    0  501  502  0.00000000000E+00 -0.00000000000E+00 -0.30363937354E+02  0.30363937354E+02  0.00000000000E+00 0. -1.
         23    2    1    2    0    0 -0.45847790927E+02 -0.11645599263E+01  0.43616368688E+03  0.44798058186E+03  0.91348036841E+02 0.  0.
         23    2    1    2    0    0  0.27027638155E+01  0.15510662069E+02  0.16679149983E+03  0.19134553783E+03  0.92443630719E+02 0.  0.
        -11    1    3    3    0    0 -0.41689960089E+02 -0.40805540836E+02  0.31712863360E+03  0.32244955448E+03  0.00000000000E+00 0. -1.
         11    1    3    3    0    0 -0.41578308376E+01  0.39640980910E+02  0.11903505328E+03  0.12553102737E+03  0.00000000000E+00 0.  1.
        -13    1    4    4    0    0 -0.20184446184E+02  0.27257317009E+02  0.14483374480E+02  0.36880094016E+02  0.00000000000E+00 0. -1.
         13    1    4    4    0    0  0.22887209999E+02 -0.11746654941E+02  0.15230812535E+03  0.15446544381E+03  0.00000000000E+00 0.  1.
         21    1    1    2  503  502  0.29467926550E+02 -0.29048024006E+02  0.32864403014E+02  0.52841417272E+02  0.00000000000E+00 0. -1.
          2    1    1    2  501    0  0.13677100562E+02  0.14701921864E+02  0.43839289982E+02  0.48219217459E+02  0.00000000000E+00 0. -1.
<scales pt_clust_5="13000.00000" pt_clust_6="13000.00000" pt_clust_7="13000.00000" pt_clust_8="13000.00000" pt_clust_9="41.37809" pt_clust_10="13000.00000"></scales>
<clustering>
<clus scale="   41.378">  2  9  1 -1</clus>
<clus scale="   91.348">  5  6 -1 -1</clus>
<clus scale="   92.444">  7  8 -1 -1</clus>
<clus scale="   20.441">  7 10 -1 -1</clus>
<clus scale="   99.136">  1  5  2 -1</clus>
<clus scale="   41.378">  2  5  1 -1</clus>
</clustering>
</event>
<event>
10    2  0.4951045E-006  0.4025073E+03  0.7546771E-02  0.1094981E+00
         21   -1    0    0  501  502  0.00000000000E+00  0.00000000000E+00  0.23095350628E+03  0.23095350628E+03  0.00000000000E+00 0. -1.
          1   -1    0    0  503    0 -0.00000000000E+00 -0.00000000000E+00 -0.87094476728E+03  0.87094476728E+03  0.00000000000E+00 0. -1.
         23    2    1    2    0    0 -0.32078730246E+01 -0.64536448109E+01 -0.12894414203E+03  0.16034664481E+03  0.95039543116E+02 0.  0.
         23    2    1    2    0    0  0.12368618096E+03  0.12138492582E+03 -0.59336996290E+03  0.62495278833E+03  0.91899418847E+02 0.  0.
        -11    1    4    4    0    0  0.40175385456E+02  0.41571090381E+02 -0.79735055213E+02  0.98488050960E+02  0.00000000000E+00 0.  1.
         11    1    4    4    0    0  0.83510795508E+02  0.79813835443E+02 -0.51363490769E+03  0.52646473737E+03  0.00000000000E+00 0. -1.
        -13    1    3    3    0    0 -0.86440690020E+01 -0.50346873477E+02 -0.69304600606E+02  0.86096778470E+02  0.00000000000E+00 0. -1.
         13    1    3    3    0    0  0.54361959773E+01  0.43893228666E+02 -0.59639541427E+02  0.74249866337E+02  0.00000000000E+00 0.  1.
         21    1    1    2  503  502 -0.36181961947E+02 -0.72093848205E+01  0.15664241689E+03  0.16092842001E+03  0.00000000000E+00 0. -1.
          1    1    1    2  501    0 -0.84296345992E+02 -0.10772189619E+03 -0.74319572951E+02  0.15567042041E+03  0.00000000000E+00 0. -1.
<scales pt_clust_5="13000.00000" pt_clust_6="13000.00000" pt_clust_7="13000.00000" pt_clust_8="13000.00000" pt_clust_9="36.89322" pt_clust_10="13000.00000"></scales>
<clustering>
<clus scale="   36.893">  1  9  2 -1</clus>
<clus scale="   91.899">  5  6 -1 -1</clus>
<clus scale="   95.040">  7  8 -1 -1</clus>
<clus scale="   96.019">  2  7  1 -1</clus>
<clus scale="  155.907">  5 10 -1 -1</clus>
<clus scale="   36.893">  1  5  2 -1</clus>
</clustering>
</event>
<event>
10    2  0.4951045E-006  0.3245363E+03  0.7546771E-02  0.1101122E+00
         21   -1    0    0  501  502  0.00000000000E+00  0.00000000000E+00  0.24242662937E+03  0.24242662937E+03  0.00000000000E+00 0.  1.
          2   -1    0    0  503    0 -0.00000000000E+00 -0.00000000000E+00 -0.97725447393E+03  0.97725447393E+03  0.00000000000E+00 0. -1.
         23    2    1    2    0    0 -0.10392464270E+03 -0.74892468553E+02 -0.58364145745E+03  0.60415894516E+03  0.89227052854E+02 0.  0.
         23    2    1    2    0    0  0.11349484653E+02  0.84977366590E+02 -0.40606229119E+01  0.12141400935E+03  0.85877292544E+02 0.  0.
        -11    1    3    3    0    0 -0.54751995986E+02 -0.62130504347E+02 -0.49593746835E+03  0.50280409022E+03  0.00000000000E+00 0. -1.
         11    1    3    3    0    0 -0.49172646717E+02 -0.12761964207E+02 -0.87703989100E+02  0.10135485494E+03  0.00000000000E+00 0.  1.
        -13    1    4    4    0    0  0.35348486349E+02  0.80406383139E+02 -0.22659928258E+02  0.90709284450E+02  0.00000000000E+00 0. -1.
         13    1    4    4    0    0 -0.23999001696E+02  0.45709834505E+01  0.18599305346E+02  0.30704724905E+02  0.00000000000E+00 0.  1.
         21    1    1    2  503  502  0.19490441997E+03 -0.17701122384E+02  0.10486156585E+03  0.22202930134E+03  0.00000000000E+00 0.  1.
          2    1    1    2  501    0 -0.10232926192E+03  0.76162243481E+01 -0.25198733006E+03  0.27207884745E+03  0.00000000000E+00 0. -1.
<scales pt_clust_5="13000.00000" pt_clust_6="13000.00000" pt_clust_7="13000.00000" pt_clust_8="13000.00000" pt_clust_9="181.37982" pt_clust_10="13000.00000"></scales>
<clustering>
<clus scale="   85.877">  7  8 -1 -1</clus>
<clus scale="   89.227">  5  6 -1 -1</clus>
<clus scale="  102.612">  7 10 -1 -1</clus>
<clus scale="  156.111">  2  5  1 -1</clus>
<clus scale="  181.380">  1  9  2 -1</clus>
<clus scale="  181.380">  1  5  2 -1</clus>
</clustering>
</event>
<event>
10    2  0.4951045E-006  0.2789737E+03  0.7546771E-02  0.1106510E+00
         21   -1    0    0  501  502  0.00000000000E+00  0.00000000000E+00  0.82998290956E+02  0.82998290956E+02  0.00000000000E+00 0.  1.
          3   -1    0    0  503    0 -0.00000000000E+00 -0.00000000000E+00 -0.11110139046E+04  0.11110139046E+04  0.00000000000E+00 0. -1.
         23    2    1    2    0    0  0.17946553236E+03 -0.60020031690E+02 -0.49530198969E+03  0.53795533696E+03  0.90893355431E+02 0.  0.
         23    2    1    2    0    0 -0.78390770748E+01  0.14293592528E+02 -0.21820810053E+03  0.23759491460E+03  0.92578671361E+02 0.  0.
        -11    1    3    3    0    0  0.23392924587E+02 -0.44396249357E+02 -0.16191408274E+03  0.16951231834E+03  0.00000000000E+00 0. -1.
         11    1    3    3    0    0  0.15607260778E+03 -0.15623782333E+02 -0.33338790695E+03  0.36844301862E+03  0.00000000000E+00 0.  1.
        -13    1    4    4    0    0  0.74532610173E+01  0.47500038315E+02 -0.17244189490E+03  0.17901958512E+03  0.00000000000E+00 0.  1.
         13    1    4    4    0    0 -0.15292338092E+02 -0.33206445787E+02 -0.45766205628E+02  0.58575329480E+02  0.00000000000E+00 0. -1.
         21    1    1    2  503  502  0.50408820230E+01 -0.20204348175E+02  0.23509583091E+02  0.31405838213E+02  0.00000000000E+00 0.  1.
          3    1    1    2  501    0 -0.17666733731E+03  0.65930787337E+02 -0.33801510653E+03  0.38705610579E+03  0.00000000000E+00 0. -1.
<scales pt_clust_5="13000.00000" pt_clust_6="13000.00000" pt_clust_7="13000.00000" pt_clust_8="13000.00000" pt_clust_9="20.82369" pt_clust_10="13000.00000"></scales>
<clustering>
<clus scale="   20.824">  1  9  2 -1</clus>
<clus scale="   90.893">  5  6 -1 -1</clus>
<clus scale="   92.579">  7  8 -1 -1</clus>
<clus scale="  183.522">  7 10 -1 -1</clus>
<clus scale="  213.920">  2  5  1 -1</clus>
<clus scale="   20.824">  1  5  2 -1</clus>
</clustering>
</event>
<event>
10    2  0.4951045E-006  0.2419964E+03  0.7546771E-02  0.1125011E+00
         -3   -1    0    0    0  501 -0.00000000000E+00  0.00000000000E+00  0.58753432638E+03  0.58753432638E+03  0.00000000000E+00 0.  1.
         21   -1    0    0  501  502  0.00000000000E+00 -0.00000000000E+00 -0.11472926623E+03  0.11472926623E+03  0.00000000000E+00 0.  1.
         23    2    1    2    0    0 -0.13518622214E+03 -0.12261628768E+03  0.28669821758E+03  0.35103185037E+03  0.87848866538E+02 0.  0.
         23    2    1    2    0    0  0.67761006164E+02  0.96437293482E+02  0.19160835627E+03  0.24320355802E+03  0.92425661523E+02 0.  0.
        -11    1    4    4    0    0  0.79325959274E+02  0.39370254588E+02  0.13851126763E+03  0.16440193436E+03  0.00000000000E+00 0.  1.
         11    1    4    4    0    0 -0.11564953110E+02  0.57067038894E+02  0.53097088645E+02  0.78801623658E+02  0.00000000000E+00 0. -1.
        -11    1    3    3    0    0 -0.33345652658E+02 -0.56731744429E+02  0.17174098648E+03  0.18391680134E+03  0.00000000000E+00 0. -1.
         11    1    3    3    0    0 -0.10184056948E+03 -0.65884543252E+02  0.11495723110E+03  0.16711504903E+03  0.00000000000E+00 0.  1.
         21    1    1    2  503  502  0.86944952205E+01 -0.22897108853E+02 -0.18110046556E+02  0.30460558550E+02  0.00000000000E+00 0.  1.
         -3    1    1    2    0  503  0.58730720755E+02  0.49076103051E+02  0.12608532855E+02  0.77567625668E+02  0.00000000000E+00 0.  1.
<scales pt_clust_5="13000.00000" pt_clust_6="13000.00000" pt_clust_7="13000.00000" pt_clust_8="13000.00000" pt_clust_9="24.49228" pt_clust_10="13000.00000"></scales>
<clustering>
<clus scale="   24.492">  2  9  1 -1</clus>
<clus scale="   87.849">  7  8 -1 -1</clus>
<clus scale="   92.426">  5  6 -1 -1</clus>
<clus scale="   74.127">  5 10 -1 -1</clus>
<clus scale="  205.583">  1  7  2 -1</clus>
<clus scale="   24.492">  2  5  1 -1</clus>
</clustering>
</event>
<event>
10    2  0.4951045E-006  0.4588248E+03  0.7546771E-02  0.1062704E+00
          2   -1    0    0  502    0 -0.00000000000E+00  0.00000000000E+00  0.84916266991E+03  0.84916266991E+03  0.00000000000E+00 0. -1.
         21   -1    0    0  503  502  0.00000000000E+00 -0.00000000000E+00 -0.15310346017E+03  0.15310346017E+03  0.00000000000E+00 0. -1.
         23    2    1    2    0    0  0.90410900576E+02  0.88318886385E+02  0.35411929190E+03  0.38741657287E+03  0.93363651393E+02 0.  0.
         23    2    1    2    0    0 -0.16489005438E+03 -0.11371303717E+03  0.21159905915E+02  0.23033914894E+03  0.11175418139E+03 0.  0.
        -11    1    4    4    0    0 -0.87505540685E+01 -0.42771331106E+02  0.38179256455E+02  0.57996677358E+02  0.00000000000E+00 0.  1.
         11    1    4    4    0    0 -0.15613950031E+03 -0.70941706066E+02 -0.17019350540E+02  0.17234247158E+03  0.00000000000E+00 0. -1.
        -11    1    3    3    0    0  0.41514383248E+02  0.14020667971E+02  0.23335253615E+03  0.23743089368E+03  0.00000000000E+00 0.  1.
         11    1    3    3    0    0  0.48896517328E+02  0.74298218414E+02  0.12076675575E+03  0.14998567918E+03  0.00000000000E+00 0. -1.
         21    1    1    2  503  501  0.37546519390E+01 -0.33919497035E+02 -0.14261298136E+02  0.36986677531E+02  0.00000000000E+00 0. -1.
          2    1    1    2  501    0  0.70724501866E+02  0.59313647822E+02  0.33504131007E+03  0.34752373075E+03  0.00000000000E+00 0. -1.
<scales pt_clust_5="13000.00000" pt_clust_6="13000.00000" pt_clust_7="13000.00000" pt_clust_8="13000.00000" pt_clust_9="34.12667" pt_clust_10="13000.00000"></scales>
<clustering>
<clus scale="   34.127">  2  9  1 -1</clus>
<clus scale="   93.364">  7  8 -1 -1</clus>
<clus scale="  111.754">  5  6 -1 -1</clus>
<clus scale="   91.389">  5 10 -1 -1</clus>
<clus scale="  154.975">  1  7  2 -1</clus>
<clus scale="   34.127">  2  5  1 -1</clus>
</clustering>
</event>
<event>
10    2  0.4951045E-006  0.4097777E+03  0.7546771E-02  0.1046446E+00
          1   -1    0    0  502    0 -0.00000000000E+00  0.00000000000E+00  0.14330714214E+04  0.14330714214E+04  0.00000000000E+00 0. -1.
         21   -1    0    0  503  502  0.00000000000E+00 -0.00000000000E+00 -0.16540600867E+03  0.16540600867E+03  0.00000000000E+00 0. -1.
         23    2    1    2    0    0  0.75317431534E+02 -0.32861036410E+03  0.10736507725E+04  0.11291175531E+04  0.92319990151E+02 0.  0.
         23    2    1    2    0    0  0.14821045307E+02  0.18000839401E+03  0.20158876497E+03  0.28533319287E+03  0.90301248554E+02 0.  0.
        -13    1    3    3    0    0 -0.90112813864E+01 -0.16700139708E+03  0.51824353842E+03  0.54456132339E+03  0.00000000000E+00 0.  1.
         13    1    3    3    0    0  0.84328712920E+02 -0.16160896702E+03  0.55540723409E+03  0.58455622974E+03  0.00000000000E+00 0. -1.
        -13    1    4    4    0    0  0.44944740485E+02  0.12480189060E+03  0.10108547942E+03  0.16677474552E+03  0.00000000000E+00 0. -1.
         13    1    4    4    0    0 -0.30123695178E+02  0.55206503415E+02  0.10050328555E+03  0.11855844735E+03  0.00000000000E+00 0.  1.
         21    1    1    2  503  501 -0.27090977124E+02  0.23678107884E+02  0.20349019503E+02  0.41335897586E+02  0.00000000000E+00 0. -1.
          1    1    1    2  501    0 -0.63047499717E+02  0.12492386220E+03 -0.27923144252E+02  0.14269078650E+03  0.00000000000E+00 0. -1.
<scales pt_clust_5="13000.00000" pt_clust_6="13000.00000" pt_clust_7="13000.00000" pt_clust_8="13000.00000" pt_clust_9="35.98019" pt_clust_10="13000.00000"></scales>
<clustering>
<clus scale="   35.980">  2  9  1 -1</clus>
<clus scale="   90.301">  7  8 -1 -1</clus>
<clus scale="   92.320">  5  6 -1 -1</clus>
<clus scale="  158.469">  7 10 -1 -1</clus>
<clus scale="  344.537">  1  5  2 -1</clus>
<clus scale="   35.980">  2  5  1 -1</clus>
</clustering>
</event>
<event>
10    2  0.4951045E-006  0.1377638E+03  0.7546771E-02  0.1228182E+00
          1   -1    0    0  502    0 -0.00000000000E+00  0.00000000000E+00  0.69118472468E+02  0.69118472468E+02  0.00000000000E+00 0. -1.
         21   -1    0    0  503  502  0.00000000000E+00 -0.00000000000E+00 -0.37558469977E+03  0.37558469977E+03  0.00000000000E+00 0.  1.
         23    2    1    2    0    0  0.19658281036E+02 -0.52878417422E+02 -0.38539837436E+02  0.11437566301E+03  0.91727303337E+02 0.  0.
         23    2    1    2    0    0 -0.14982322016E+02  0.58655059724E+02 -0.85506325591E+02  0.13820616028E+03  0.90137256551E+02 0.  0.
        -11    1    4    4    0    0 -0.37503006406E+02  0.70350324126E+02 -0.48438381860E+02  0.93284084555E+02  0.00000000000E+00 0.  1.
         11    1    4    4    0    0  0.22520684389E+02 -0.11695264402E+02 -0.37067943732E+02  0.44922075723E+02  0.00000000000E+00 0. -1.
        -11    1    3    3    0    0 -0.21828493116E+02 -0.32291400845E+02 -0.53061275886E+02  0.65838565286E+02  0.00000000000E+00 0.  1.
         11    1    3    3    0    0  0.41486774151E+02 -0.20587016577E+02  0.14521438449E+02  0.48537097726E+02  0.00000000000E+00 0. -1.
         21    1    1    2  503  501  0.18639229690E+02  0.87490820526E+01 -0.14051215182E+03  0.14201278861E+03  0.00000000000E+00 0.  1.
          1    1    1    2  501    0 -0.23315188710E+02 -0.14525724354E+02 -0.41907912447E+02  0.50108560329E+02  0.00000000000E+00 0. -1.
<scales pt_clust_5="13000.00000" pt_clust_6="13000.00000" pt_clust_7="13000.00000" pt_clust_8="13000.00000" pt_clust_9="20.59047" pt_clust_10="13000.00000"></scales>
<clustering>
<clus scale="   20.590">  2  9  1 -1</clus>
<clus scale="   90.137">  5  6 -1 -1</clus>
<clus scale="   23.460">  5 10 -1 -1</clus>
<clus scale="   91.727">  7  8 -1 -1</clus>
<clus scale="  107.605">  1  7  2 -1</clus>
<clus scale="   20.590">  2  5  1 -1</clus>
</clustering>
</event>
<event>
10    2  0.5686359E-006  0.1984080E+03  0.7546771E-02  0.1168254E+00
         21   -1    0    0  503  502  0.00000000000E+00  0.00000000000E+00  0.14580821315E+03  0.14580821315E+03  0.00000000000E+00 0. -1.
          2   -1    0    0  502    0 -0.00000000000E+00 -0.00000000000E+00 -0.84649217845E+03  0.84649217845E+03  0.00000000000E+00 0. -1.
         23    2    1    2    0    0  0.69600743707E+02 -0.46398696991E+02 -0.14056175486E+03  0.18448459290E+03  0.85322069129E+02 0.  0.
         23    2    1    2    0    0 -0.39650733524E+02  0.11648947710E+01 -0.44948093878E+03  0.45983287211E+03  0.88541619021E+02 0.  0.
        -13    1    4    4    0    0  0.27253038942E+02 -0.83541797641E+01 -0.10589837401E+03  0.10966761632E+03  0.00000000000E+00 0.  1.
         13    1    4    4    0    0 -0.66903772467E+02  0.95190745351E+01 -0.34358256477E+03  0.35016525579E+03  0.00000000000E+00 0. -1.
        -13    1    3    3    0    0  0.99899574801E+00  0.20983212946E+02 -0.40999801426E+02  0.46068177032E+02  0.00000000000E+00 0.  1.
         13    1    3    3    0    0  0.68601747959E+02 -0.67381909937E+02 -0.99561953435E+02  0.13841641587E+03  0.00000000000E+00 0. -1.
         21    1    1    2  503  501  0.18082356031E+01 -0.46755763361E+02  0.10304993392E+03  0.11317535069E+03  0.00000000000E+00 0. -1.
          2    1    1    2  501    0 -0.31758245786E+02  0.91989565581E+02 -0.21369120559E+03  0.23480757589E+03  0.00000000000E+00 0. -1.
<scales pt_clust_5="13000.00000" pt_clust_6="13000.00000" pt_clust_7="13000.00000" pt_clust_8="13000.00000" pt_clust_9="46.79072" pt_clust_10="13000.00000"></scales>
<clustering>
<clus scale="   46.791">  1  9  2 -1</clus>
<clus scale="   85.322">  7  8 -1 -1</clus>
<clus scale="   88.542">  5  6 -1 -1</clus>
<clus scale="   84.858">  5 10 -1 -1</clus>
<clus scale="  133.021">  2  7  1 -1</clus>
<clus scale="   46.791">  1  5  2 -1</clus>
</clustering>
</event>
<event>
10    2  0.4951045E-006  0.2089337E+03  0.7546771E-02  0.1174960E+00
         21   -1    0    0  501  502  0.00000000000E+00  0.00000000000E+00  0.18907126305E+03  0.18907126305E+03  0.00000000000E+00 0. -1.
          3   -1    0    0  503    0 -0.00000000000E+00 -0.00000000000E+00 -0.33253062739E+03  0.33253062739E+03  0.00000000000E+00 0. -1.
         23    2    1    2    0    0  0.39687355406E+02  0.54399229920E+01 -0.21629685341E+03  0.23754540849E+03  0.89659429856E+02 0.  0.
         23    2    1    2    0    0 -0.71141522106E+02 -0.85334697253E+01 -0.56627036835E+02  0.12285206359E+03  0.82170992177E+02 0.  0.
        -11    1    3    3    0    0  0.38356899829E+02 -0.37158596324E+02 -0.95038295882E+02  0.10901509404E+03  0.00000000000E+00 0. -1.
         11    1    3    3    0    0  0.13304555775E+01  0.42598519316E+02 -0.12125855752E+03  0.12853031445E+03  0.00000000000E+00 0.  1.
        -13    1    4    4    0    0 -0.60830018548E+02  0.10588520516E+02 -0.73027431702E+02  0.95631656392E+02  0.00000000000E+00 0. -1.
         13    1    4    4    0    0 -0.10311503558E+02 -0.19121990241E+02  0.16400394867E+02  0.27220407201E+02  0.00000000000E+00 0.  1.
         21    1    1    2  503  502 -0.18392555785E+02  0.32113934954E+02  0.64217050957E+02  0.74117613023E+02  0.00000000000E+00 0. -1.
          3    1    1    2  501    0  0.49846722485E+02 -0.29020388221E+02  0.65247474948E+02  0.87086805327E+02  0.00000000000E+00 0. -1.
<scales pt_clust_5="13000.00000" pt_clust_6="13000.00000" pt_clust_7="13000.00000" pt_clust_8="13000.00000" pt_clust_9="37.00798" pt_clust_10="13000.00000"></scales>
<clustering>
<clus scale="   37.008">  1  9  2 -1</clus>
<clus scale="   82.171">  7  8 -1 -1</clus>
<clus scale="   39.125">  7 10 -1 -1</clus>
<clus scale="   89.659">  5  6 -1 -1</clus>
<clus scale="   97.754">  2  5  1 -1</clus>
<clus scale="   37.008">  1  5  2 -1</clus>
</clustering>
</event>
<event>
10    2  0.4951045E-006  0.5705292E+03  0.7546771E-02  0.1055293E+00
          1   -1    0    0  503    0 -0.00000000000E+00  0.00000000000E+00  0.28877596140E+03  0.28877596140E+03  0.00000000000E+00 0. -1.
         21   -1    0    0  501  502  0.00000000000E+00 -0.00000000000E+00 -0.11891594330E+04  0.11891594330E+04  0.00000000000E+00 0. -1.
         23    2    1    2    0    0 -0.37060799060E+02 -0.57650579862E+01  0.54560299008E+01  0.99372092620E+02  0.91860251517E+02 0.  0.
         23    2    1    2    0    0 -0.13122943574E+03  0.88859607446E+02  0.81529997333E+02  0.20035935383E+03  0.91539803158E+02 0.  0.
        -13    1    3    3    0    0  0.79520014819E+01  0.36572287782E+02  0.18998559141E+01  0.37475005186E+02  0.00000000000E+00 0.  1.
         13    1    3    3    0    0 -0.45012800542E+02 -0.42337345768E+02  0.35561739868E+01  0.61897087434E+02  0.00000000000E+00 0. -1.
        -13    1    4    4    0    0 -0.42894781683E+02  0.26244350302E+02  0.77028624050E+02  0.91989875211E+02  0.00000000000E+00 0.  1.
         13    1    4    4    0    0 -0.88334654061E+02  0.62615257145E+02  0.45013732831E+01  0.10836947862E+03  0.00000000000E+00 0. -1.
         21    1    1    2  503  502  0.26161082523E+03  0.18294154320E+03 -0.72883372793E+03  0.79567985715E+03  0.00000000000E+00 0. -1.
          1    1    1    2  501    0 -0.93320590428E+02 -0.26603609266E+03 -0.25853577089E+03  0.38252409077E+03  0.00000000000E+00 0. -1.
<scales pt_clust_5="13000.00000" pt_clust_6="13000.00000" pt_clust_7="13000.00000" pt_clust_8="13000.00000" pt_clust_9="314.47683" pt_clust_10="13000.00000"></scales>
<clustering>
<clus scale="   91.540">  7  8 -1 -1</clus>
<clus scale="   91.860">  5  6 -1 -1</clus>
<clus scale="   99.222">  1  5  2 -1</clus>
<clus scale="  286.705">  7 10 -1 -1</clus>
<clus scale="  314.477">  2  9  1 -1</clus>
<clus scale="  314.477">  2  5  1 -1</clus>
</clustering>
</event>
<event>
10    2  0.4951045E-006  0.6621899E+03  0.7546771E-02  0.1022023E+00
         21   -1    0    0  501  502  0.00000000000E+00  0.00000000000E+00  0.37010173899E+03  0.37010173899E+03  0.00000000000E+00 0. -1.
          1   -1    0    0  503    0 -0.00000000000E+00 -0.00000000000E+00 -0.17537535923E+04  0.17537535923E+04  0.00000000000E+00 0. -1.
         23    2    1    2    0    0  0.64490371257E+02  0.12313480768E+03 -0.43623268186E+03  0.46729715487E+03  0.93522667758E+02 0.  0.
         23    2    1    2    0    0  0.18648157580E+02 -0.29551792576E+02 -0.14096345940E+03  0.17197566206E+03  0.92107921640E+02 0.  0.
        -11    1    4    4    0    0  0.40850448470E+02 -0.45089442125E+02 -0.55623956853E+02  0.82436894091E+02  0.00000000000E+00 0.  1.
         11    1    4    4    0    0 -0.22202290890E+02  0.15537649550E+02 -0.85339502543E+02  0.89538767965E+02  0.00000000000E+00 0. -1.
        -13    1    3    3    0    0  0.36178303290E+02 -0.72264089874E+00 -0.14701920178E+03  0.15140686091E+03  0.00000000000E+00 0. -1.
         13    1    3    3    0    0  0.28312067967E+02  0.12385744858E+03 -0.28921348008E+03  0.31589029396E+03  0.00000000000E+00 0.  1.
         21    1    1    2  503  502 -0.55169292128E+03 -0.21512455810E+03 -0.80647292791E+03  0.10005209835E+04  0.00000000000E+00 0. -1.
          1    1    1    2  501    0  0.46855439245E+03  0.12154154300E+03  0.17215895464E-01  0.48406153085E+03  0.00000000000E+00 0. -1.
<scales pt_clust_5="13000.00000" pt_clust_6="13000.00000" pt_clust_7="13000.00000" pt_clust_8="13000.00000" pt_clust_9="523.26405" pt_clust_10="13000.00000"></scales>
<clustering>
<clus scale="   92.108">  5  6 -1 -1</clus>
<clus scale="   93.523">  7  8 -1 -1</clus>
<clus scale="  167.534">  2  7  1 -1</clus>
<clus scale="  501.778">  5 10 -1 -1</clus>
<clus scale="  523.264">  1  9  2 -1</clus>
<clus scale="  523.264">  1  5  2 -1</clus>
</clustering>
</event>
<event>
10    2  0.4951045E-006  0.3087676E+03  0.7546771E-02  0.1094913E+00
          2   -1    0    0  503    0 -0.00000000000E+00  0.00000000000E+00  0.53930815774E+03  0.53930815774E+03  0.00000000000E+00 0. -1.
         21   -1    0    0  501  502  0.00000000000E+00 -0.00000000000E+00 -0.31955913719E+03  0.31955913719E+03  0.00000000000E+00 0.  1.
         23    2    1    2    0    0 -0.32087436333E+02  0.19106502105E+03  0.11020171243E+03  0.24126523464E+03  0.92352856918E+02 0.  0.
         23    2    1    2    0    0 -0.16127714284E+02 -0.17122974157E+03  0.29824748584E+03  0.35632554790E+03  0.91850997298E+02 0.  0.
        -11    1    4    4    0    0  0.10693239190E+02 -0.26489627102E+02  0.61335136675E+01  0.29217558048E+02  0.00000000000E+00 0.  1.
         11    1    4    4    0    0 -0.26820953474E+02 -0.14474011447E+03  0.29211397218E+03  0.32710798985E+03  0.00000000000E+00 0. -1.
        -13    1    3    3    0    0 -0.18954275782E+02  0.10587413726E+03  0.84177731625E+01  0.10788631246E+03  0.00000000000E+00 0.  1.
         13    1    3    3    0    0 -0.13133160551E+02  0.85190883788E+02  0.10178393927E+03  0.13337892217E+03  0.00000000000E+00 0. -1.
         21    1    1    2  503  502 -0.22722964153E+02 -0.80141851305E+01 -0.18781551767E+03  0.18935477005E+03  0.00000000000E+00 0.  1.
          2    1    1    2  501    0  0.70938114770E+02 -0.11821094348E+02 -0.88466006131E+00  0.71921742346E+02  0.00000000000E+00 0. -1.
<scales pt_clust_5="13000.00000" pt_clust_6="13000.00000" pt_clust_7="13000.00000" pt_clust_8="13000.00000" pt_clust_9="24.09482" pt_clust_10="13000.00000"></scales>
<clustering>
<clus scale="   24.095">  2  9  1 -1</clus>
<clus scale="   91.851">  5  6 -1 -1</clus>
<clus scale="   66.132">  5 10 -1 -1</clus>
<clus scale="   92.353">  7  8 -1 -1</clus>
<clus scale="  213.090">  1  7  2 -1</clus>
<clus scale="   24.095">  2  5  1 -1</clus>
</clustering>
</event>
<event>
10    2  0.4951045E-006  0.2172599E+03  0.7546771E-02  0.1162008E+00
         21   -1    0    0  503  502  0.00000000000E+00  0.00000000000E+00  0.15762232310E+03  0.15762232310E+03  0.00000000000E+00 0.  1.
          1   -1    0    0  502    0 -0.00000000000E+00 -0.00000000000E+00 -0.33786581775E+03  0.33786581775E+03  0.00000000000E+00 0. -1.
         23    2    1    2    0    0  0.34250936222E+02  0.67356540111E+02 -0.47309423423E+02  0.13199917273E+03  0.97342539151E+02 0.  0.
         23    2    1    2    0    0 -0.49245938746E+02 -0.44310698537E+02 -0.21806376745E+03  0.25004741375E+03  0.10287517661E+03 0.  0.
        -13    1    3    3    0    0 -0.87520016757E+01  0.45668391021E+02 -0.65661286002E+02  0.80458709605E+02  0.00000000000E+00 0.  1.
         13    1    3    3    0    0  0.43002937897E+02  0.21688149090E+02  0.18351862580E+02  0.51540463123E+02  0.00000000000E+00 0. -1.
        -13    1    4    4    0    0 -0.14193162259E+02 -0.63842068644E+02 -0.66537060644E+02  0.93297567079E+02  0.00000000000E+00 0. -1.
         13    1    4    4    0    0 -0.35052776487E+02  0.19531370106E+02 -0.15152670680E+03  0.15674984667E+03  0.00000000000E+00 0.  1.
         21    1    1    2  503  501 -0.21869881160E+02 -0.14645887073E+02  0.66027349335E+02  0.71080268502E+02  0.00000000000E+00 0.  1.
          1    1    1    2  501    0  0.36864883684E+02 -0.83999544999E+01  0.19102346886E+02  0.42361285878E+02  0.00000000000E+00 0. -1.
<scales pt_clust_5="13000.00000" pt_clust_6="13000.00000" pt_clust_7="13000.00000" pt_clust_8="13000.00000" pt_clust_9="26.32097" pt_clust_10="13000.00000"></scales>
<clustering>
<clus scale="   26.321">  1  9  2 -1</clus>
<clus scale="   97.343">  5  6 -1 -1</clus>
<clus scale="  102.875">  7  8 -1 -1</clus>
<clus scale="   32.258">  7 10 -1 -1</clus>
<clus scale="  117.013">  2  5  1 -1</clus>
<clus scale="   26.321">  1  5  2 -1</clus>
</clustering>
</event>
<event>
10    2  0.4951045E-006  0.1446963E+03  0.7546771E-02  0.1222878E+00
         21   -1    0    0  503  502  0.00000000000E+00  0.00000000000E+00  0.37165756627E+02  0.37165756627E+02  0.00000000000E+00 0.  1.
          2   -1    0    0  502    0 -0.00000000000E+00 -0.00000000000E+00 -0.60489297076E+03  0.60489297076E+03  0.00000000000E+00 0. -1.
         23    2    1    2    0    0 -0.64830796097E+02  0.71340928498E+01 -0.19579281709E+03  0.22542068708E+03  0.90695818741E+02 0.  0.
         23    2    1    2    0    0 -0.58501359133E+01  0.10912292083E+02 -0.19191882553E+03  0.21268732465E+03  0.90828190926E+02 0.  0.
        -11    1    4    4    0    0 -0.47335195599E+02  0.77369430471E+01 -0.79892007099E+02  0.93183763759E+02  0.00000000000E+00 0.  1.
         11    1    4    4    0    0  0.41485059686E+02  0.31753490355E+01 -0.11202681843E+03  0.11950356089E+03  0.00000000000E+00 0. -1.
        -13    1    3    3    0    0 -0.50884285576E+02  0.40702263741E+02 -0.75373384149E+02  0.99634491167E+02  0.00000000000E+00 0.  1.
         13    1    3    3    0    0 -0.13946510522E+02 -0.33568170891E+02 -0.12041943294E+03  0.12578619592E+03  0.00000000000E+00 0. -1.
         21    1    1    2  503  501  0.27898560215E+02 -0.60493382719E+01 -0.13442808148E+02  0.31553656627E+02  0.00000000000E+00 0.  1.
          2    1    1    2  501    0  0.42782371795E+02 -0.11997046660E+02 -0.16657276337E+03  0.17239705902E+03  0.00000000000E+00 0. -1.
<scales pt_clust_5="13000.00000" pt_clust_6="13000.00000" pt_clust_7="13000.00000" pt_clust_8="13000.00000" pt_clust_9="28.54688" pt_clust_10="13000.00000"></scales>
<clustering>
<clus scale="   28.547">  1  9  2 -1</clus>
<clus scale="   90.696">  7  8 -1 -1</clus>
<clus scale="   90.828">  5  6 -1 -1</clus>
<clus scale="   47.385">  5 10 -1 -1</clus>
<clus scale="  103.702">  2  7  1 -1</clus>
<clus scale="   28.547">  1  5  2 -1</clus>
</clustering>
</event>
<event>
10    2  0.4951045E-006  0.1750711E+03  0.7546771E-02  0.1196895E+00
          1   -1    0    0  503    0 -0.00000000000E+00  0.00000000000E+00  0.78522384240E+03  0.78522384240E+03  0.00000000000E+00 0. -1.
         21   -1    0    0  501  502  0.00000000000E+00 -0.00000000000E+00 -0.77489772254E+02  0.77489772254E+02  0.00000000000E+00 0.  1.
         23    2    1    2    0    0  0.39943177043E+02  0.20636072963E+02  0.26825220250E+03  0.28682580546E+03  0.91041164500E+02 0.  0.
         23    2    1    2    0    0 -0.33611911834E+01 -0.74782274314E+02  0.45609765789E+03  0.47098215212E+03  0.90528602818E+02 0.  0.
        -11    1    3    3    0    0  0.65625052351E+02  0.26512986608E+02  0.15266513889E+03  0.16827427191E+03  0.00000000000E+00 0.  1.
         11    1    3    3    0    0 -0.25681875308E+02 -0.58769136451E+01  0.11558706361E+03  0.11855153355E+03  0.00000000000E+00 0. -1.
        -11    1    4    4    0    0  0.20871346314E+02 -0.73788585243E+02  0.42330864054E+03  0.43019829563E+03  0.00000000000E+00 0. -1.
         11    1    4    4    0    0 -0.24232537497E+02 -0.99368907099E+00  0.32789017351E+02  0.40783856492E+02  0.00000000000E+00 0.  1.
         21    1    1    2  503  502 -0.14325152630E+02  0.25783318817E+02 -0.48507683695E+02  0.56771338759E+02  0.00000000000E+00 0.  1.
          1    1    1    2  501    0 -0.22256833230E+02  0.28362882533E+02  0.31891893448E+02  0.48134318305E+02  0.00000000000E+00 0. -1.
<scales pt_clust_5="13000.00000" pt_clust_6="13000.00000" pt_clust_7="13000.00000" pt_clust_8="13000.00000" pt_clust_9="29.49558" pt_clust_10="13000.00000"></scales>
<clustering>
<clus scale="   29.496">  2  9  1 -1</clus>
<clus scale="   90.529">  7  8 -1 -1</clus>
<clus scale="   45.597">  7 10 -1 -1</clus>
<clus scale="   91.041">  5  6 -1 -1</clus>
<clus scale="  101.987">  1  5  2 -1</clus>
<clus scale="   29.496">  2  5  1 -1</clus>
</clustering>
</event>
<event>
10    2  0.4951045E-006  0.2596946E+03  0.7546771E-02  0.1130255E+00
         21   -1    0    0  503  502  0.00000000000E+00  0.00000000000E+00  0.32821678028E+02  0.32821678028E+02  0.00000000000E+00 0. -1.
          2   -1    0    0  502    0 -0.00000000000E+00 -0.00000000000E+00 -0.18125681159E+04  0.18125681159E+04  0.00000000000E+00 0. -1.
         23    2    1    2    0    0  0.10959526568E+03  0.15162943466E+02 -0.23815089359E+03  0.27820459135E+03  0.91874421991E+02 0.  0.
         23    2    1    2    0    0  0.41960450230E+02 -0.27855954267E+02 -0.45888001747E+03  0.47048061697E+03  0.90799267272E+02 0.  0.
        -13    1    4    4    0    0  0.70203493350E+02 -0.12623238019E+02 -0.29637725134E+03  0.30483987884E+03  0.00000000000E+00 0.  1.
         13    1    4    4    0    0 -0.28243043120E+02 -0.15232716248E+02 -0.16250276613E+03  0.16564073813E+03  0.00000000000E+00 0. -1.
        -13    1    3    3    0    0  0.80812653664E+02 -0.28382727235E+01 -0.70900463786E+02  0.10754355652E+03  0.00000000000E+00 0. -1.
         13    1    3    3    0    0  0.28782612014E+02  0.18001216189E+02 -0.16725042980E+03  0.17066103483E+03  0.00000000000E+00 0.  1.
         21    1    1    2  503  501  0.78497387157E+00  0.20877841509E+02 -0.94473687992E+02  0.96756282343E+02  0.00000000000E+00 0.  1.
          2    1    1    2  501    0 -0.15234068978E+03 -0.81848307077E+01 -0.98824183880E+03  0.99994830325E+03  0.00000000000E+00 0. -1.
<scales pt_clust_5="13000.00000" pt_clust_6="13000.00000" pt_clust_7="13000.00000" pt_clust_8="13000.00000" pt_clust_9="20.89260" pt_clust_10="13000.00000"></scales>
<clustering>
<clus scale="   20.893">  1  9  2 -1</clus>
<clus scale="   90.799">  5  6 -1 -1</clus>
<clus scale="   91.874">  7  8 -1 -1</clus>
<clus scale="  146.169">  2  7  1 -1</clus>
<clus scale="   79.377">  5 10 -1 -1</clus>
<clus scale="   20.893">  1  5  2 -1</clus>
</clustering>
</event>
<event>
10    2  0.4951045E-006  0.4439249E+03  0.7546771E-02  0.1034770E+00
         21   -1    0    0  501  502  0.00000000000E+00  0.00000000000E+00  0.68478124700E+03  0.68478124700E+03  0.00000000000E+00 0. -1.
          1   -1    0    0  503    0 -0.00000000000E+00 -0.00000000000E+00 -0.31558657960E+03  0.31558657960E+03  0.00000000000E+00 0. -1.
         23    2    1    2    0    0  0.98632491915E+02  0.34991716748E+03 -0.53764732740E+01  0.37431807495E+03  0.88964724519E+02 0.  0.
         23    2    1    2    0    0  0.11740915615E+02 -0.57233698505E+02  0.56631262918E+02  0.13233617330E+03  0.10436578692E+03 0.  0.
        -11    1    4    4    0    0 -0.25278660279E+02  0.20815290378E+02  0.20947541457E+02  0.38872695715E+02  0.00000000000E+00 0. -1.
         11    1    4    4    0    0  0.37019575894E+02 -0.78048988883E+02  0.35683721461E+02  0.93463477585E+02  0.00000000000E+00 0.  1.
        -13    1    3    3    0    0  0.84861066467E+01  0.79331420530E+02  0.33388695621E+02  0.86488688767E+02  0.00000000000E+00 0.  1.
         13    1    3    3    0    0  0.90146385268E+02  0.27058574695E+03 -0.38765168895E+02  0.28782938618E+03  0.00000000000E+00 0. -1.
         21    1    1    2  503  502  0.16993302166E+02  0.16794182530E+02  0.78928550965E+02  0.82465344496E+02  0.00000000000E+00 0. -1.
          1    1    1    2  501    0 -0.12736670970E+03 -0.30947765150E+03  0.23901132680E+03  0.41124823386E+03  0.00000000000E+00 0. -1.
<scales pt_clust_5="13000.00000" pt_clust_6="13000.00000" pt_clust_7="13000.00000" pt_clust_8="13000.00000" pt_clust_9="23.89177" pt_clust_10="13000.00000"></scales>
<clustering>
<clus scale="   23.892">  1  9  2 -1</clus>
<clus scale="   88.965">  7  8 -1 -1</clus>
<clus scale="  104.366">  5  6 -1 -1</clus>
<clus scale="  322.862">  5 10 -1 -1</clus>
<clus scale="  380.462">  2  7  1 -1</clus>
<clus scale="   23.892">  1  5  2 -1</clus>
</clustering>
</event>
<event>
10    2  0.4951045E-006  0.2903752E+03  0.7546771E-02  0.1111264E+00
         21   -1    0    0  501  502  0.00000000000E+00  0.00000000000E+00  0.27369458003E+03  0.27369458003E+03  0.00000000000E+00 0.  1.
          1   -1    0    0  503    0 -0.00000000000E+00 -0.00000000000E+00 -0.54470386715E+03  0.54470386715E+03  0.00000000000E+00 0. -1.
         23    2    1    2    0    0  0.58229578646E+02  0.11431357842E+03  0.11025587313E+03  0.19247068286E+03  0.91816818510E+02 0.  0.
         23    2    1    2    0    0 -0.58365736419E+02 -0.13527178267E+03 -0.47722979983E+03  0.50745964512E+03  0.89788613977E+02 0.  0.
        -11    1    3    3    0    0  0.39494562230E+02  0.11227498310E+02  0.68126728210E+02  0.79543247737E+02  0.00000000000E+00 0.  1.
         11    1    3    3    0    0  0.18735016415E+02  0.10308608011E+03  0.42129144923E+02  0.11292743512E+03  0.00000000000E+00 0. -1.
        -13    1    4    4    0    0  0.22135866908E+02 -0.21711974763E+02 -0.58656944951E+02  0.66347898556E+02  0.00000000000E+00 0.  1.
         13    1    4    4    0    0 -0.80501603327E+02 -0.11355980791E+03 -0.41857285488E+03  0.44111174656E+03  0.00000000000E+00 0. -1.
         21    1    1    2  503  502  0.26150241429E+02  0.30468032517E+01  0.77574544069E+02  0.81920254055E+02  0.00000000000E+00 0. -1.
          1    1    1    2  501    0 -0.26014083656E+02  0.17911401001E+02  0.18390095507E+02  0.36547865150E+02  0.00000000000E+00 0. -1.
<scales pt_clust_5="13000.00000" pt_clust_6="13000.00000" pt_clust_7="13000.00000" pt_clust_8="13000.00000" pt_clust_9="26.32714" pt_clust_10="13000.00000"></scales>
<clustering>
<clus scale="   26.327">  1  9  2 -1</clus>
<clus scale="   89.789">  7  8 -1 -1</clus>
<clus scale="   28.883">  7 10 -1 -1</clus>
<clus scale="   91.817">  5  6 -1 -1</clus>
<clus scale="  168.021">  2  5  1 -1</clus>
<clus scale="   26.327">  1  5  2 -1</clus>
</clustering>
</event>
<event>
10    2  0.4951045E-006  0.1861038E+03  0.7546771E-02  0.1191890E+00
          2   -1    0    0  503    0 -0.00000000000E+00  0.00000000000E+00  0.41354118351E+03  0.41354118351E+03  0.00000000000E+00 0. -1.
         21   -1    0    0  501  502  0.00000000000E+00 -0.00000000000E+00 -0.75980878183E+02  0.75980878183E+02  0.00000000000E+00 0. -1.
         23    2    1    2    0    0  0.45389369342E+01 -0.39438178076E+02  0.87254049517E+02  0.13368056651E+03  0.93173241149E+02 0.  0.
         23    2    1    2    0    0 -0.38468810116E+02  0.43667480353E+02  0.18444273089E+03  0.21409668495E+03  0.91823588117E+02 0.  0.
        -11    1    3    3    0    0 -0.27997720684E+02 -0.54301213844E+02  0.35164335370E+02  0.70491309184E+02  0.00000000000E+00 0. -1.
         11    1    3    3    0    0  0.32536657618E+02  0.14863035768E+02  0.52089714146E+02  0.63189257323E+02  0.00000000000E+00 0.  1.
        -11    1    4    4    0    0 -0.49973673324E+02 -0.11341099118E+02  0.10435700394E+03  0.11625993646E+03  0.00000000000E+00 0. -1.
         11    1    4    4    0    0  0.11504863208E+02  0.55008579471E+02  0.80085726949E+02  0.97836748484E+02  0.00000000000E+00 0.  1.
         21    1    1    2  503  502 -0.36890105745E+01  0.53717451718E+02  0.14818032806E+02  0.55845747505E+02  0.00000000000E+00 0. -1.
          2    1    1    2  501    0  0.37618883756E+02 -0.57946753995E+02  0.51045492116E+02  0.85899062736E+02  0.00000000000E+00 0. -1.
<scales pt_clust_5="13000.00000" pt_clust_6="13000.00000" pt_clust_7="13000.00000" pt_clust_8="13000.00000" pt_clust_9="53.84397" pt_clust_10="13000.00000"></scales>
<clustering>
<clus scale="   53.844">  2  9  1 -1</clus>
<clus scale="   91.824">  7  8 -1 -1</clus>
<clus scale="   54.918">  7 10 -1 -1</clus>
<clus scale="   93.173">  5  6 -1 -1</clus>
<clus scale="   94.751">  1  5  2 -1</clus>
<clus scale="   53.844">  2  5  1 -1</clus>
</clustering>
</event>
<event>
10    2  0.4951045E-006  0.3306317E+03  0.7546771E-02  0.1076100E+00
         21   -1    0    0  501  502  0.00000000000E+00  0.00000000000E+00  0.26928018571E+03  0.26928018571E+03  0.00000000000E+00 0. -1.
          1   -1    0    0  503    0 -0.00000000000E+00 -0.00000000000E+00 -0.89732480721E+03  0.89732480721E+03  0.00000000000E+00 0. -1.
         23    2    1    2    0    0 -0.39817941392E+01 -0.28293154476E+03 -0.35045582542E+03  0.45983240097E+03  0.92522633479E+02 0.  0.
         23    2    1    2    0    0  0.32589471691E+02  0.13011152058E+03 -0.13089214042E+03  0.20685958701E+03  0.87561720287E+02 0.  0.
        -11    1    3    3    0    0  0.15890716006E+02 -0.23930321030E+03 -0.23938314504E+03  0.33885517768E+03  0.00000000000E+00 0. -1.
         11    1    3    3    0    0 -0.19872510145E+02 -0.43628334466E+02 -0.11107268038E+03  0.12097722329E+03  0.00000000000E+00 0.  1.
        -13    1    4    4    0    0 -0.16477716028E+02  0.22789873622E+02  0.31213064463E+01  0.28295512350E+02  0.00000000000E+00 0.  1.
         13    1    4    4    0    0  0.49067187720E+02  0.10732164696E+03 -0.13401344687E+03  0.17856407466E+03  0.00000000000E+00 0. -1.
         21    1    1    2  503  502  0.17249289347E+02  0.23042187935E+02  0.16062106863E+03  0.16317968040E+03  0.00000000000E+00 0. -1.
          1    1    1    2  501    0 -0.45856966899E+02  0.12977783625E+03 -0.30731772429E+03  0.33673332454E+03  0.00000000000E+00 0. -1.
<scales pt_clust_5="13000.00000" pt_clust_6="13000.00000" pt_clust_7="13000.00000" pt_clust_8="13000.00000" pt_clust_9="28.78334" pt_clust_10="13000.00000"></scales>
<clustering>
<clus scale="   28.783">  1  9  2 -1</clus>
<clus scale="   87.562">  7  8 -1 -1</clus>
<clus scale="   92.523">  5  6 -1 -1</clus>
<clus scale="  139.869">  7 10 -1 -1</clus>
<clus scale="  286.585">  2  5  1 -1</clus>
<clus scale="   28.783">  1  5  2 -1</clus>
</clustering>
</event>
<event>
10    2  0.4951045E-006  0.2492047E+03  0.7546771E-02  0.1153236E+00
         21   -1    0    0  503  502  0.00000000000E+00  0.00000000000E+00  0.19770139989E+03  0.19770139989E+03  0.00000000000E+00 0.  1.
          2   -1    0    0  502    0 -0.00000000000E+00 -0.00000000000E+00 -0.82169658961E+03  0.82169658961E+03  0.00000000000E+00 0. -1.
         23    2    1    2    0    0  0.32183986608E+02  0.20109132253E+02  0.17131712761E+02  0.10146144936E+03  0.92524288330E+02 0.  0.
         23    2    1    2    0    0  0.59354402875E+02  0.61296788245E+02 -0.61140281405E+03  0.62427134365E+03  0.92849707024E+02 0.  0.
        -11    1    3    3    0    0  0.47261975670E+02 -0.99593860906E+01 -0.19175605639E+02  0.51967177788E+02  0.00000000000E+00 0.  1.
         11    1    3    3    0    0 -0.15077989062E+02  0.30068518343E+02  0.36307318400E+02  0.49494271577E+02  0.00000000000E+00 0. -1.
        -13    1    4    4    0    0  0.24038600365E+02 -0.23885064735E+02 -0.16350800778E+03  0.16698269142E+03  0.00000000000E+00 0.  1.
         13    1    4    4    0    0  0.35315802510E+02  0.85181852980E+02 -0.44789480626E+03  0.45728865223E+03  0.00000000000E+00 0. -1.
         21    1    1    2  503  501 -0.13458808914E+02 -0.31137641389E+02  0.11600552790E+03  0.12086345498E+03  0.00000000000E+00 0.  1.
          2    1    1    2  501    0 -0.78079580570E+02 -0.50268279110E+02 -0.14572961634E+03  0.17280174150E+03  0.00000000000E+00 0. -1.
<scales pt_clust_5="13000.00000" pt_clust_6="13000.00000" pt_clust_7="13000.00000" pt_clust_8="13000.00000" pt_clust_9="33.92186" pt_clust_10="13000.00000"></scales>
<clustering>
<clus scale="   33.922">  1  9  2 -1</clus>
<clus scale="   92.524">  5  6 -1 -1</clus>
<clus scale="   92.850">  7  8 -1 -1</clus>
<clus scale="   95.184">  2  5  1 -1</clus>
<clus scale="   94.061">  7 10 -1 -1</clus>
<clus scale="   33.922">  1  5  2 -1</clus>
</clustering>
</event>
<event>
10    2  0.4951045E-006  0.3616146E+03  0.7546771E-02  0.1072057E+00
         21   -1    0    0  503  502  0.00000000000E+00  0.00000000000E+00  0.27802765911E+03  0.27802765911E+03  0.00000000000E+00 0. -1.
          1   -1    0    0  502    0 -0.00000000000E+00 -0.00000000000E+00 -0.10686277831E+04  0.10686277831E+04  0.00000000000E+00 0. -1.
         23    2    1    2    0    0  0.19675227689E+03 -0.72167798936E+02 -0.50558993613E+03  0.55470273690E+03  0.90301124793E+02 0.  0.
         23    2    1    2    0    0 -0.32382422538E+03 -0.25334890854E+02 -0.37957613590E+03  0.50763480411E+03  0.90061455445E+02 0.  0.
        -11    1    4    4    0    0 -0.24293425580E+02 -0.27090463347E+02 -0.55185029968E+02  0.66101824962E+02  0.00000000000E+00 0.  1.
         11    1    4    4    0    0 -0.29953079980E+03  0.17555724933E+01 -0.32439110594E+03  0.44153297914E+03  0.00000000000E+00 0. -1.
        -13    1    3    3    0    0  0.10208919030E+03 -0.54659891824E+02 -0.37494247164E+03  0.39241784311E+03  0.00000000000E+00 0. -1.
         13    1    3    3    0    0  0.94663086587E+02 -0.17507907111E+02 -0.13064746449E+03  0.16228489379E+03  0.00000000000E+00 0.  1.
         21    1    1    2  503  501  0.91041014945E+02  0.41835267552E+02  0.16152800487E+03  0.19007880568E+03  0.00000000000E+00 0. -1.
          1    1    1    2  501    0  0.36030933548E+02  0.55667422238E+02 -0.66962056788E+02  0.94239095497E+02  0.00000000000E+00 0. -1.
<scales pt_clust_5="13000.00000" pt_clust_6="13000.00000" pt_clust_7="13000.00000" pt_clust_8="13000.00000" pt_clust_9="100.19309" pt_clust_10="13000.00000"></scales>
<clustering>
<clus scale="   90.061">  5  6 -1 -1</clus>
<clus scale="   66.311">  5 10 -1 -1</clus>
<clus scale="   90.301">  7  8 -1 -1</clus>
<clus scale="  100.193">  1  9  2 -1</clus>
<clus scale="  244.558">  2  7  1 -1</clus>
<clus scale="  100.193">  1  5  2 -1</clus>
</clustering>
</event>
<event>
10    2  0.4951045E-006  0.2457899E+03  0.7546771E-02  0.1133090E+00
         -2   -1    0    0    0  501 -0.00000000000E+00  0.00000000000E+00  0.58694526536E+03  0.58694526536E+03  0.00000000000E+00 0.  1.
         21   -1    0    0  501  502  0.00000000000E+00 -0.00000000000E+00 -0.14755942695E+03  0.14755942695E+03  0.00000000000E+00 0.  1.
         23    2    1    2    0    0 -0.24216569509E+02  0.14592336455E+03  0.27352138494E+03  0.32411986577E+03  0.91431224475E+02 0.  0.
         23    2    1    2    0    0 -0.54290745655E+02 -0.30352148657E+02  0.19686748828E+03  0.22823962826E+03  0.97302528088E+02 0.  0.
        -11    1    4    4    0    0 -0.63848038591E+02 -0.55251770761E+02  0.17275326983E+03  0.19228370301E+03  0.00000000000E+00 0.  1.
         11    1    4    4    0    0  0.95572929361E+01  0.24899622104E+02  0.24114218452E+02  0.35955925252E+02  0.00000000000E+00 0. -1.
        -11    1    3    3    0    0 -0.29825469752E+02  0.41450831850E+01  0.68086147178E+02  0.74447725272E+02  0.00000000000E+00 0. -1.
         11    1    3    3    0    0  0.56089002425E+01  0.14177828136E+03  0.20543523776E+03  0.24967214050E+03  0.00000000000E+00 0.  1.
         21    1    1    2  503  502  0.20197602799E+02 -0.42495348154E+02 -0.67080894621E+02  0.81936830526E+02  0.00000000000E+00 0.  1.
         -2    1    1    2    0  503  0.58309712365E+02 -0.73075867734E+02  0.36077859809E+02  0.10020836776E+03  0.00000000000E+00 0.  1.
<scales pt_clust_5="13000.00000" pt_clust_6="13000.00000" pt_clust_7="13000.00000" pt_clust_8="13000.00000" pt_clust_9="47.05101" pt_clust_10="13000.00000"></scales>
<clustering>
<clus scale="   47.051">  2  9  1 -1</clus>
<clus scale="   91.431">  7  8 -1 -1</clus>
<clus scale="   97.303">  5  6 -1 -1</clus>
<clus scale="  113.696">  5 10 -1 -1</clus>
<clus scale="  160.846">  1  7  2 -1</clus>
<clus scale="   47.051">  2  5  1 -1</clus>
</clustering>
</event>
<event>
10    2  0.4951045E-006  0.2907410E+03  0.7546771E-02  0.1106831E+00
          3   -1    0    0  503    0 -0.00000000000E+00  0.00000000000E+00  0.55307011474E+03  0.55307011474E+03  0.00000000000E+00 0. -1.
         21   -1    0    0  501  502  0.00000000000E+00 -0.00000000000E+00 -0.16487971799E+03  0.16487971799E+03  0.00000000000E+00 0. -1.
         23    2    1    2    0    0 -0.35974365760E+02 -0.10787708855E+03 -0.98846992222E+01  0.14606445484E+03  0.91134496562E+02 0.  0.
         23    2    1    2    0    0  0.10266581153E+03  0.16390781491E+02  0.18419218612E+03  0.22998126399E+03  0.90308879870E+02 0.  0.
        -11    1    3    3    0    0  0.12237193346E+02 -0.94816835362E+02 -0.30702289303E+01  0.95652535119E+02  0.00000000000E+00 0. -1.
         11    1    3    3    0    0 -0.48211559107E+02 -0.13060253190E+02 -0.68144702919E+01  0.50411919724E+02  0.00000000000E+00 0.  1.
        -11    1    4    4    0    0  0.90233515884E+02 -0.25256775028E+02  0.11602717742E+03  0.14913851941E+03  0.00000000000E+00 0. -1.
         11    1    4    4    0    0  0.12432295646E+02  0.41647556518E+02  0.68165008706E+02  0.80842744578E+02  0.00000000000E+00 0.  1.
         21    1    1    2  503  502 -0.38578809239E+02 -0.80260633237E+02  0.46584915754E+02  0.10049999077E+03  0.00000000000E+00 0. -1.
          3    1    1    2  501    0 -0.28112636531E+02  0.17174694030E+03  0.16729799409E+03  0.24140412313E+03  0.00000000000E+00 0. -1.
<scales pt_clust_5="13000.00000" pt_clust_6="13000.00000" pt_clust_7="13000.00000" pt_clust_8="13000.00000" pt_clust_9="89.05107" pt_clust_10="13000.00000"></scales>
<clustering>
<clus scale="   89.051">  2  9  1 -1</clus>
<clus scale="   90.309">  7  8 -1 -1</clus>
<clus scale="   91.134">  5  6 -1 -1</clus>
<clus scale="  155.035">  7 10 -1 -1</clus>
<clus scale="  187.433">  1  5  2 -1</clus>
<clus scale="   89.051">  2  5  1 -1</clus>
</clustering>
</event>
<event>
10    2  0.4951045E-006  0.1707258E+03  0.7546771E-02  0.1202459E+00
         21   -1    0    0  503  502  0.00000000000E+00  0.00000000000E+00  0.27513172232E+03  0.27513172232E+03  0.00000000000E+00 0. -1.
         -3   -1    0    0    0  501 -0.00000000000E+00 -0.00000000000E+00 -0.10480170740E+03  0.10480170740E+03  0.00000000000E+00 0.  1.
         23    2    1    2    0    0 -0.42001935505E+02  0.70991422129E+01  0.36100231763E+02  0.10747915006E+03  0.91836705942E+02 0.  0.
         23    2    1    2    0    0 -0.14323756307E+02 -0.46490770443E+02  0.98135587694E+01  0.10414031747E+03  0.91555109389E+02 0.  0.
        -13    1    4    4    0    0  0.38377019492E+02 -0.15267328547E+02  0.11458608451E+02  0.42862415397E+02  0.00000000000E+00 0.  1.
         13    1    4    4    0    0 -0.52700775799E+02 -0.31223441896E+02 -0.16450496814E+01  0.61277902070E+02  0.00000000000E+00 0. -1.
        -13    1    3    3    0    0  0.18113471511E+02  0.96723176437E+01 -0.17437116496E+02  0.26938905146E+02  0.00000000000E+00 0.  1.
         13    1    3    3    0    0 -0.60115407015E+02 -0.25731754308E+01  0.53537348259E+02  0.80540244915E+02  0.00000000000E+00 0. -1.
         21    1    1    2  503  501  0.23360030525E+02 -0.13891687422E+02  0.95527002693E+02  0.99318066076E+02  0.00000000000E+00 0. -1.
         -3    1    1    2    0  502  0.32965661287E+02  0.53283315651E+02  0.28889221700E+02  0.68995896119E+02  0.00000000000E+00 0.  1.
<scales pt_clust_5="13000.00000" pt_clust_6="13000.00000" pt_clust_7="13000.00000" pt_clust_8="13000.00000" pt_clust_9="27.17848" pt_clust_10="13000.00000"></scales>
<clustering>
<clus scale="   27.178">  1  9  2 -1</clus>
<clus scale="   91.555">  5  6 -1 -1</clus>
<clus scale="   63.232">  5 10 -1 -1</clus>
<clus scale="   91.837">  7  8 -1 -1</clus>
<clus scale="   97.451">  2  7  1 -1</clus>
<clus scale="   27.178">  1  5  2 -1</clus>
</clustering>
</event>
<event>
10    2  0.4951045E-006  0.4286539E+03  0.7546771E-02  0.1089299E+00
          2   -1    0    0  503    0 -0.00000000000E+00  0.00000000000E+00  0.13552889790E+04  0.13552889790E+04  0.00000000000E+00 0. -1.
         21   -1    0    0  501  502  0.00000000000E+00 -0.00000000000E+00 -0.71720265964E+02  0.71720265964E+02  0.00000000000E+00 0. -1.
         23    2    1    2    0    0  0.24704995896E+01 -0.15621416822E+02  0.27379963195E+03  0.28859641290E+03  0.89841633179E+02 0.  0.
         23    2    1    2    0    0 -0.88614669856E+02 -0.13082436879E+03  0.24800549605E+03  0.30817478424E+03  0.92181323411E+02 0.  0.
        -11    1    4    4    0    0 -0.23615033332E+02  0.96166917938E+01  0.56277052640E+02  0.61783955961E+02  0.00000000000E+00 0.  1.
         11    1    4    4    0    0 -0.64999636524E+02 -0.14044106059E+03  0.19172844341E+03  0.24639082828E+03  0.00000000000E+00 0. -1.
        -13    1    3    3    0    0  0.22083034451E+02  0.30894206151E+02  0.15363642324E+03  0.15826011162E+03  0.00000000000E+00 0. -1.
         13    1    3    3    0    0 -0.19612534861E+02 -0.46515622973E+02  0.12016320871E+03  0.13033630128E+03  0.00000000000E+00 0.  1.
         21    1    1    2  503  502 -0.71123429850E+02 -0.42519699508E+02  0.22757341368E+03  0.24219026763E+03  0.00000000000E+00 0. -1.
          2    1    1    2  501    0  0.15726760012E+03  0.18896548512E+03  0.53419017132E+03  0.58804778015E+03  0.00000000000E+00 0. -1.
<scales pt_clust_5="13000.00000" pt_clust_6="13000.00000" pt_clust_7="13000.00000" pt_clust_8="13000.00000" pt_clust_9="82.86419" pt_clust_10="13000.00000"></scales>
<clustering>
<clus scale="   82.864">  2  9  1 -1</clus>
<clus scale="   89.842">  7  8 -1 -1</clus>
<clus scale="   92.181">  5  6 -1 -1</clus>
<clus scale="   92.328">  1  7  2 -1</clus>
<clus scale="  203.471">  5 10 -1 -1</clus>
<clus scale="   82.864">  2  5  1 -1</clus>
</clustering>
</event>
<event>
10    2  0.4951045E-006  0.2130027E+03  0.7546771E-02  0.1140184E+00
          2   -1    0    0  503    0 -0.00000000000E+00  0.00000000000E+00  0.99781622496E+03  0.99781622496E+03  0.00000000000E+00 0. -1.
         21   -1    0    0  501  502  0.00000000000E+00 -0.00000000000E+00 -0.32126597508E+03  0.32126597508E+03  0.00000000000E+00 0. -1.
         23    2    1    2    0    0 -0.14292970144E+03 -0.41101525576E+02  0.30899502606E+03  0.35630232832E+03  0.96722221225E+02 0.  0.
         23    2    1    2    0    0  0.15743006843E+03  0.55110465865E+02  0.51479974429E+03  0.54883264949E+03  0.91526556448E+02 0.  0.
        -11    1    3    3    0    0 -0.10409272510E+03 -0.69813055544E+02  0.18723704681E+03  0.22531504575E+03  0.00000000000E+00 0. -1.
         11    1    3    3    0    0 -0.38836976338E+02  0.28711529968E+02  0.12175797925E+03  0.13098728257E+03  0.00000000000E+00 0.  1.
        -11    1    4    4    0    0  0.96058070672E+02  0.78896423308E+02  0.34625281691E+03  0.36788967337E+03  0.00000000000E+00 0.  1.
         11    1    4    4    0    0  0.61371997756E+02 -0.23785957443E+02  0.16854692738E+03  0.18094297612E+03  0.00000000000E+00 0. -1.
         21    1    1    2  503  502 -0.66140014033E+02 -0.19083452701E+02 -0.27107808652E+03  0.27968197764E+03  0.00000000000E+00 0. -1.
          2    1    1    2  501    0  0.51639647043E+02  0.50745124119E+01  0.12383356606E+03  0.13426524460E+03  0.00000000000E+00 0. -1.
<scales pt_clust_5="13000.00000" pt_clust_6="13000.00000" pt_clust_7="13000.00000" pt_clust_8="13000.00000" pt_clust_9="68.83807" pt_clust_10="13000.00000"></scales>
<clustering>
<clus scale="   68.838">  2  9  1 -1</clus>
<clus scale="   91.527">  7  8 -1 -1</clus>
<clus scale="   44.217">  7 10 -1 -1</clus>
<clus scale="   96.722">  5  6 -1 -1</clus>
<clus scale="  208.057">  1  5  2 -1</clus>
<clus scale="   68.838">  2  5  1 -1</clus>
</clustering>
</event>
<event>
10    2  0.4951045E-006  0.1695270E+03  0.7546771E-02  0.1184959E+00
          4   -1    0    0  503    0 -0.00000000000E+00  0.00000000000E+00  0.56028386468E+03  0.56028386468E+03  0.00000000000E+00 0. -1.
         21   -1    0    0  501  502  0.00000000000E+00 -0.00000000000E+00 -0.18040682583E+03  0.18040682583E+03  0.00000000000E+00 0. -1.
         23    2    1    2    0    0  0.45198899138E+02  0.52747495187E+02  0.73961228136E+02  0.13707065579E+03  0.92156728893E+02 0.  0.
         23    2    1    2    0    0 -0.24874246889E+02 -0.12749380431E+03  0.35480226141E+03  0.38769611907E+03  0.86892104073E+02 0.  0.
        -11    1    3    3    0    0  0.19583733176E+02  0.64870292662E+01 -0.20330137486E+02  0.28964092322E+02  0.00000000000E+00 0. -1.
         11    1    3    3    0    0  0.25615165962E+02  0.46260465921E+02  0.94291365622E+02  0.10810656347E+03  0.00000000000E+00 0.  1.
        -11    1    4    4    0    0  0.20800572834E+02 -0.91384870603E+02  0.17242730819E+03  0.19625247773E+03  0.00000000000E+00 0.  1.
         11    1    4    4    0    0 -0.45674819722E+02 -0.36108933702E+02  0.18237495322E+03  0.19144364135E+03  0.00000000000E+00 0. -1.
         21    1    1    2  503  502 -0.48470049497E+02  0.10357240399E+03 -0.99258254463E+02  0.15142255329E+03  0.00000000000E+00 0. -1.
          4    1    1    2  501    0  0.28145397247E+02 -0.28826094869E+02  0.50371803765E+02  0.64501362358E+02  0.00000000000E+00 0. -1.
<scales pt_clust_5="13000.00000" pt_clust_6="13000.00000" pt_clust_7="13000.00000" pt_clust_8="13000.00000" pt_clust_9="114.35291" pt_clust_10="13000.00000"></scales>
<clustering>
<clus scale="   86.892">  7  8 -1 -1</clus>
<clus scale="   40.288">  7 10 -1 -1</clus>
<clus scale="   92.157">  5  6 -1 -1</clus>
<clus scale="  114.353">  2  9  1 -1</clus>
<clus scale="  146.159">  1  5  2 -1</clus>
<clus scale="  114.353">  2  5  1 -1</clus>
</clustering>
</event>
<event>
10    2  0.4951045E-006  0.6404810E+03  0.7546771E-02  0.9922117E-01
          1   -1    0    0  502    0 -0.00000000000E+00  0.00000000000E+00  0.48752163602E+04  0.48752163602E+04  0.00000000000E+00 0. -1.
         21   -1    0    0  503  502  0.00000000000E+00 -0.00000000000E+00 -0.93736331661E+02  0.93736331661E+02  0.00000000000E+00 0. -1.
         23    2    1    2    0    0 -0.48419132927E+03 -0.53180527460E-01  0.18323084872E+04  0.18974109667E+04  0.91502668033E+02 0.  0.
         23    2    1    2    0    0  0.99150094931E+02 -0.39496388797E+02  0.20374270490E+03  0.24802376934E+03  0.92811606527E+02 0.  0.
        -11    1    4    4    0    0  0.87474493073E+02  0.78628579852E+01  0.98142373987E+02  0.13170245649E+03  0.00000000000E+00 0. -1.
         11    1    4    4    0    0  0.11675601858E+02 -0.47359246782E+02  0.10560033091E+03  0.11632131285E+03  0.00000000000E+00 0.  1.
        -11    1    3    3    0    0 -0.11259285256E+03  0.18988860320E+02  0.31217658885E+03  0.33240329404E+03  0.00000000000E+00 0.  1.
         11    1    3    3    0    0 -0.37159847671E+03 -0.19042040847E+02  0.15201318983E+04  0.15650076727E+04  0.00000000000E+00 0. -1.
         21    1    1    2  503  501  0.60227450040E+02 -0.11672952780E+03  0.13513127394E+03  0.18845049640E+03  0.00000000000E+00 0. -1.
          1    1    1    2  501    0  0.32481378430E+03  0.15627909712E+03  0.26102975626E+04  0.26350674594E+04  0.00000000000E+00 0. -1.
<scales pt_clust_5="13000.00000" pt_clust_6="13000.00000" pt_clust_7="13000.00000" pt_clust_8="13000.00000" pt_clust_9="131.35116" pt_clust_10="13000.00000"></scales>
<clustering>
<clus scale="   91.503">  7  8 -1 -1</clus>
<clus scale="   92.812">  5  6 -1 -1</clus>
<clus scale="  131.351">  2  9  1 -1</clus>
<clus scale="  361.943">  5 10 -1 -1</clus>
<clus scale="  467.525">  1  7  2 -1</clus>
<clus scale="  131.351">  2  5  1 -1</clus>
</clustering>
</event>
<event>
10    2  0.4951045E-006  0.2208865E+03  0.7546771E-02  0.1138029E+00
         21   -1    0    0  503  502  0.00000000000E+00  0.00000000000E+00  0.77632108288E+02  0.77632108288E+02  0.00000000000E+00 0.  1.
          1   -1    0    0  502    0 -0.00000000000E+00 -0.00000000000E+00 -0.89532887148E+03  0.89532887148E+03  0.00000000000E+00 0. -1.
         23    2    1    2    0    0  0.12921487452E+03 -0.10956025865E+03 -0.56778501702E+03  0.59936789321E+03  0.90344406544E+02 0.  0.
         23    2    1    2    0    0 -0.11941223636E+03  0.12040221871E+03 -0.23895438092E+03  0.30747073834E+03  0.93183058086E+02 0.  0.
        -11    1    3    3    0    0  0.25900363818E+02 -0.66496011785E+01 -0.22580856195E+02  0.34999158679E+02  0.00000000000E+00 0.  1.
         11    1    3    3    0    0  0.10331451071E+03 -0.10291065747E+03 -0.54520416082E+03  0.56436873453E+03  0.00000000000E+00 0. -1.
        -13    1    4    4    0    0 -0.10972378175E+03  0.69474953113E+02 -0.11638460901E+03  0.17438880298E+03  0.00000000000E+00 0.  1.
         13    1    4    4    0    0 -0.96884546149E+01  0.50927265596E+02 -0.12256977191E+03  0.13308193536E+03  0.00000000000E+00 0. -1.
         21    1    1    2  503  501  0.24296698988E+02 -0.14579812696E+01  0.84685300498E+01  0.25771520954E+02  0.00000000000E+00 0.  1.
          1    1    1    2  501    0 -0.34099337148E+02 -0.93839787921E+01 -0.19425895312E+02  0.40350827260E+02  0.00000000000E+00 0. -1.
<scales pt_clust_5="13000.00000" pt_clust_6="13000.00000" pt_clust_7="13000.00000" pt_clust_8="13000.00000" pt_clust_9="24.34040" pt_clust_10="13000.00000"></scales>
<clustering>
<clus scale="   24.340">  1  9  2 -1</clus>
<clus scale="   90.344">  5  6 -1 -1</clus>
<clus scale="   93.183">  7  8 -1 -1</clus>
<clus scale="   31.413">  7 10 -1 -1</clus>
<clus scale="  196.531">  2  5  1 -1</clus>
<clus scale="   24.340">  1  5  2 -1</clus>
</clustering>
</event>
<event>
10    2  0.4951045E-006  0.2332735E+03  0.7546771E-02  0.1160745E+00
         -2   -1    0    0    0  501 -0.00000000000E+00  0.00000000000E+00  0.53845945026E+03  0.53845945026E+03  0.00000000000E+00 0.  1.
         21   -1    0    0  503  502  0.00000000000E+00 -0.00000000000E+00 -0.15773362200E+03  0.15773362200E+03  0.00000000000E+00 0.  1.
         23    2    1    2    0    0  0.16222954415E+02  0.23646038634E+02  0.24371340745E+03  0.26207253828E+03  0.91997124733E+02 0.  0.
         23    2    1    2    0    0 -0.71330494078E+02  0.33452485141E+02  0.24395577333E+03  0.27223586684E+03  0.91601526744E+02 0.  0.
        -11    1    4    4    0    0 -0.92486435455E+02  0.25795572672E+02  0.21578798356E+03  0.23618553334E+03  0.00000000000E+00 0. -1.
         11    1    4    4    0    0  0.21155941377E+02  0.76569124694E+01  0.28167789775E+02  0.36050333492E+02  0.00000000000E+00 0.  1.
        -11    1    3    3    0    0  0.50794915636E+02  0.31077123845E+02  0.13003113440E+03  0.14301750590E+03  0.00000000000E+00 0.  1.
         11    1    3    3    0    0 -0.34571961220E+02 -0.74310852107E+01  0.11368227305E+03  0.11905503238E+03  0.00000000000E+00 0. -1.
         21    1    1    2  503  501  0.34463956313E+02 -0.16296655844E+01 -0.95581640108E+02  0.10161825633E+03  0.00000000000E+00 0.  1.
         -2    1    1    2    0  502  0.20643583350E+02 -0.55468858191E+02 -0.11361712420E+02  0.60266410807E+02  0.00000000000E+00 0.  1.
<scales pt_clust_5="13000.00000" pt_clust_6="13000.00000" pt_clust_7="13000.00000" pt_clust_8="13000.00000" pt_clust_9="34.50247" pt_clust_10="13000.00000"></scales>
<clustering>
<clus scale="   34.502">  2  9  1 -1</clus>
<clus scale="   91.602">  5  6 -1 -1</clus>
<clus scale="   70.078">  5 10 -1 -1</clus>
<clus scale="   91.997">  7  8 -1 -1</clus>
<clus scale="   97.345">  1  7  2 -1</clus>
<clus scale="   34.502">  2  5  1 -1</clus>
</clustering>
</event>
<event>
10    2  0.4951045E-006  0.3038725E+03  0.7546771E-02  0.1127419E+00
         -3   -1    0    0    0  501 -0.00000000000E+00  0.00000000000E+00  0.15950312582E+03  0.15950312582E+03  0.00000000000E+00 0.  1.
         21   -1    0    0  503  502  0.00000000000E+00 -0.00000000000E+00 -0.32280214742E+03  0.32280214742E+03  0.00000000000E+00 0.  1.
         23    2    1    2    0    0 -0.16509362294E+02  0.22650240926E+02 -0.59597725158E+02  0.11350003718E+03  0.92437963735E+02 0.  0.
         23    2    1    2    0    0  0.10646198522E+03 -0.28243671513E+02  0.55292964459E+02  0.15376093041E+03  0.91941571248E+02 0.  0.
        -13    1    4    4    0    0  0.45625160941E+01  0.25975839437E+02  0.15025403669E+01  0.26416252860E+02  0.00000000000E+00 0. -1.
         13    1    4    4    0    0  0.10189946912E+03 -0.54219510951E+02  0.53790424092E+02  0.12734467755E+03  0.00000000000E+00 0.  1.
        -13    1    3    3    0    0  0.34933301039E+01 -0.34166514355E+02 -0.33085325436E+02  0.47688497749E+02  0.00000000000E+00 0.  1.
         13    1    3    3    0    0 -0.20002692398E+02  0.56816755281E+02 -0.26512399722E+02  0.65811539435E+02  0.00000000000E+00 0. -1.
         21    1    1    2  503  501  0.20227513369E+02  0.24209768255E+02 -0.48789613153E+02  0.58100701611E+02  0.00000000000E+00 0.  1.
         -3    1    1    2    0  502 -0.11018013629E+03 -0.18616337667E+02 -0.11020464775E+03  0.15694360403E+03  0.00000000000E+00 0.  1.
<scales pt_clust_5="13000.00000" pt_clust_6="13000.00000" pt_clust_7="13000.00000" pt_clust_8="13000.00000" pt_clust_9="31.54782" pt_clust_10="13000.00000"></scales>
<clustering>
<clus scale="   31.548">  2  9  1 -1</clus>
<clus scale="   91.942">  5  6 -1 -1</clus>
<clus scale="   92.438">  7  8 -1 -1</clus>
<clus scale="   97.831">  1  7  2 -1</clus>
<clus scale="  101.831">  5 10 -1 -1</clus>
<clus scale="   31.548">  2  5  1 -1</clus>
</clustering>
</event>
<event>
10    2  0.4951045E-006  0.1518007E+03  0.7546771E-02  0.1205770E+00
          1   -1    0    0  502    0 -0.00000000000E+00  0.00000000000E+00  0.21374268061E+03  0.21374268061E+03  0.00000000000E+00 0. -1.
         21   -1    0    0  503  502  0.00000000000E+00 -0.00000000000E+00 -0.20648380756E+03  0.20648380756E+03  0.00000000000E+00 0. -1.
         23    2    1    2    0    0  0.25140239099E+02  0.87885802613E+02  0.82508212090E+02  0.15559143508E+03  0.95105960296E+02 0.  0.
         23    2    1    2    0    0  0.19304326163E+02 -0.49259807690E+02  0.28783691258E+02  0.10951981989E+03  0.91470784433E+02 0.  0.
        -11    1    3    3    0    0 -0.12630745757E+02  0.92594336021E+02  0.64004484672E+02  0.11326879914E+03  0.00000000000E+00 0. -1.
         11    1    3    3    0    0  0.37770984855E+02 -0.47085334086E+01  0.18503727418E+02  0.42322635931E+02  0.00000000000E+00 0.  1.
        -13    1    4    4    0    0  0.21177627988E+02  0.54643870912E+01 -0.24690188077E+02  0.32984190770E+02  0.00000000000E+00 0.  1.
         13    1    4    4    0    0 -0.18733018256E+01 -0.54724194781E+02  0.53473879334E+02  0.76535629123E+02  0.00000000000E+00 0. -1.
         21    1    1    2  503  501 -0.67168850730E+02 -0.20311280660E+01 -0.84100451325E+02  0.10765066606E+03  0.00000000000E+00 0. -1.
          1    1    1    2  501    0  0.22724285469E+02 -0.36594866857E+02 -0.19932578974E+02  0.47464567151E+02  0.00000000000E+00 0. -1.
<scales pt_clust_5="13000.00000" pt_clust_6="13000.00000" pt_clust_7="13000.00000" pt_clust_8="13000.00000" pt_clust_9="67.19955" pt_clust_10="13000.00000"></scales>
<clustering>
<clus scale="   67.200">  2  9  1 -1</clus>
<clus scale="   91.471">  7  8 -1 -1</clus>
<clus scale="   37.282">  7 10 -1 -1</clus>
<clus scale="   95.106">  5  6 -1 -1</clus>
<clus scale="  129.075">  1  5  2 -1</clus>
<clus scale="   67.200">  2  5  1 -1</clus>
</clustering>
</event>
<event>
10    2  0.4951045E-006  0.3393855E+03  0.7546771E-02  0.1089374E+00
          1   -1    0    0  503    0 -0.00000000000E+00  0.00000000000E+00  0.59760251340E+03  0.59760251340E+03  0.00000000000E+00 0. -1.
         21   -1    0    0  501  502  0.00000000000E+00 -0.00000000000E+00 -0.53540665813E+03  0.53540665813E+03  0.00000000000E+00 0. -1.
         23    2    1    2    0    0 -0.14001584010E+03  0.81922267369E+02  0.47108879312E+03  0.50584526590E+03  0.87401880218E+02 0.  0.
         23    2    1    2    0    0 -0.19715409425E+01 -0.30204385419E+01 -0.58518905844E+01  0.91124792725E+02  0.90865137446E+02 0.  0.
        -11    1    4    4    0    0  0.84620876350E+01 -0.45813478048E+02 -0.67140330649E+01  0.47069734841E+02  0.00000000000E+00 0.  1.
         11    1    4    4    0    0 -0.10433628577E+02  0.42793039506E+02  0.86214248054E+00  0.44055057884E+02  0.00000000000E+00 0. -1.
        -13    1    3    3    0    0 -0.58825124495E+02  0.84487527680E+02  0.27104513797E+03  0.28993793202E+03  0.00000000000E+00 0. -1.
         13    1    3    3    0    0 -0.81190715601E+02 -0.25652603115E+01  0.20004365514E+03  0.21590733388E+03  0.00000000000E+00 0.  1.
         21    1    1    2  503  502 -0.14762977468E+02  0.65505171804E+02  0.13174872830E+02  0.68428432036E+02  0.00000000000E+00 0. -1.
          1    1    1    2  501    0  0.15675035851E+03 -0.14440700063E+03 -0.41621592009E+03  0.46761068087E+03  0.00000000000E+00 0. -1.
<scales pt_clust_5="13000.00000" pt_clust_6="13000.00000" pt_clust_7="13000.00000" pt_clust_8="13000.00000" pt_clust_9="67.14818" pt_clust_10="13000.00000"></scales>
<clustering>
<clus scale="   67.148">  2  9  1 -1</clus>
<clus scale="   87.402">  7  8 -1 -1</clus>
<clus scale="   90.865">  5  6 -1 -1</clus>
<clus scale="  168.364">  5 10 -1 -1</clus>
<clus scale="  185.658">  1  7  2 -1</clus>
<clus scale="   67.148">  2  5  1 -1</clus>
</clustering>
</event>
<event>
10    2  0.4951045E-006  0.3645849E+03  0.7546771E-02  0.1098256E+00
         21   -1    0    0  503  502  0.00000000000E+00  0.00000000000E+00  0.19392901657E+03  0.19392901657E+03  0.00000000000E+00 0. -1.
          1   -1    0    0  502    0 -0.00000000000E+00 -0.00000000000E+00 -0.49962905775E+03  0.49962905775E+03  0.00000000000E+00 0. -1.
         23    2    1    2    0    0  0.35214784308E+02 -0.80481688001E+02  0.20227967001E+02  0.12629808263E+03  0.88457062400E+02 0.  0.
         23    2    1    2    0    0 -0.95120081193E+02 -0.13494953427E+02 -0.36054219417E+03  0.38457069462E+03  0.93134321125E+02 0.  0.
        -11    1    3    3    0    0  0.63369216523E+02 -0.57393360053E+02  0.26155795547E+02  0.89407947195E+02  0.00000000000E+00 0. -1.
         11    1    3    3    0    0 -0.28154432215E+02 -0.23088327949E+02 -0.59278285469E+01  0.36890135430E+02  0.00000000000E+00 0.  1.
        -11    1    4    4    0    0 -0.10441735405E+03 -0.35085536202E+02 -0.29008572954E+03  0.31029616362E+03  0.00000000000E+00 0. -1.
         11    1    4    4    0    0  0.92972728525E+01  0.21590582775E+02 -0.70456464632E+02  0.74274531001E+02  0.00000000000E+00 0.  1.
         21    1    1    2  503  501 -0.36200994520E+02  0.68521792352E+01  0.37995938518E+02  0.52925945512E+02  0.00000000000E+00 0. -1.
          1    1    1    2  501    0  0.96106291405E+02  0.87124462193E+02 -0.33817525335E+01  0.12976335157E+03  0.00000000000E+00 0. -1.
<scales pt_clust_5="13000.00000" pt_clust_6="13000.00000" pt_clust_7="13000.00000" pt_clust_8="13000.00000" pt_clust_9="36.84378" pt_clust_10="13000.00000"></scales>
<clustering>
<clus scale="   36.844">  1  9  2 -1</clus>
<clus scale="   88.457">  5  6 -1 -1</clus>
<clus scale="   93.134">  7  8 -1 -1</clus>
<clus scale="  118.618">  2  5  1 -1</clus>
<clus scale="  114.932">  7 10 -1 -1</clus>
<clus scale="   36.844">  1  5  2 -1</clus>
</clustering>
</event>
<event>
10    2  0.4951045E-006  0.4460147E+03  0.7546771E-02  0.1065011E+00
         21   -1    0    0  501  502  0.00000000000E+00  0.00000000000E+00  0.16336061466E+03  0.16336061466E+03  0.00000000000E+00 0.  1.
          1   -1    0    0  503    0 -0.00000000000E+00 -0.00000000000E+00 -0.84438633060E+03  0.84438633060E+03  0.00000000000E+00 0. -1.
         23    2    1    2    0    0  0.98533534059E+02 -0.83943310381E+02 -0.12940946728E+03  0.20344464442E+03  0.88812028631E+02 0.  0.
         23    2    1    2    0    0 -0.25566935497E+03  0.26551361749E+01 -0.24809403407E+03  0.36796347767E+03  0.92046739960E+02 0.  0.
        -13    1    3    3    0    0  0.23018024087E+02  0.67550423828E+01 -0.64358904467E+02  0.68684267592E+02  0.00000000000E+00 0. -1.
         13    1    3    3    0    0  0.75515509972E+02 -0.90698352764E+02 -0.65050562812E+02  0.13476037683E+03  0.00000000000E+00 0.  1.
        -13    1    4    4    0    0 -0.90543121262E+02 -0.38100130286E+02 -0.63549503692E+02  0.11699665019E+03  0.00000000000E+00 0.  1.
         13    1    4    4    0    0 -0.16512623371E+03  0.40755266460E+02 -0.18454453038E+03  0.25096682748E+03  0.00000000000E+00 0. -1.
         21    1    1    2  503  502  0.23674360962E+02  0.22798821347E+02  0.46645927716E+02  0.57062283465E+02  0.00000000000E+00 0.  1.
          1    1    1    2  501    0  0.13346145995E+03  0.58489352859E+02 -0.35016814230E+03  0.37927653971E+03  0.00000000000E+00 0. -1.
<scales pt_clust_5="13000.00000" pt_clust_6="13000.00000" pt_clust_7="13000.00000" pt_clust_8="13000.00000" pt_clust_9="32.86733" pt_clust_10="13000.00000"></scales>
<clustering>
<clus scale="   32.867">  1  9  2 -1</clus>
<clus scale="   88.812">  5  6 -1 -1</clus>
<clus scale="   92.047">  7  8 -1 -1</clus>
<clus scale="  149.747">  7 10 -1 -1</clus>
<clus scale="  158.241">  2  5  1 -1</clus>
<clus scale="   32.867">  1  5  2 -1</clus>
</clustering>
</event>
<event>
10    2  0.5658066E-006  0.5567228E+03  0.7546771E-02  0.1006593E+00
         21   -1    0    0  503  502  0.00000000000E+00  0.00000000000E+00  0.43741497228E+03  0.43741497228E+03  0.00000000000E+00 0. -1.
          2   -1    0    0  502    0 -0.00000000000E+00 -0.00000000000E+00 -0.69536933988E+03  0.69536933988E+03  0.00000000000E+00 0. -1.
         23    2    1    2    0    0  0.41464904748E+03 -0.18922165926E+03 -0.26933560756E+03  0.53749211378E+03  0.92830135015E+02 0.  0.
         23    2    1    2    0    0 -0.23699950570E+02 -0.45806305714E+02 -0.45699650241E+02  0.11418355927E+03  0.91046811451E+02 0.  0.
        -11    1    3    3    0    0  0.69329216394E+02 -0.10835856253E+02 -0.11586249389E+02  0.71121003941E+02  0.00000000000E+00 0.  1.
         11    1    3    3    0    0  0.34531983109E+03 -0.17838580301E+03 -0.25774935817E+03  0.46637110984E+03  0.00000000000E+00 0. -1.
        -13    1    4    4    0    0  0.15346693620E+02  0.18562729648E+02 -0.27831360714E+02  0.36805985604E+02  0.00000000000E+00 0.  1.
         13    1    4    4    0    0 -0.39046644190E+02 -0.64369035362E+02 -0.17868289527E+02  0.77377573667E+02  0.00000000000E+00 0. -1.
         21    1    1    2  503  501 -0.49032480774E+02 -0.12712032742E+02  0.27991469430E+02  0.57873157060E+02  0.00000000000E+00 0. -1.
          2    1    1    2  501    0 -0.34191661614E+03  0.24773999772E+03  0.29089420772E+02  0.42323548204E+03  0.00000000000E+00 0. -1.
<scales pt_clust_5="13000.00000" pt_clust_6="13000.00000" pt_clust_7="13000.00000" pt_clust_8="13000.00000" pt_clust_9="50.65353" pt_clust_10="13000.00000"></scales>
<clustering>
<clus scale="   50.654">  1  9  2 -1</clus>
<clus scale="   91.047">  7  8 -1 -1</clus>
<clus scale="   92.830">  5  6 -1 -1</clus>
<clus scale="  441.291">  7 10 -1 -1</clus>
<clus scale="  452.180">  2  5  1 -1</clus>
<clus scale="   50.654">  1  5  2 -1</clus>
</clustering>
</event>
<event>
10    2  0.4951045E-006  0.2971222E+03  0.7546771E-02  0.1093838E+00
         21   -1    0    0  501  502  0.00000000000E+00  0.00000000000E+00  0.10485599430E+03  0.10485599430E+03  0.00000000000E+00 0.  1.
         -1   -1    0    0    0  501 -0.00000000000E+00 -0.00000000000E+00 -0.12356157874E+04  0.12356157874E+04  0.00000000000E+00 0.  1.
         23    2    1    2    0    0  0.14365891212E+03 -0.15930636791E+03 -0.34493964966E+03  0.41748580965E+03  0.96408700124E+02 0.  0.
         23    2    1    2    0    0 -0.39595659943E+02  0.13304891897E+03 -0.53063014557E+03  0.55864706757E+03  0.10605830278E+03 0.  0.
        -11    1    3    3    0    0  0.42127187459E+02 -0.11443278174E+03 -0.15172633222E+03  0.19465467205E+03  0.00000000000E+00 0.  1.
         11    1    3    3    0    0  0.10153172467E+03 -0.44873586172E+02 -0.19321331744E+03  0.22283113760E+03  0.00000000000E+00 0. -1.
        -13    1    4    4    0    0  0.21987423881E+02 -0.13310605669E+01 -0.12491756219E+03  0.12684484961E+03  0.00000000000E+00 0. -1.
         13    1    4    4    0    0 -0.61583083824E+02  0.13437997954E+03 -0.40571258339E+03  0.43180221796E+03  0.00000000000E+00 0.  1.
         21    1    1    2  503  502  0.16661946233E+02 -0.12663313284E+02  0.38837796942E+02  0.44117507034E+02  0.00000000000E+00 0.  1.
         -1    1    1    2    0  503 -0.12072519841E+03  0.38920762223E+02 -0.29402779483E+03  0.32022139747E+03  0.00000000000E+00 0.  1.
<scales pt_clust_5="13000.00000" pt_clust_6="13000.00000" pt_clust_7="13000.00000" pt_clust_8="13000.00000" pt_clust_9="20.92797" pt_clust_10="13000.00000"></scales>
<clustering>
<clus scale="   20.928">  1  9  2 -1</clus>
<clus scale="   96.409">  5  6 -1 -1</clus>
<clus scale="  106.058">  7  8 -1 -1</clus>
<clus scale="  122.772">  7 10 -1 -1</clus>
<clus scale="  245.975">  2  5  1 -1</clus>
<clus scale="   20.928">  1  5  2 -1</clus>
</clustering>
</event>
<event>
10    2  0.4951045E-006  0.2671639E+03  0.7546771E-02  0.1137746E+00
         -1   -1    0    0    0  501 -0.00000000000E+00  0.00000000000E+00  0.20155575418E+03  0.20155575418E+03  0.00000000000E+00 0.  1.
         21   -1    0    0  503  502  0.00000000000E+00 -0.00000000000E+00 -0.71077275404E+03  0.71077275404E+03  0.00000000000E+00 0.  1.
         23    2    1    2    0    0 -0.59698769240E+00  0.63005214933E+02  0.63822737708E+02  0.12876540988E+03  0.92396836688E+02 0.  0.
         23    2    1    2    0    0  0.37824574805E+02 -0.45093119364E+02  0.24561523807E+02  0.11306683117E+03  0.93363547416E+02 0.  0.
        -11    1    3    3    0    0 -0.36281692251E+02  0.66320349327E+02  0.38122401873E+02  0.84664440304E+02  0.00000000000E+00 0.  1.
         11    1    3    3    0    0  0.35684704559E+02 -0.33151343939E+01  0.25700335835E+02  0.44100969576E+02  0.00000000000E+00 0. -1.
        -11    1    4    4    0    0  0.68979186020E+02 -0.35399783272E+02  0.14108995966E+02  0.78805688417E+02  0.00000000000E+00 0.  1.
         11    1    4    4    0    0 -0.31154611215E+02 -0.96933360918E+01  0.10452527841E+02  0.34261142754E+02  0.00000000000E+00 0. -1.
         21    1    1    2  503  501 -0.10021390147E+03 -0.11042953314E+03 -0.50076250851E+03  0.52249459114E+03  0.00000000000E+00 0.  1.
         -1    1    1    2    0  502  0.62986314354E+02  0.92517437572E+02 -0.96838752867E+02  0.14800167603E+03  0.00000000000E+00 0.  1.
<scales pt_clust_5="13000.00000" pt_clust_6="13000.00000" pt_clust_7="13000.00000" pt_clust_8="13000.00000" pt_clust_9="144.41505" pt_clust_10="13000.00000"></scales>
<clustering>
<clus scale="   92.397">  5  6 -1 -1</clus>
<clus scale="   93.364">  7  8 -1 -1</clus>
<clus scale="  111.836">  1  5  2 -1</clus>
<clus scale="  124.805">  7 10 -1 -1</clus>
<clus scale="  144.415">  2  9  1 -1</clus>
<clus scale="  144.415">  2  5  1 -1</clus>
</clustering>
</event>
<event>
10    2  0.4951045E-006  0.2089087E+03  0.7546771E-02  0.1167951E+00
          1   -1    0    0  503    0 -0.00000000000E+00  0.00000000000E+00  0.68526054768E+03  0.68526054768E+03  0.00000000000E+00 0. -1.
         21   -1    0    0  501  502  0.00000000000E+00 -0.00000000000E+00 -0.12858720409E+03  0.12858720409E+03  0.00000000000E+00 0. -1.
         23    2    1    2    0    0  0.50736271782E+02  0.39311520931E+02  0.31484227498E+03  0.33481221404E+03  0.94095672630E+02 0.  0.
         23    2    1    2    0    0 -0.74985802394E+01  0.34214217157E+02  0.92012912458E+02  0.13390807124E+03  0.90764277793E+02 0.  0.
        -13    1    4    4    0    0  0.69706518290E+01  0.63868550649E+02  0.62692846561E+02  0.89767336815E+02  0.00000000000E+00 0. -1.
         13    1    4    4    0    0 -0.14469232068E+02 -0.29654333492E+02  0.29320065897E+02  0.44140734426E+02  0.00000000000E+00 0.  1.
        -13    1    3    3    0    0 -0.19585100409E+02  0.29110391324E+02  0.53471495394E+02  0.63954607815E+02  0.00000000000E+00 0. -1.
         13    1    3    3    0    0  0.70321372192E+02  0.10201129607E+02  0.26137077958E+03  0.27085760623E+03  0.00000000000E+00 0.  1.
         21    1    1    2  503  502 -0.89884466819E+01  0.20212490976E+02 -0.86138404584E+02  0.88933467881E+02  0.00000000000E+00 0. -1.
          1    1    1    2  501    0 -0.34249244861E+02 -0.93738229064E+02  0.23595656075E+03  0.25619399860E+03  0.00000000000E+00 0. -1.
<scales pt_clust_5="13000.00000" pt_clust_6="13000.00000" pt_clust_7="13000.00000" pt_clust_8="13000.00000" pt_clust_9="22.12096" pt_clust_10="13000.00000"></scales>
<clustering>
<clus scale="   22.121">  2  9  1 -1</clus>
<clus scale="   90.764">  5  6 -1 -1</clus>
<clus scale="   94.096">  7  8 -1 -1</clus>
<clus scale="   95.955">  5 10 -1 -1</clus>
<clus scale="  114.748">  1  7  2 -1</clus>
<clus scale="   22.121">  2  5  1 -1</clus>
</clustering>
</event>
<event>
10    2  0.4951045E-006  0.6281069E+03  0.7546771E-02  0.1042531E+00
          3   -1    0    0  502    0 -0.00000000000E+00  0.00000000000E+00  0.95035829268E+03  0.95035829268E+03  0.00000000000E+00 0. -1.
         21   -1    0    0  503  502  0.00000000000E+00 -0.00000000000E+00 -0.19137212823E+03  0.19137212823E+03  0.00000000000E+00 0. -1.
         23    2    1    2    0    0  0.53427556214E+02  0.77835197868E+01  0.23306304556E+03  0.25639882760E+03  0.92232795933E+02 0.  0.
         23    2    1    2    0    0  0.22997940016E+03 -0.13166890582E+03  0.44143634627E+03  0.52427799592E+03  0.98864270307E+02 0.  0.
        -11    1    3    3    0    0  0.72046521524E+02 -0.14450061254E+02  0.19611413614E+03  0.20942841242E+03  0.00000000000E+00 0. -1.
         11    1    3    3    0    0 -0.18618965309E+02  0.22233581041E+02  0.36948909424E+02  0.46970415186E+02  0.00000000000E+00 0.  1.
        -13    1    4    4    0    0  0.86272683971E+02 -0.62466985239E+02  0.26933010703E+03  0.28962701324E+03  0.00000000000E+00 0.  1.
         13    1    4    4    0    0  0.14370671619E+03 -0.69201920577E+02  0.17210623924E+03  0.23465098268E+03  0.00000000000E+00 0. -1.
         21    1    1    2  503  501 -0.65163749124E+01  0.67588569791E+02  0.83041061987E+01  0.68407865689E+02  0.00000000000E+00 0. -1.
          3    1    1    2  501    0 -0.27689058146E+03  0.56296816239E+02  0.76182666425E+02  0.29264573170E+03  0.00000000000E+00 0. -1.
<scales pt_clust_5="13000.00000" pt_clust_6="13000.00000" pt_clust_7="13000.00000" pt_clust_8="13000.00000" pt_clust_9="67.90197" pt_clust_10="13000.00000"></scales>
<clustering>
<clus scale="   67.902">  2  9  1 -1</clus>
<clus scale="   92.233">  5  6 -1 -1</clus>
<clus scale="   98.864">  7  8 -1 -1</clus>
<clus scale="  107.107">  1  5  2 -1</clus>
<clus scale="  284.022">  7 10 -1 -1</clus>
<clus scale="   67.902">  2  5  1 -1</clus>
</clustering>
</event>
<event>
10    2  0.4951045E-006  0.3042338E+03  0.7546771E-02  0.1111637E+00
         21   -1    0    0  503  502  0.00000000000E+00  0.00000000000E+00  0.44052716054E+03  0.44052716054E+03  0.00000000000E+00 0. -1.
         -1   -1    0    0    0  501 -0.00000000000E+00 -0.00000000000E+00 -0.23923313699E+03  0.23923313699E+03  0.00000000000E+00 0.  1.
         23    2    1    2    0    0  0.12952188056E+03 -0.38953305839E+02 -0.21839204742E+02  0.16028681314E+03  0.83196358227E+02 0.  0.
         23    2    1    2    0    0 -0.79273419678E+02  0.14006165022E+03 -0.24042126795E+02  0.18594491405E+03  0.89977476448E+02 0.  0.
        -11    1    3    3    0    0  0.64196301827E+02  0.21699358040E+02  0.27368422995E+01  0.67819743536E+02  0.00000000000E+00 0.  1.
         11    1    3    3    0    0  0.65325578735E+02 -0.60652663878E+02 -0.24576047042E+02  0.92467069602E+02  0.00000000000E+00 0. -1.
        -11    1    4    4    0    0 -0.51374405087E+02  0.13079987994E+03 -0.47498115615E+02  0.14833748372E+03  0.00000000000E+00 0.  1.
         11    1    4    4    0    0 -0.27899014591E+02  0.92617702826E+01  0.23455988819E+02  0.37607430322E+02  0.00000000000E+00 0. -1.
         21    1    1    2  503  501 -0.54831507867E+02  0.18162889149E+01  0.22033610818E+03  0.22706341345E+03  0.00000000000E+00 0. -1.
         -1    1    1    2    0  502  0.45830469835E+01 -0.10292463330E+03  0.26839246907E+02  0.10646515690E+03  0.00000000000E+00 0.  1.
<scales pt_clust_5="13000.00000" pt_clust_6="13000.00000" pt_clust_7="13000.00000" pt_clust_8="13000.00000" pt_clust_9="54.86158" pt_clust_10="13000.00000"></scales>
<clustering>
<clus scale="   54.862">  1  9  2 -1</clus>
<clus scale="   83.196">  5  6 -1 -1</clus>
<clus scale="   89.977">  7  8 -1 -1</clus>
<clus scale="  103.099">  7 10 -1 -1</clus>
<clus scale="  144.713">  2  5  1 -1</clus>
<clus scale="   54.862">  1  5  2 -1</clus>
</clustering>
</event>
<event>
10    2  0.4951045E-006  0.3948286E+03  0.7546771E-02  0.1091935E+00
          1   -1    0    0  503    0 -0.00000000000E+00  0.00000000000E+00  0.24759435861E+03  0.24759435861E+03  0.00000000000E+00 0. -1.
         21   -1    0    0  501  502  0.00000000000E+00 -0.00000000000E+00 -0.37806096811E+03  0.37806096811E+03  0.00000000000E+00 0. -1.
         23    2    1    2    0    0  0.24172694558E+02  0.70885872556E+02 -0.10841204128E+02  0.11839998791E+03  0.91059866787E+02 0.  0.
         23    2    1    2    0    0 -0.10234578437E+03 -0.16821963146E+02  0.14277158330E+03  0.19867233133E+03  0.91265175270E+02 0.  0.
        -11    1    4    4    0    0 -0.84499121748E+02 -0.49174120678E+02  0.12181180345E+03  0.15619318545E+03  0.00000000000E+00 0. -1.
         11    1    4    4    0    0 -0.17846662623E+02  0.32352157532E+02  0.20959779844E+02  0.42479145882E+02  0.00000000000E+00 0.  1.
        -13    1    3    3    0    0 -0.22016319999E+02 -0.36632043852E+01 -0.20329600379E+02  0.30189900037E+02  0.00000000000E+00 0. -1.
         13    1    3    3    0    0  0.46189014558E+02  0.74549076941E+02  0.94883962514E+01  0.88210087870E+02  0.00000000000E+00 0.  1.
         21    1    1    2  503  502 -0.28451479969E+02 -0.46929721966E+02 -0.10242234062E+03  0.11619905927E+03  0.00000000000E+00 0. -1.
          1    1    1    2  501    0  0.10662456978E+03 -0.71341874433E+01 -0.15997464804E+03  0.19238394821E+03  0.00000000000E+00 0. -1.
<scales pt_clust_5="13000.00000" pt_clust_6="13000.00000" pt_clust_7="13000.00000" pt_clust_8="13000.00000" pt_clust_9="54.88065" pt_clust_10="13000.00000"></scales>
<clustering>
<clus scale="   54.881">  2  9  1 -1</clus>
<clus scale="   91.060">  7  8 -1 -1</clus>
<clus scale="   91.265">  5  6 -1 -1</clus>
<clus scale="   95.789">  5 10 -1 -1</clus>
<clus scale="  110.203">  1  7  2 -1</clus>
<clus scale="   54.881">  2  5  1 -1</clus>
</clustering>
</event>
<event>
10    2  0.4951045E-006  0.2173111E+03  0.7546771E-02  0.1161181E+00
          2   -1    0    0  503    0 -0.00000000000E+00  0.00000000000E+00  0.76269802942E+03  0.76269802942E+03  0.00000000000E+00 0. -1.
         21   -1    0    0  501  502  0.00000000000E+00 -0.00000000000E+00 -0.61006030378E+02  0.61006030378E+02  0.00000000000E+00 0. -1.
         23    2    1    2    0    0 -0.58612715415E+02 -0.33161839743E+02  0.20079385093E+03  0.23018637532E+03  0.90180035415E+02 0.  0.
         23    2    1    2    0    0  0.59862943737E+02 -0.17076477171E+02  0.44982487549E+03  0.46312182322E+03  0.90907790781E+02 0.  0.
        -11    1    3    3    0    0  0.22689160470E+02  0.30163827455E+01  0.51965078414E+02  0.56782620073E+02  0.00000000000E+00 0.  1.
         11    1    3    3    0    0 -0.81301875885E+02 -0.36178222488E+02  0.14882877251E+03  0.17340375524E+03  0.00000000000E+00 0. -1.
        -13    1    4    4    0    0 -0.21874849275E+02 -0.17023049013E+02  0.13844701353E+03  0.14119443609E+03  0.00000000000E+00 0.  1.
         13    1    4    4    0    0  0.81737793012E+02 -0.53428157572E-01  0.31137786196E+03  0.32192738712E+03  0.00000000000E+00 0. -1.
         21    1    1    2  503  502 -0.50056388816E+02  0.46683137413E+02  0.42907587494E+02  0.80783775874E+02  0.00000000000E+00 0. -1.
          2    1    1    2  501    0  0.48806160494E+02  0.35551795008E+01  0.81656851345E+01  0.49612085395E+02  0.00000000000E+00 0. -1.
<scales pt_clust_5="13000.00000" pt_clust_6="13000.00000" pt_clust_7="13000.00000" pt_clust_8="13000.00000" pt_clust_9="68.44675" pt_clust_10="13000.00000"></scales>
<clustering>
<clus scale="   68.447">  2  9  1 -1</clus>
<clus scale="   90.180">  5  6 -1 -1</clus>
<clus scale="   90.908">  7  8 -1 -1</clus>
<clus scale="   35.890">  7 10 -1 -1</clus>
<clus scale="  119.196">  1  5  2 -1</clus>
<clus scale="   68.447">  2  5  1 -1</clus>
</clustering>
</event>
<event>
10    2  0.4951045E-006  0.2127900E+03  0.7546771E-02  0.1151013E+00
          2   -1    0    0  502    0 -0.00000000000E+00  0.00000000000E+00  0.61399684878E+03  0.61399684878E+03  0.00000000000E+00 0. -1.
         21   -1    0    0  503  502  0.00000000000E+00 -0.00000000000E+00 -0.30873437649E+03  0.30873437649E+03  0.00000000000E+00 0. -1.
         23    2    1    2    0    0 -0.42196296369E+02  0.12754598703E+03  0.55536598738E+03  0.57846824944E+03  0.90253140891E+02 0.  0.
         23    2    1    2    0    0  0.11217114174E+02 -0.43782143877E+02 -0.29301246774E+02  0.10441901527E+03  0.89454278348E+02 0.  0.
        -11    1    4    4    0    0  0.16258483358E+02 -0.64461043872E+02 -0.42938080031E+02  0.79140654375E+02  0.00000000000E+00 0.  1.
         11    1    4    4    0    0 -0.50413691842E+01  0.20678899995E+02  0.13636833257E+02  0.25278360895E+02  0.00000000000E+00 0. -1.
        -11    1    3    3    0    0  0.13973355060E+02  0.88929911786E+02  0.37495268999E+03  0.38560770687E+03  0.00000000000E+00 0.  1.
         11    1    3    3    0    0 -0.56169651429E+02  0.38616075246E+02  0.18041329739E+03  0.19286054258E+03  0.00000000000E+00 0. -1.
         21    1    1    2  503  501  0.14410980481E+02 -0.14024513088E+02 -0.70708966504E+02  0.73512728625E+02  0.00000000000E+00 0. -1.
          2    1    1    2  501    0  0.16568201714E+02 -0.69739330067E+02 -0.15009330182E+03  0.16633123193E+03  0.00000000000E+00 0. -1.
<scales pt_clust_5="13000.00000" pt_clust_6="13000.00000" pt_clust_7="13000.00000" pt_clust_8="13000.00000" pt_clust_9="20.10879" pt_clust_10="13000.00000"></scales>
<clustering>
<clus scale="   20.109">  2  9  1 -1</clus>
<clus scale="   89.454">  5  6 -1 -1</clus>
<clus scale="   83.343">  5 10 -1 -1</clus>
<clus scale="   90.253">  7  8 -1 -1</clus>
<clus scale="  161.124">  1  7  2 -1</clus>
<clus scale="   20.109">  2  5  1 -1</clus>
</clustering>
</event>
<event>
10    2  0.4951045E-006  0.2505765E+03  0.7546771E-02  0.1120471E+00
         21   -1    0    0  503  502  0.00000000000E+00  0.00000000000E+00  0.75148509455E+02  0.75148509455E+02  0.00000000000E+00 0.  1.
          1   -1    0    0  502    0 -0.00000000000E+00 -0.00000000000E+00 -0.16881048735E+04  0.16881048735E+04  0.00000000000E+00 0. -1.
         23    2    1    2    0    0 -0.57829617545E+02  0.14446342268E+03 -0.51511971822E+03  0.54410116351E+03  0.80522089359E+02 0.  0.
         23    2    1    2    0    0  0.10265896591E+02 -0.14266628568E+03 -0.76721018577E+03  0.78550125612E+03  0.89116196701E+02 0.  0.
        -11    1    4    4    0    0  0.31268384259E+02 -0.10117903448E+02 -0.11373450003E+03  0.11838758517E+03  0.00000000000E+00 0.  1.
         11    1    4    4    0    0 -0.21002487668E+02 -0.13254838224E+03 -0.65347568573E+03  0.66711367095E+03  0.00000000000E+00 0. -1.
        -13    1    3    3    0    0 -0.65801946046E+02  0.56826787334E+02 -0.24103527835E+03  0.25623658066E+03  0.00000000000E+00 0. -1.
         13    1    3    3    0    0  0.79723285003E+01  0.87636635343E+02 -0.27408443987E+03  0.28786458285E+03  0.00000000000E+00 0.  1.
         21    1    1    2  503  501 -0.37425088694E+02  0.71270830605E+02  0.41544802361E+01  0.80606626681E+02  0.00000000000E+00 0.  1.
          1    1    1    2  501    0  0.84988809648E+02 -0.73067967599E+02 -0.33478094027E+03  0.35304433662E+03  0.00000000000E+00 0. -1.
<scales pt_clust_5="13000.00000" pt_clust_6="13000.00000" pt_clust_7="13000.00000" pt_clust_8="13000.00000" pt_clust_9="80.49949" pt_clust_10="13000.00000"></scales>
<clustering>
<clus scale="   80.499">  1  9  2 -1</clus>
<clus scale="   80.522">  7  8 -1 -1</clus>
<clus scale="   89.116">  5  6 -1 -1</clus>
<clus scale="   91.597">  5 10 -1 -1</clus>
<clus scale="  207.329">  2  7  1 -1</clus>
<clus scale="   80.499">  1  5  2 -1</clus>
</clustering>
</event>
<event>
10    2  0.7284823E-006  0.4387817E+03  0.7546771E-02  0.1068765E+00
         21   -1    0    0  501  502  0.00000000000E+00  0.00000000000E+00  0.23896574972E+03  0.23896574972E+03  0.00000000000E+00 0.  1.
          2   -1    0    0  503    0 -0.00000000000E+00 -0.00000000000E+00 -0.21624948688E+04  0.21624948688E+04  0.00000000000E+00 0. -1.
         23    2    1    2    0    0  0.10997251097E+03  0.42921323006E+02 -0.21339457430E+03  0.26074090071E+03  0.92262559182E+02 0.  0.
         23    2    1    2    0    0  0.30578956502E+02 -0.18531206052E+02 -0.33290999077E+03  0.34701261648E+03  0.91160385378E+02 0.  0.
        -11    1    4    4    0    0 -0.25561642463E+02 -0.30885403744E+02 -0.15135226414E+03  0.15657207156E+03  0.00000000000E+00 0. -1.
         11    1    4    4    0    0  0.56140598965E+02  0.12354197692E+02 -0.18155772663E+03  0.19044054493E+03  0.00000000000E+00 0.  1.
        -11    1    3    3    0    0  0.10000738385E+03  0.22979454707E+02 -0.93601759590E+02  0.13889140205E+03  0.00000000000E+00 0. -1.
         11    1    3    3    0    0  0.99651271183E+01  0.19941868298E+02 -0.11979281471E+03  0.12184949867E+03  0.00000000000E+00 0.  1.
         21    1    1    2  503  502 -0.70641385157E+02 -0.32277119570E+03  0.49802991043E+02  0.33414336442E+03  0.00000000000E+00 0.  1.
          2    1    1    2  501    0 -0.69910082316E+02  0.29838107875E+03 -0.14270275451E+04  0.14595637369E+04  0.00000000000E+00 0. -1.
<scales pt_clust_5="13000.00000" pt_clust_6="13000.00000" pt_clust_7="13000.00000" pt_clust_8="13000.00000" pt_clust_9="325.65981" pt_clust_10="13000.00000"></scales>
<clustering>
<clus scale="   91.160">  5  6 -1 -1</clus>
<clus scale="   92.263">  7  8 -1 -1</clus>
<clus scale="  149.828">  2  7  1 -1</clus>
<clus scale="  325.660">  1  9  2 -1</clus>
<clus scale="  132.107">  5 10 -1 -1</clus>
<clus scale="  325.660">  1  5  2 -1</clus>
</clustering>
</event>
<event>
10    2  0.4951045E-006  0.2319134E+03  0.7546771E-02  0.1163926E+00
         21   -1    0    0  501  502  0.00000000000E+00  0.00000000000E+00  0.53613893252E+02  0.53613893252E+02  0.00000000000E+00 0.  1.
         -2   -1    0    0    0  501 -0.00000000000E+00 -0.00000000000E+00 -0.78407559350E+03  0.78407559350E+03  0.00000000000E+00 0.  1.
         23    2    1    2    0    0 -0.75980681668E+01  0.38921039760E+01 -0.17339989999E+03  0.19580978653E+03  0.90559748632E+02 0.  0.
         23    2    1    2    0    0  0.95675263416E+02  0.44247057463E+02 -0.30427428177E+03  0.33465962573E+03  0.91118979484E+02 0.  0.
        -13    1    4    4    0    0  0.89907264378E+02 -0.46548878622E+01 -0.19171422460E+03  0.21180020794E+03  0.00000000000E+00 0.  1.
         13    1    4    4    0    0  0.57679990381E+01  0.48901945325E+02 -0.11256005717E+03  0.12285941779E+03  0.00000000000E+00 0. -1.
        -13    1    3    3    0    0 -0.42795525835E+02 -0.21103590601E+02 -0.95006211110E+02  0.10631556197E+03  0.00000000000E+00 0. -1.
         13    1    3    3    0    0  0.35197457668E+02  0.24995694577E+02 -0.78393688881E+02  0.89494224562E+02  0.00000000000E+00 0.  1.
         21    1    1    2  503  502 -0.19539611298E+02  0.14022238470E+02  0.11894580154E+02  0.26830963800E+02  0.00000000000E+00 0.  1.
         -2    1    1    2    0  503 -0.68537583951E+02 -0.62161399908E+02 -0.26468209865E+03  0.28038911069E+03  0.00000000000E+00 0.  1.
<scales pt_clust_5="13000.00000" pt_clust_6="13000.00000" pt_clust_7="13000.00000" pt_clust_8="13000.00000" pt_clust_9="24.05036" pt_clust_10="13000.00000"></scales>
<clustering>
<clus scale="   24.050">  1  9  2 -1</clus>
<clus scale="   90.560">  7  8 -1 -1</clus>
<clus scale="   91.119">  5  6 -1 -1</clus>
<clus scale="   92.026">  2  7  1 -1</clus>
<clus scale="   96.785">  5 10 -1 -1</clus>
<clus scale="   24.050">  1  5  2 -1</clus>
</clustering>
</event>
<event>
10    2  0.4951045E-006  0.2084537E+03  0.7546771E-02  0.1164312E+00
         -1   -1    0    0    0  501 -0.00000000000E+00  0.00000000000E+00  0.17189440513E+03  0.17189440513E+03  0.00000000000E+00 0.  1.
         21   -1    0    0  503  502  0.00000000000E+00 -0.00000000000E+00 -0.36126072475E+03  0.36126072475E+03  0.00000000000E+00 0.  1.
         23    2    1    2    0    0 -0.61725821562E+02  0.61006582818E+02  0.87753503116E+02  0.15336958740E+03  0.91047640467E+02 0.  0.
         23    2    1    2    0    0  0.40196307252E+02 -0.67631231531E+01 -0.26874255951E+02  0.10162227172E+03  0.89125627773E+02 0.  0.
        -13    1    3    3    0    0 -0.40449582674E+02  0.83214614847E+02  0.78257130986E+02  0.12118176188E+03  0.00000000000E+00 0.  1.
         13    1    3    3    0    0 -0.21276238887E+02 -0.22208032029E+02  0.94963721299E+01  0.32187825515E+02  0.00000000000E+00 0. -1.
        -13    1    4    4    0    0  0.42928912237E+02 -0.38152369757E+02  0.39185801353E+01  0.57566049841E+02  0.00000000000E+00 0.  1.
         13    1    4    4    0    0 -0.27326049848E+01  0.31389246604E+02 -0.30792836086E+02  0.44056221883E+02  0.00000000000E+00 0. -1.
         21    1    1    2  503  501 -0.30242144438E+02 -0.36122815901E+02 -0.43008545314E+02  0.63790125402E+02  0.00000000000E+00 0.  1.
         -1    1    1    2    0  502  0.51771658747E+02 -0.18120643765E+02 -0.20723702147E+03  0.21437314535E+03  0.00000000000E+00 0.  1.
<scales pt_clust_5="13000.00000" pt_clust_6="13000.00000" pt_clust_7="13000.00000" pt_clust_8="13000.00000" pt_clust_9="47.11099" pt_clust_10="13000.00000"></scales>
<clustering>
<clus scale="   47.111">  2  9  1 -1</clus>
<clus scale="   89.126">  7  8 -1 -1</clus>
<clus scale="   52.930">  7 10 -1 -1</clus>
<clus scale="   91.048">  5  6 -1 -1</clus>
<clus scale="  125.598">  1  5  2 -1</clus>
<clus scale="   47.111">  2  5  1 -1</clus>
</clustering>
</event>
<event>
10    2  0.4951045E-006  0.1745777E+03  0.7546771E-02  0.1184364E+00
         21   -1    0    0  501  502  0.00000000000E+00  0.00000000000E+00  0.74057577538E+03  0.74057577538E+03  0.00000000000E+00 0. -1.
         -3   -1    0    0    0  501 -0.00000000000E+00 -0.00000000000E+00 -0.49684396883E+02  0.49684396883E+02  0.00000000000E+00 0.  1.
         23    2    1    2    0    0 -0.96198675934E+02 -0.26603517568E+02  0.41289098343E+03  0.43436596308E+03  0.90735292399E+02 0.  0.
         23    2    1    2    0    0  0.41984679680E+02 -0.33912374076E+02  0.13668489464E+03  0.17483064874E+03  0.94711313328E+02 0.  0.
        -11    1    4    4    0    0 -0.26655574718E+02  0.87194920371E+01  0.31151409769E+02  0.41916101149E+02  0.00000000000E+00 0. -1.
         11    1    4    4    0    0  0.68640254397E+02 -0.42631866113E+02  0.10553348487E+03  0.13291454759E+03  0.00000000000E+00 0.  1.
        -13    1    3    3    0    0 -0.17040745296E+02 -0.16908816516E+02  0.14444203225E+02  0.28016603702E+02  0.00000000000E+00 0.  1.
         13    1    3    3    0    0 -0.79157930638E+02 -0.96947010521E+01  0.39844678021E+03  0.40634935938E+03  0.00000000000E+00 0. -1.
         21    1    1    2  503  502 -0.70027777550E+01  0.38301470181E+02  0.90303150755E+02  0.98339720107E+02  0.00000000000E+00 0. -1.
         -3    1    1    2    0  503  0.61216774009E+02  0.22214421464E+02  0.51012349667E+02  0.82723840334E+02  0.00000000000E+00 0.  1.
<scales pt_clust_5="13000.00000" pt_clust_6="13000.00000" pt_clust_7="13000.00000" pt_clust_8="13000.00000" pt_clust_9="38.93638" pt_clust_10="13000.00000"></scales>
<clustering>
<clus scale="   38.936">  1  9  2 -1</clus>
<clus scale="   90.735">  7  8 -1 -1</clus>
<clus scale="   94.711">  5  6 -1 -1</clus>
<clus scale="   65.913">  5 10 -1 -1</clus>
<clus scale="  135.623">  2  7  1 -1</clus>
<clus scale="   38.936">  1  5  2 -1</clus>
</clustering>
</event>
<event>
10    2  0.4951045E-006  0.1699954E+03  0.7546771E-02  0.1202928E+00
         21   -1    0    0  503  502  0.00000000000E+00  0.00000000000E+00  0.12302933680E+03  0.12302933680E+03  0.00000000000E+00 0.  1.
          1   -1    0    0  502    0 -0.00000000000E+00 -0.00000000000E+00 -0.25053381363E+03  0.25053381363E+03  0.00000000000E+00 0. -1.
         23    2    1    2    0    0  0.41444748623E+02  0.28331868128E+00 -0.71448441211E+02  0.12106701337E+03  0.88513244867E+02 0.  0.
         23    2    1    2    0    0 -0.63270229400E+02  0.52914921207E+02 -0.10769988793E+03  0.16359740674E+03  0.91442521935E+02 0.  0.
        -11    1    3    3    0    0  0.74974285095E+01  0.37757751184E+02 -0.69604560929E+01  0.39119140555E+02  0.00000000000E+00 0.  1.
         11    1    3    3    0    0  0.33947320113E+02 -0.37474432503E+02 -0.64487985118E+02  0.81947872815E+02  0.00000000000E+00 0. -1.
        -11    1    4    4    0    0 -0.60693488454E+02  0.28409937506E+01 -0.22604160452E+02  0.64828380019E+02  0.00000000000E+00 0.  1.
         11    1    4    4    0    0 -0.25767409458E+01  0.50073927457E+02 -0.85095727475E+02  0.98769026720E+02  0.00000000000E+00 0. -1.
         21    1    1    2  503  501 -0.58354793893E+01 -0.38435673788E+02  0.39073572639E+02  0.55118943368E+02  0.00000000000E+00 0. -1.
          1    1    1    2  501    0  0.27660960166E+02 -0.14762566101E+02  0.12570279666E+02  0.33779786945E+02  0.00000000000E+00 0. -1.
<scales pt_clust_5="13000.00000" pt_clust_6="13000.00000" pt_clust_7="13000.00000" pt_clust_8="13000.00000" pt_clust_9="38.87613" pt_clust_10="13000.00000"></scales>
<clustering>
<clus scale="   38.876">  1  9  2 -1</clus>
<clus scale="   88.513">  5  6 -1 -1</clus>
<clus scale="   91.443">  7  8 -1 -1</clus>
<clus scale="   37.036">  7 10 -1 -1</clus>
<clus scale="   97.717">  2  5  1 -1</clus>
<clus scale="   38.876">  1  5  2 -1</clus>
</clustering>
</event>
<event>
10    2  0.4951045E-006  0.2549899E+03  0.7546771E-02  0.1142390E+00
         21   -1    0    0  503  502  0.00000000000E+00  0.00000000000E+00  0.15787313896E+03  0.15787313896E+03  0.00000000000E+00 0.  1.
          2   -1    0    0  502    0 -0.00000000000E+00 -0.00000000000E+00 -0.85283030185E+03  0.85283030185E+03  0.00000000000E+00 0. -1.
         23    2    1    2    0    0  0.48080716466E+02  0.26991494000E+02 -0.99900800667E+02  0.14801509952E+03  0.94276209440E+02 0.  0.
         23    2    1    2    0    0  0.44932993732E+02 -0.30740153112E+02 -0.14963490337E+03  0.18299910295E+03  0.90189447473E+02 0.  0.
        -11    1    3    3    0    0  0.39084830477E+02 -0.23318073091E+02 -0.13226767675E+02  0.47395188460E+02  0.00000000000E+00 0.  1.
         11    1    3    3    0    0  0.89958859895E+01  0.50309567091E+02 -0.86674032992E+02  0.10061991106E+03  0.00000000000E+00 0. -1.
        -13    1    4    4    0    0 -0.24197322698E+02  0.84439233506E+01 -0.31198261540E+02  0.40375014432E+02  0.00000000000E+00 0. -1.
         13    1    4    4    0    0  0.69130316430E+02 -0.39184076462E+02 -0.11843664183E+03  0.14262408852E+03  0.00000000000E+00 0.  1.
         21    1    1    2  503  501  0.24665530647E+02 -0.29110575472E+01  0.10955462267E+03  0.11233466966E+03  0.00000000000E+00 0.  1.
          2    1    1    2  501    0 -0.11767924085E+03  0.66597166589E+01 -0.55497608151E+03  0.56735456868E+03  0.00000000000E+00 0. -1.
<scales pt_clust_5="13000.00000" pt_clust_6="13000.00000" pt_clust_7="13000.00000" pt_clust_8="13000.00000" pt_clust_9="24.83672" pt_clust_10="13000.00000"></scales>
<clustering>
<clus scale="   24.837">  1  9  2 -1</clus>
<clus scale="   90.189">  7  8 -1 -1</clus>
<clus scale="   94.276">  5  6 -1 -1</clus>
<clus scale="  114.598">  7 10 -1 -1</clus>
<clus scale="  115.003">  2  5  1 -1</clus>
<clus scale="   24.837">  1  5  2 -1</clus>
</clustering>
</event>
<event>
10    2  0.4951045E-006  0.2439202E+03  0.7546771E-02  0.1153099E+00
         21   -1    0    0  503  502  0.00000000000E+00  0.00000000000E+00  0.28326985778E+03  0.28326985778E+03  0.00000000000E+00 0. -1.
         -2   -1    0    0    0  501 -0.00000000000E+00 -0.00000000000E+00 -0.48395418684E+03  0.48395418684E+03  0.00000000000E+00 0.  1.
         23    2    1    2    0    0  0.55860820279E+02  0.40246397408E+02 -0.10063145918E+03  0.15122144471E+03  0.89448482469E+02 0.  0.
         23    2    1    2    0    0  0.24680025618E+02 -0.73179459711E+02 -0.21639114989E+03  0.24567728505E+03  0.86993457527E+02 0.  0.
        -11    1    4    4    0    0  0.51647261176E+02 -0.18378255056E+02 -0.11294932666E+03  0.12554979187E+03  0.00000000000E+00 0. -1.
         11    1    4    4    0    0 -0.26967235557E+02 -0.54801204655E+02 -0.10344182323E+03  0.12012749318E+03  0.00000000000E+00 0.  1.
        -11    1    3    3    0    0  0.78016639455E+02  0.23245079800E+02 -0.89959922543E+02  0.12132484259E+03  0.00000000000E+00 0. -1.
         11    1    3    3    0    0 -0.22155819175E+02  0.17001317608E+02 -0.10671536641E+02  0.29896602115E+02  0.00000000000E+00 0.  1.
         21    1    1    2  503  501 -0.25196597537E+02 -0.67378714915E+02  0.21023206559E+03  0.22219874247E+03  0.00000000000E+00 0. -1.
         -2    1    1    2    0  502 -0.55344248360E+02  0.10031177722E+03 -0.93893785580E+02  0.14812657238E+03  0.00000000000E+00 0.  1.
<scales pt_clust_5="13000.00000" pt_clust_6="13000.00000" pt_clust_7="13000.00000" pt_clust_8="13000.00000" pt_clust_9="71.93580" pt_clust_10="13000.00000"></scales>
<clustering>
<clus scale="   71.936">  1  9  2 -1</clus>
<clus scale="   86.993">  5  6 -1 -1</clus>
<clus scale="   89.448">  7  8 -1 -1</clus>
<clus scale="   98.148">  5 10 -1 -1</clus>
<clus scale="  101.832">  2  7  1 -1</clus>
<clus scale="   71.936">  1  5  2 -1</clus>
</clustering>
</event>
<event>
10    2  0.4951045E-006  0.2624089E+03  0.7546771E-02  0.1149977E+00
          1   -1    0    0  502    0 -0.00000000000E+00  0.00000000000E+00  0.12364848397E+04  0.12364848397E+04  0.00000000000E+00 0. -1.
         21   -1    0    0  503  502  0.00000000000E+00 -0.00000000000E+00 -0.39219562999E+02  0.39219562999E+02  0.00000000000E+00 0. -1.
         23    2    1    2    0    0  0.14049004572E+02 -0.30075246045E+02  0.10716026303E+03  0.13605512786E+03  0.76979093848E+02 0.  0.
         23    2    1    2    0    0 -0.37386940483E+02 -0.73949242995E+02  0.71963244170E+03  0.73005974449E+03  0.90830091479E+02 0.  0.
        -11    1    3    3    0    0  0.34349944661E+02 -0.37330849739E+02  0.37362311061E+02  0.63003597741E+02  0.00000000000E+00 0. -1.
         11    1    3    3    0    0 -0.20300940089E+02  0.72556036941E+01  0.69797951966E+02  0.73051530115E+02  0.00000000000E+00 0.  1.
        -11    1    4    4    0    0 -0.61656557838E+02 -0.21751207986E+02  0.38547972617E+03  0.39098499391E+03  0.00000000000E+00 0.  1.
         11    1    4    4    0    0  0.24269617355E+02 -0.52198035009E+02  0.33415271552E+03  0.33907475057E+03  0.00000000000E+00 0. -1.
         21    1    1    2  503  501  0.19168224432E+01 -0.20893961547E+02  0.34038636462E+01  0.21256013858E+02  0.00000000000E+00 0. -1.
          1    1    1    2  501    0  0.21421113468E+02  0.12491845059E+03  0.36706870829E+03  0.38833351646E+03  0.00000000000E+00 0. -1.
<scales pt_clust_5="13000.00000" pt_clust_6="13000.00000" pt_clust_7="13000.00000" pt_clust_8="13000.00000" pt_clust_9="20.98170" pt_clust_10="13000.00000"></scales>
<clustering>
<clus scale="   20.982">  2  9  1 -1</clus>
<clus scale="   76.979">  5  6 -1 -1</clus>
<clus scale="   88.050">  1  5  2 -1</clus>
<clus scale="   90.830">  7  8 -1 -1</clus>
<clus scale="  108.456">  7 10 -1 -1</clus>
<clus scale="   20.982">  2  5  1 -1</clus>
</clustering>
</event>
<event>
10    2  0.4951045E-006  0.1583948E+03  0.7546771E-02  0.1205816E+00
         21   -1    0    0  501  502  0.00000000000E+00  0.00000000000E+00  0.18587862641E+03  0.18587862641E+03  0.00000000000E+00 0.  1.
          2   -1    0    0  503    0 -0.00000000000E+00 -0.00000000000E+00 -0.66932864096E+03  0.66932864096E+03  0.00000000000E+00 0. -1.
         23    2    1    2    0    0 -0.74963654212E+02 -0.26760450985E+02 -0.32909597529E+03  0.35072643616E+03  0.91483336626E+02 0.  0.
         23    2    1    2    0    0  0.44592057369E+02  0.66074811280E+02 -0.27878773552E+03  0.30411229310E+03  0.91691619414E+02 0.  0.
        -11    1    4    4    0    0  0.31960598161E+02 -0.17777666529E+02 -0.90500045175E+02  0.97610365427E+02  0.00000000000E+00 0.  1.
         11    1    4    4    0    0  0.12631459208E+02  0.83852477809E+02 -0.18828769035E+03  0.20650192767E+03  0.00000000000E+00 0. -1.
        -13    1    3    3    0    0 -0.52053565185E+02  0.23766944113E+02 -0.23146623904E+03  0.23843460550E+03  0.00000000000E+00 0.  1.
         13    1    3    3    0    0 -0.22910089027E+02 -0.50527395098E+02 -0.97629736249E+02  0.11229183067E+03  0.00000000000E+00 0. -1.
         21    1    1    2  503  502  0.58774748487E+02 -0.37224175249E+02  0.14791332108E+03  0.16345782586E+03  0.00000000000E+00 0.  1.
          2    1    1    2  501    0 -0.28403151644E+02 -0.20901850456E+01 -0.23479624815E+02  0.36910712243E+02  0.00000000000E+00 0. -1.
<scales pt_clust_5="13000.00000" pt_clust_6="13000.00000" pt_clust_7="13000.00000" pt_clust_8="13000.00000" pt_clust_9="69.57090" pt_clust_10="13000.00000"></scales>
<clustering>
<clus scale="   69.571">  1  9  2 -1</clus>
<clus scale="   91.483">  7  8 -1 -1</clus>
<clus scale="   91.692">  5  6 -1 -1</clus>
<clus scale="   18.508">  5 10 -1 -1</clus>
<clus scale="  113.504">  2  7  1 -1</clus>
<clus scale="   69.571">  1  5  2 -1</clus>
</clustering>
</event>
<event>
10    2  0.4951045E-006  0.5567686E+03  0.7546771E-02  0.1030838E+00
          2   -1    0    0  503    0 -0.00000000000E+00  0.00000000000E+00  0.93839680749E+03  0.93839680749E+03  0.00000000000E+00 0. -1.
         21   -1    0    0  501  502  0.00000000000E+00 -0.00000000000E+00 -0.27641525756E+03  0.27641525756E+03  0.00000000000E+00 0.  1.
         23    2    1    2    0    0  0.61521526996E+01 -0.19757829188E+03  0.58944130220E+03  0.62856952637E+03  0.92647559761E+02 0.  0.
         23    2    1    2    0    0  0.60898854909E+02  0.34789386105E+03  0.24177382696E+02  0.36535593696E+03  0.90341605887E+02 0.  0.
        -11    1    4    4    0    0  0.15942684367E+02  0.22293126883E+03  0.52459277291E+02  0.22957459699E+03  0.00000000000E+00 0. -1.
         11    1    4    4    0    0  0.44956170542E+02  0.12496259222E+03 -0.28281894595E+02  0.13578133997E+03  0.00000000000E+00 0.  1.
        -13    1    3    3    0    0  0.23161832558E+01 -0.17105907117E+03  0.57090973851E+03  0.59599035232E+03  0.00000000000E+00 0. -1.
         13    1    3    3    0    0  0.38359694437E+01 -0.26519220712E+02  0.18531563697E+02  0.32579174050E+02  0.00000000000E+00 0.  1.
         21    1    1    2  503  502 -0.18641633939E+02  0.24729828197E+02 -0.54960885543E+01  0.31452852143E+02  0.00000000000E+00 0. -1.
          2    1    1    2  501    0 -0.48409373669E+02 -0.17504539737E+03  0.53858953582E+02  0.18943374958E+03  0.00000000000E+00 0. -1.
<scales pt_clust_5="13000.00000" pt_clust_6="13000.00000" pt_clust_7="13000.00000" pt_clust_8="13000.00000" pt_clust_9="30.96893" pt_clust_10="13000.00000"></scales>
<clustering>
<clus scale="   30.969">  2  9  1 -1</clus>
<clus scale="   90.342">  5  6 -1 -1</clus>
<clus scale="   92.648">  7  8 -1 -1</clus>
<clus scale="  176.776">  5 10 -1 -1</clus>
<clus scale="  216.577">  1  7  2 -1</clus>
<clus scale="   30.969">  2  5  1 -1</clus>
</clustering>
</event>
<event>
10    2  0.4951045E-006  0.3234167E+03  0.7546771E-02  0.1123194E+00
          2   -1    0    0  502    0 -0.00000000000E+00  0.00000000000E+00  0.27144998382E+03  0.27144998382E+03  0.00000000000E+00 0. -1.
         21   -1    0    0  503  502  0.00000000000E+00 -0.00000000000E+00 -0.14622665519E+04  0.14622665519E+04  0.00000000000E+00 0. -1.
         23    2    1    2    0    0  0.29832812465E+01  0.86301987050E+00  0.19584655025E+03  0.21557695747E+03  0.90043925834E+02 0.  0.
         23    2    1    2    0    0 -0.99125082830E+02 -0.22145982150E+02 -0.17354193809E+03  0.22066413703E+03  0.90882509441E+02 0.  0.
        -11    1    4    4    0    0 -0.99322428294E+02 -0.44028775213E+02 -0.16415749300E+03  0.19685314404E+03  0.00000000000E+00 0. -1.
         11    1    4    4    0    0  0.19734546452E+00  0.21882793062E+02 -0.93844450858E+01  0.23810992987E+02  0.00000000000E+00 0.  1.
        -11    1    3    3    0    0 -0.37239505981E+02 -0.21482955391E+02  0.77954479746E+02  0.89023587271E+02  0.00000000000E+00 0.  1.
         11    1    3    3    0    0  0.40222787227E+02  0.22345975261E+02  0.11789207050E+03  0.12655337020E+03  0.00000000000E+00 0. -1.
         21    1    1    2  503  501 -0.57675169698E+02  0.12590967575E+03 -0.10198917995E+04  0.10292516477E+04  0.00000000000E+00 0. -1.
          2    1    1    2  501    0  0.15381697128E+03 -0.10462671347E+03 -0.19322938082E+03  0.26822379357E+03  0.00000000000E+00 0. -1.
<scales pt_clust_5="13000.00000" pt_clust_6="13000.00000" pt_clust_7="13000.00000" pt_clust_8="13000.00000" pt_clust_9="138.45827" pt_clust_10="13000.00000"></scales>
<clustering>
<clus scale="   90.044">  7  8 -1 -1</clus>
<clus scale="   90.097">  1  7  2 -1</clus>
<clus scale="   90.883">  5  6 -1 -1</clus>
<clus scale="  138.458">  2  9  1 -1</clus>
<clus scale="  129.424">  5 10 -1 -1</clus>
<clus scale="  138.458">  2  5  1 -1</clus>
</clustering>
</event>
<event>
10    2  0.4951045E-006  0.1811619E+03  0.7546771E-02  0.1173638E+00
         21   -1    0    0  501  502  0.00000000000E+00  0.00000000000E+00  0.14061451203E+03  0.14061451203E+03  0.00000000000E+00 0. -1.
         -1   -1    0    0    0  501 -0.00000000000E+00 -0.00000000000E+00 -0.31776675527E+03  0.31776675527E+03  0.00000000000E+00 0.  1.
         23    2    1    2    0    0 -0.10049521952E+03 -0.20456282516E+02 -0.13910391389E+03  0.21353524636E+03  0.12541791713E+03 0.  0.
         23    2    1    2    0    0  0.57328417382E+02 -0.16174836548E+02 -0.15752829718E+02  0.10993080733E+03  0.91040968691E+02 0.  0.
        -11    1    4    4    0    0  0.49654320672E+02  0.16535505172E+02 -0.42153830685E+02  0.67200594745E+02  0.00000000000E+00 0.  1.
         11    1    4    4    0    0  0.76740967095E+01 -0.32710341721E+02  0.26401000967E+02  0.42730212588E+02  0.00000000000E+00 0. -1.
        -13    1    3    3    0    0 -0.17180803347E+02 -0.64996163296E+02 -0.64377702926E+02  0.93081522769E+02  0.00000000000E+00 0.  1.
         13    1    3    3    0    0 -0.83314416174E+02  0.44539880780E+02 -0.74726210961E+02  0.12045372359E+03  0.00000000000E+00 0. -1.
         21    1    1    2  503  502  0.35170775803E+02 -0.13595759615E+02  0.39682611548E+02  0.54740641295E+02  0.00000000000E+00 0. -1.
         -1    1    1    2    0  503  0.79960263361E+01  0.50226878679E+02 -0.61978111181E+02  0.80174572307E+02  0.00000000000E+00 0.  1.
<scales pt_clust_5="13000.00000" pt_clust_6="13000.00000" pt_clust_7="13000.00000" pt_clust_8="13000.00000" pt_clust_9="37.70714" pt_clust_10="13000.00000"></scales>
<clustering>
<clus scale="   37.707">  1  9  2 -1</clus>
<clus scale="   91.041">  5  6 -1 -1</clus>
<clus scale="   50.219">  5 10 -1 -1</clus>
<clus scale="  125.418">  7  8 -1 -1</clus>
<clus scale="  154.526">  2  7  1 -1</clus>
<clus scale="   37.707">  1  5  2 -1</clus>
</clustering>
</event>
<event>
10    2  0.4951045E-006  0.1406864E+03  0.7546771E-02  0.1231989E+00
         -3   -1    0    0    0  501 -0.00000000000E+00  0.00000000000E+00  0.13301732984E+03  0.13301732984E+03  0.00000000000E+00 0.  1.
         21   -1    0    0  501  502  0.00000000000E+00 -0.00000000000E+00 -0.32668052552E+03  0.32668052552E+03  0.00000000000E+00 0. -1.
         23    2    1    2    0    0 -0.19452590975E+01 -0.11713843585E+02  0.73570347860E+02  0.11911036753E+03  0.92917626989E+02 0.  0.
         23    2    1    2    0    0  0.93730674673E+00  0.28192946013E+02 -0.81393820985E+02  0.13047095976E+03  0.97989777520E+02 0.  0.
        -13    1    4    4    0    0 -0.31400651537E+02 -0.22268482143E+02 -0.15779061138E+02  0.41603665515E+02  0.00000000000E+00 0.  1.
         13    1    4    4    0    0  0.32337958283E+02  0.50461428156E+02 -0.65614759847E+02  0.88867294250E+02  0.00000000000E+00 0. -1.
        -13    1    3    3    0    0 -0.34072689009E+02 -0.14074147888E+01  0.77953942336E+02  0.85086697423E+02  0.00000000000E+00 0.  1.
         13    1    3    3    0    0  0.32127429912E+02 -0.10306428796E+02 -0.43835944756E+01  0.34023670111E+02  0.00000000000E+00 0. -1.
         21    1    1    2  503  502 -0.10500915906E+02  0.20439139715E+02 -0.16420582091E+03  0.16580584817E+03  0.00000000000E+00 0. -1.
         -3    1    1    2    0  503  0.11508868257E+02 -0.36918242142E+02 -0.21633901645E+02  0.44310679885E+02  0.00000000000E+00 0.  1.
<scales pt_clust_5="13000.00000" pt_clust_6="13000.00000" pt_clust_7="13000.00000" pt_clust_8="13000.00000" pt_clust_9="22.97885" pt_clust_10="13000.00000"></scales>
<clustering>
<clus scale="   22.979">  2  9  1 -1</clus>
<clus scale="   92.918">  7  8 -1 -1</clus>
<clus scale="   93.400">  1  7  2 -1</clus>
<clus scale="   97.990">  5  6 -1 -1</clus>
<clus scale="   35.961">  5 10 -1 -1</clus>
<clus scale="   22.979">  2  5  1 -1</clus>
</clustering>
</event>
<event>
10    2  0.4951045E-006  0.3615996E+03  0.7546771E-02  0.1061261E+00
         -2   -1    0    0    0  501 -0.00000000000E+00  0.00000000000E+00  0.27477382372E+03  0.27477382372E+03  0.00000000000E+00 0.  1.
         21   -1    0    0  503  502  0.00000000000E+00 -0.00000000000E+00 -0.66739687507E+03  0.66739687507E+03  0.00000000000E+00 0.  1.
         23    2    1    2    0    0  0.10977843504E+03 -0.29330166179E+03  0.57436946754E+02  0.33174162638E+03  0.93146842211E+02 0.  0.
         23    2    1    2    0    0 -0.65702001842E+02  0.69731485876E+02 -0.14480867007E+03  0.19565041319E+03  0.90168176665E+02 0.  0.
        -11    1    4    4    0    0  0.71464406969E+01  0.22631759912E+02  0.33453408897E+01  0.23967884283E+02  0.00000000000E+00 0. -1.
         11    1    4    4    0    0 -0.72848442539E+02  0.47099725964E+02 -0.14815401096E+03  0.17168252890E+03  0.00000000000E+00 0.  1.
        -11    1    3    3    0    0  0.69578143002E+02 -0.76549428607E+02 -0.18430375999E+01  0.10346173105E+03  0.00000000000E+00 0.  1.
         11    1    3    3    0    0  0.40200292041E+02 -0.21675223318E+03  0.59279984354E+02  0.22827989533E+03  0.00000000000E+00 0. -1.
         21    1    1    2  503  501  0.22742460383E+02 -0.46644421049E+01 -0.93547827788E+02  0.96385541490E+02  0.00000000000E+00 0.  1.
         -2    1    1    2    0  502 -0.66818893584E+02  0.22823461802E+03 -0.21170350025E+03  0.31839311773E+03  0.00000000000E+00 0.  1.
<scales pt_clust_5="13000.00000" pt_clust_6="13000.00000" pt_clust_7="13000.00000" pt_clust_8="13000.00000" pt_clust_9="23.21587" pt_clust_10="13000.00000"></scales>
<clustering>
<clus scale="   23.216">  2  9  1 -1</clus>
<clus scale="   90.168">  5  6 -1 -1</clus>
<clus scale="   93.147">  7  8 -1 -1</clus>
<clus scale="  232.977">  5 10 -1 -1</clus>
<clus scale="  329.600">  1  7  2 -1</clus>
<clus scale="   23.216">  2  5  1 -1</clus>
</clustering>
</event>
<event>
10    2  0.4951045E-006  0.1558263E+03  0.7546771E-02  0.1193818E+00
          1   -1    0    0  502    0 -0.00000000000E+00  0.00000000000E+00  0.27753405531E+03  0.27753405531E+03  0.00000000000E+00 0. -1.
         21   -1    0    0  503  502  0.00000000000E+00 -0.00000000000E+00 -0.50565799605E+03  0.50565799605E+03  0.00000000000E+00 0.  1.
         23    2    1    2    0    0 -0.71554449617E+02  0.43963340734E+02 -0.14223180445E+02  0.12701534339E+03  0.94221993213E+02 0.  0.
         23    2    1    2    0    0  0.11010929694E+03 -0.24910305489E+02  0.13011484450E+03  0.18908320632E+03  0.77961564628E+02 0.  0.
        -11    1    3    3    0    0 -0.59112404585E+02 -0.51956457747E+01  0.23489169888E+02  0.63820155224E+02  0.00000000000E+00 0. -1.
         11    1    3    3    0    0 -0.12442045032E+02  0.49158986509E+02 -0.37712350333E+02  0.63195188162E+02  0.00000000000E+00 0.  1.
        -13    1    4    4    0    0  0.80331512989E+02  0.20117781251E+02  0.85735575711E+02  0.11919927032E+03  0.00000000000E+00 0.  1.
         13    1    4    4    0    0  0.29777783952E+02 -0.45028086740E+02  0.44379268789E+02  0.69883936000E+02  0.00000000000E+00 0. -1.
         21    1    1    2  503  501 -0.70848774706E+02 -0.14743073228E+02 -0.39773585450E+03  0.40426565157E+03  0.00000000000E+00 0.  1.
          1    1    1    2  501    0  0.32293927381E+02 -0.43099620173E+01  0.53720249707E+02  0.62827850089E+02  0.00000000000E+00 0. -1.
<scales pt_clust_5="13000.00000" pt_clust_6="13000.00000" pt_clust_7="13000.00000" pt_clust_8="13000.00000" pt_clust_9="72.36648" pt_clust_10="13000.00000"></scales>
<clustering>
<clus scale="   72.366">  2  9  1 -1</clus>
<clus scale="   77.962">  7  8 -1 -1</clus>
<clus scale="   29.628">  7 10 -1 -1</clus>
<clus scale="   94.222">  5  6 -1 -1</clus>
<clus scale="  154.711">  2  7  1 -1</clus>
<clus scale="   72.366">  2  5  1 -1</clus>
</clustering>
</event>
<event>
10    2  0.4951045E-006  0.2482744E+03  0.7546771E-02  0.1152456E+00
          1   -1    0    0  503    0 -0.00000000000E+00  0.00000000000E+00  0.48887598225E+03  0.48887598225E+03  0.00000000000E+00 0. -1.
         21   -1    0    0  501  502  0.00000000000E+00 -0.00000000000E+00 -0.11423786027E+03  0.11423786027E+03  0.00000000000E+00 0. -1.
         23    2    1    2    0    0  0.33451629747E+01 -0.76969603354E+01 -0.26089412298E+02  0.95376609003E+02  0.91354292713E+02 0.  0.
         23    2    1    2    0    0  0.52141338080E+02 -0.55610369388E+02  0.23343644117E+03  0.26160063205E+03  0.90172536302E+02 0.  0.
        -13    1    4    4    0    0  0.33957277699E+02 -0.76275097466E+02  0.12950739890E+03  0.15408813573E+03  0.00000000000E+00 0. -1.
         13    1    4    4    0    0  0.18184060381E+02  0.20664728078E+02  0.10392904227E+03  0.10751249633E+03  0.00000000000E+00 0.  1.
        -13    1    3    3    0    0 -0.10547810815E+02  0.30883526607E+02  0.16231254134E+02  0.36448623286E+02  0.00000000000E+00 0.  1.
         13    1    3    3    0    0  0.13892973790E+02 -0.38580486943E+02 -0.42320666431E+02  0.58927985717E+02  0.00000000000E+00 0. -1.
         21    1    1    2  503  502  0.23836673842E+02 -0.36961381607E+02  0.13215690411E+02  0.45923689129E+02  0.00000000000E+00 0. -1.
          1    1    1    2  501    0 -0.79323174897E+02  0.10026871133E+03  0.15407540269E+03  0.20021291233E+03  0.00000000000E+00 0. -1.
<scales pt_clust_5="13000.00000" pt_clust_6="13000.00000" pt_clust_7="13000.00000" pt_clust_8="13000.00000" pt_clust_9="43.98103" pt_clust_10="13000.00000"></scales>
<clustering>
<clus scale="   43.981">  2  9  1 -1</clus>
<clus scale="   90.173">  5  6 -1 -1</clus>
<clus scale="   91.354">  7  8 -1 -1</clus>
<clus scale="   98.044">  1  7  2 -1</clus>
<clus scale="  104.683">  5 10 -1 -1</clus>
<clus scale="   43.981">  2  5  1 -1</clus>
</clustering>
</event>
<event>
10    2  0.4951045E-006  0.1685073E+03  0.7546771E-02  0.1196140E+00
          1   -1    0    0  503    0 -0.00000000000E+00  0.00000000000E+00  0.11188976979E+03  0.11188976979E+03  0.00000000000E+00 0. -1.
         21   -1    0    0  501  502  0.00000000000E+00 -0.00000000000E+00 -0.25202655555E+03  0.25202655555E+03  0.00000000000E+00 0.  1.
         23    2    1    2    0    0  0.20382198962E+02  0.73452780137E+02  0.89840407878E+01  0.11766597643E+03  0.89184214272E+02 0.  0.
         23    2    1    2    0    0  0.33795595177E+01 -0.14662001776E+01 -0.45199163789E+02  0.10499245254E+03  0.94693608638E+02 0.  0.
        -11    1    4    4    0    0 -0.74637020523E-01 -0.31026723677E+02 -0.63062187165E+02  0.70281595051E+02  0.00000000000E+00 0.  1.
         11    1    4    4    0    0  0.34541965382E+01  0.29560523499E+02  0.17863023376E+02  0.34710857486E+02  0.00000000000E+00 0. -1.
        -11    1    3    3    0    0 -0.12095161417E+02  0.73401644487E+02 -0.16720379647E+02  0.76247396274E+02  0.00000000000E+00 0. -1.
         11    1    3    3    0    0  0.32477360378E+02  0.51135650181E-01  0.25704420435E+02  0.41418580153E+02  0.00000000000E+00 0.  1.
         21    1    1    2  503  502 -0.20541698480E+02 -0.13500068163E+01 -0.43982018074E+02  0.48561320088E+02  0.00000000000E+00 0. -1.
          1    1    1    2  501    0 -0.32200599995E+01 -0.70636573143E+02 -0.59939644676E+02  0.92696576289E+02  0.00000000000E+00 0. -1.
<scales pt_clust_5="13000.00000" pt_clust_6="13000.00000" pt_clust_7="13000.00000" pt_clust_8="13000.00000" pt_clust_9="20.58601" pt_clust_10="13000.00000"></scales>
<clustering>
<clus scale="   20.586">  2  9  1 -1</clus>
<clus scale="   89.184">  7  8 -1 -1</clus>
<clus scale="   94.694">  5  6 -1 -1</clus>
<clus scale="   71.958">  5 10 -1 -1</clus>
<clus scale="  116.278">  1  7  2 -1</clus>
<clus scale="   20.586">  2  5  1 -1</clus>
</clustering>
</event>
<event>
10    2  0.4951045E-006  0.2169699E+03  0.7546771E-02  0.1146314E+00
         21   -1    0    0  503  502  0.00000000000E+00  0.00000000000E+00  0.86376644957E+02  0.86376644957E+02  0.00000000000E+00 0. -1.
          1   -1    0    0  502    0 -0.00000000000E+00 -0.00000000000E+00 -0.56508301966E+03  0.56508301966E+03  0.00000000000E+00 0. -1.
         23    2    1    2    0    0  0.72639425842E+02  0.13498709981E+03 -0.30850937141E+03  0.35659894193E+03  0.92123665996E+02 0.  0.
         23    2    1    2    0    0 -0.51371602945E+02 -0.27847414321E+02 -0.12129326387E+03  0.16146480938E+03  0.89130851751E+02 0.  0.
        -11    1    4    4    0    0 -0.34305209347E+02  0.24045344801E+02 -0.20093578627E+02  0.46462650559E+02  0.00000000000E+00 0. -1.
         11    1    4    4    0    0 -0.17066393598E+02 -0.51892759122E+02 -0.10119968524E+03  0.11500215882E+03  0.00000000000E+00 0.  1.
        -13    1    3    3    0    0  0.53717273956E+02  0.11874819959E+03 -0.30466155357E+03  0.33136889210E+03  0.00000000000E+00 0. -1.
         13    1    3    3    0    0  0.18922151886E+02  0.16238900224E+02 -0.38478178400E+01  0.25230049833E+02  0.00000000000E+00 0.  1.
         21    1    1    2  503  501 -0.30362243610E+02 -0.21508757130E+02 -0.21771078294E+02  0.43110002556E+02  0.00000000000E+00 0.  1.
          1    1    1    2  501    0  0.90944207132E+01 -0.85630928361E+02 -0.27132661129E+02  0.90285910751E+02  0.00000000000E+00 0. -1.
<scales pt_clust_5="13000.00000" pt_clust_6="13000.00000" pt_clust_7="13000.00000" pt_clust_8="13000.00000" pt_clust_9="37.20877" pt_clust_10="13000.00000"></scales>
<clustering>
<clus scale="   37.209">  1  9  2 -1</clus>
<clus scale="   89.131">  5  6 -1 -1</clus>
<clus scale="   92.124">  7  8 -1 -1</clus>
<clus scale="   94.669">  5 10 -1 -1</clus>
<clus scale="  169.939">  2  7  1 -1</clus>
<clus scale="   37.209">  1  5  2 -1</clus>
</clustering>
</event>
<event>
10    2  0.4951045E-006  0.2317657E+03  0.7546771E-02  0.1141335E+00
         21   -1    0    0  501  502  0.00000000000E+00  0.00000000000E+00  0.31243925687E+03  0.31243925687E+03  0.00000000000E+00 0.  1.
          2   -1    0    0  503    0 -0.00000000000E+00 -0.00000000000E+00 -0.34856019849E+03  0.34856019849E+03  0.00000000000E+00 0. -1.
         23    2    1    2    0    0  0.18409801543E+02  0.12993987964E+03 -0.26913123770E+03  0.31285191274E+03  0.90671953137E+02 0.  0.
         23    2    1    2    0    0 -0.44339688308E+02 -0.11219150253E+03  0.63649225113E+02  0.16411718592E+03  0.91270398584E+02 0.  0.
        -11    1    4    4    0    0 -0.27305691744E+02  0.85459420903E+01  0.18610648749E+02  0.34131952401E+02  0.00000000000E+00 0. -1.
         11    1    4    4    0    0 -0.17033996564E+02 -0.12073744462E+03  0.45038576364E+02  0.12998523352E+03  0.00000000000E+00 0.  1.
        -13    1    3    3    0    0 -0.36788950024E+02  0.59590959417E+02 -0.12254855996E+03  0.14114764906E+03  0.00000000000E+00 0.  1.
         13    1    3    3    0    0  0.55198751568E+02  0.70348920224E+02 -0.14658267775E+03  0.17170426368E+03  0.00000000000E+00 0. -1.
         21    1    1    2  503  502 -0.10038141351E+02 -0.31492992668E+02  0.68167644878E+02  0.75758832338E+02  0.00000000000E+00 0.  1.
          2    1    1    2  501    0  0.35968028116E+02  0.13744615555E+02  0.10119342609E+03  0.10827152436E+03  0.00000000000E+00 0. -1.
<scales pt_clust_5="13000.00000" pt_clust_6="13000.00000" pt_clust_7="13000.00000" pt_clust_8="13000.00000" pt_clust_9="33.05409" pt_clust_10="13000.00000"></scales>
<clustering>
<clus scale="   33.054">  1  9  2 -1</clus>
<clus scale="   90.672">  7  8 -1 -1</clus>
<clus scale="   91.270">  5  6 -1 -1</clus>
<clus scale="   31.596">  5 10 -1 -1</clus>
<clus scale="  157.086">  2  7  1 -1</clus>
<clus scale="   33.054">  1  5  2 -1</clus>
</clustering>
</event>
<event>
10    2  0.4951045E-006  0.2600159E+03  0.7546771E-02  0.1146090E+00
          2   -1    0    0  503    0 -0.00000000000E+00  0.00000000000E+00  0.20519432140E+03  0.20519432140E+03  0.00000000000E+00 0. -1.
         21   -1    0    0  501  502  0.00000000000E+00 -0.00000000000E+00 -0.37092576718E+03  0.37092576718E+03  0.00000000000E+00 0. -1.
         23    2    1    2    0    0 -0.13705681128E+02  0.43002323545E+02  0.62360467554E+02  0.11723054016E+03  0.88414512987E+02 0.  0.
         23    2    1    2    0    0 -0.15849819081E+02 -0.88264983225E+02  0.73909463700E+01  0.12746976312E+03  0.90288373520E+02 0.  0.
        -11    1    3    3    0    0 -0.15297020049E+02 -0.26029065592E+02  0.20240893979E+02  0.36348381904E+02  0.00000000000E+00 0. -1.
         11    1    3    3    0    0  0.15913389208E+01  0.69031389137E+02  0.42119573575E+02  0.80882158254E+02  0.00000000000E+00 0.  1.
        -13    1    4    4    0    0  0.16732217485E+02 -0.86499890913E+02 -0.12904050750E+02  0.89043319545E+02  0.00000000000E+00 0. -1.
         13    1    4    4    0    0 -0.32582036566E+02 -0.17650923123E+01  0.20294997120E+02  0.38426443574E+02  0.00000000000E+00 0.  1.
         21    1    1    2  503  502 -0.88981414207E+02  0.68650746132E+02 -0.11412785979E+03  0.16017423451E+03  0.00000000000E+00 0. -1.
          2    1    1    2  501    0  0.11853691442E+03 -0.23388086453E+02 -0.12135499991E+03  0.17124555080E+03  0.00000000000E+00 0. -1.
<scales pt_clust_5="13000.00000" pt_clust_6="13000.00000" pt_clust_7="13000.00000" pt_clust_8="13000.00000" pt_clust_9="119.90115" pt_clust_10="13000.00000"></scales>
<clustering>
<clus scale="   88.415">  5  6 -1 -1</clus>
<clus scale="   90.288">  7  8 -1 -1</clus>
<clus scale="   99.268">  1  5  2 -1</clus>
<clus scale="  116.430">  7 10 -1 -1</clus>
<clus scale="  119.901">  2  9  1 -1</clus>
<clus scale="  119.901">  2  5  1 -1</clus>
</clustering>
</event>
<event>
10    2  0.4951045E-006  0.1487417E+03  0.7546771E-02  0.1221996E+00
         21   -1    0    0  501  502  0.00000000000E+00  0.00000000000E+00  0.83131418098E+02  0.83131418098E+02  0.00000000000E+00 0. -1.
         -1   -1    0    0    0  501 -0.00000000000E+00 -0.00000000000E+00 -0.50185664907E+03  0.50185664907E+03  0.00000000000E+00 0.  1.
         23    2    1    2    0    0 -0.24181001161E+02 -0.37748688545E+02 -0.14888641373E+03  0.17985536629E+03  0.90394160686E+02 0.  0.
         23    2    1    2    0    0  0.25947289652E+01  0.45710659508E+02 -0.29189790717E+03  0.30531945953E+03  0.76937553529E+02 0.  0.
        -13    1    3    3    0    0  0.37779118054E+01 -0.62964389167E+02 -0.98252625300E+02  0.11675772051E+03  0.00000000000E+00 0.  1.
         13    1    3    3    0    0 -0.27958912966E+02  0.25215700621E+02 -0.50633788426E+02  0.63097645775E+02  0.00000000000E+00 0. -1.
        -13    1    4    4    0    0 -0.92402168046E+01 -0.18689737533E+02 -0.11087209120E+03  0.11281537353E+03  0.00000000000E+00 0.  1.
         13    1    4    4    0    0  0.11834945770E+02  0.64400397040E+02 -0.18102581597E+03  0.19250408600E+03  0.00000000000E+00 0. -1.
         21    1    1    2  503  502  0.54336997949E+00  0.22541079292E+02  0.49039424843E+02  0.53974630111E+02  0.00000000000E+00 0. -1.
         -1    1    1    2    0  503  0.21042902216E+02 -0.30503050255E+02 -0.26980334920E+02  0.45838611245E+02  0.00000000000E+00 0.  1.
<scales pt_clust_5="13000.00000" pt_clust_6="13000.00000" pt_clust_7="13000.00000" pt_clust_8="13000.00000" pt_clust_9="22.54763" pt_clust_10="13000.00000"></scales>
<clustering>
<clus scale="   22.548">  1  9  2 -1</clus>
<clus scale="   76.938">  7  8 -1 -1</clus>
<clus scale="   31.863">  7 10 -1 -1</clus>
<clus scale="   90.394">  5  6 -1 -1</clus>
<clus scale="   97.245">  2  5  1 -1</clus>
<clus scale="   22.548">  1  5  2 -1</clus>
</clustering>
</event>
<event>
10    2  0.4951045E-006  0.3531767E+03  0.7546771E-02  0.1108960E+00
         21   -1    0    0  503  502  0.00000000000E+00  0.00000000000E+00  0.10277859309E+04  0.10277859309E+04  0.00000000000E+00 0. -1.
          4   -1    0    0  502    0 -0.00000000000E+00 -0.00000000000E+00 -0.10538019660E+03  0.10538019660E+03  0.00000000000E+00 0. -1.
         23    2    1    2    0    0  0.48462809868E+02 -0.36266681922E+01  0.11972954324E+03  0.15537418978E+03  0.86279653819E+02 0.  0.
         23    2    1    2    0    0  0.59168763731E+01 -0.39742362680E+02  0.11313446463E+02  0.99442962401E+02  0.90257652766E+02 0.  0.
        -11    1    4    4    0    0  0.20834629567E+02  0.24666250035E+02 -0.44998705966E+00  0.32290992062E+02  0.00000000000E+00 0.  1.
         11    1    4    4    0    0 -0.14917753194E+02 -0.64408612715E+02  0.11763433523E+02  0.67151970339E+02  0.00000000000E+00 0. -1.
        -13    1    3    3    0    0 -0.14616877253E+02 -0.27850903888E+02  0.37819375139E+02  0.49189745719E+02  0.00000000000E+00 0.  1.
         13    1    3    3    0    0  0.63079687121E+02  0.24224235696E+02  0.81910168103E+02  0.10618444406E+03  0.00000000000E+00 0. -1.
         21    1    1    2  503  501  0.11226214864E+03 -0.10191256343E+03  0.41534801222E+03  0.44215713480E+03  0.00000000000E+00 0. -1.
          4    1    1    2  501    0 -0.16664183488E+03  0.14528159430E+03  0.37601473237E+03  0.43619184051E+03  0.00000000000E+00 0. -1.
<scales pt_clust_5="13000.00000" pt_clust_6="13000.00000" pt_clust_7="13000.00000" pt_clust_8="13000.00000" pt_clust_9="157.55414" pt_clust_10="13000.00000"></scales>
<clustering>
<clus scale="   86.280">  7  8 -1 -1</clus>
<clus scale="   90.258">  5  6 -1 -1</clus>
<clus scale="   99.025">  2  7  1 -1</clus>
<clus scale="  157.554">  1  9  2 -1</clus>
<clus scale="   96.546">  5 10 -1 -1</clus>
<clus scale="  157.554">  1  5  2 -1</clus>
</clustering>
</event>
<event>
10    2  0.4951045E-006  0.4074270E+03  0.7546771E-02  0.1065225E+00
          3   -1    0    0  503    0 -0.00000000000E+00  0.00000000000E+00  0.75720250531E+03  0.75720250531E+03  0.00000000000E+00 0. -1.
         21   -1    0    0  501  502  0.00000000000E+00 -0.00000000000E+00 -0.27998251038E+03  0.27998251038E+03  0.00000000000E+00 0. -1.
         23    2    1    2    0    0 -0.13719669951E+03 -0.13028110707E+03  0.50169766570E+03  0.54332869726E+03  0.87803327327E+02 0.  0.
         23    2    1    2    0    0  0.14379708851E+03  0.22708190596E+03  0.54915306094E+02  0.28931753863E+03  0.91897511580E+02 0.  0.
        -11    1    3    3    0    0 -0.20162326397E+02 -0.77280889460E+02  0.20502278869E+03  0.22002999606E+03  0.00000000000E+00 0.  1.
         11    1    3    3    0    0 -0.11703437312E+03 -0.53000217605E+02  0.29667487700E+03  0.32329870120E+03  0.00000000000E+00 0. -1.
        -13    1    4    4    0    0 -0.73543072913E+01  0.36459334864E+02  0.23561088184E+02  0.44028329640E+02  0.00000000000E+00 0.  1.
         13    1    4    4    0    0  0.15115139581E+03  0.19062257109E+03  0.31354217910E+02  0.24528920899E+03  0.00000000000E+00 0. -1.
         21    1    1    2  503  502  0.16910228267E+02  0.14752463089E+02 -0.87418394578E+02  0.90252793297E+02  0.00000000000E+00 0. -1.
          3    1    1    2  501    0 -0.23510617269E+02 -0.11155326198E+03  0.80254177162E+01  0.11428598651E+03  0.00000000000E+00 0. -1.
<scales pt_clust_5="13000.00000" pt_clust_6="13000.00000" pt_clust_7="13000.00000" pt_clust_8="13000.00000" pt_clust_9="22.44083" pt_clust_10="13000.00000"></scales>
<clustering>
<clus scale="   22.441">  2  9  1 -1</clus>
<clus scale="   87.803">  5  6 -1 -1</clus>
<clus scale="   91.898">  7  8 -1 -1</clus>
<clus scale="  109.087">  7 10 -1 -1</clus>
<clus scale="  206.368">  1  5  2 -1</clus>
<clus scale="   22.441">  2  5  1 -1</clus>
</clustering>
</event>
<event>
10    2  0.4951045E-006  0.1705944E+03  0.7546771E-02  0.1201628E+00
          1   -1    0    0  503    0 -0.00000000000E+00  0.00000000000E+00  0.31963414835E+03  0.31963414835E+03  0.00000000000E+00 0. -1.
         21   -1    0    0  501  502  0.00000000000E+00 -0.00000000000E+00 -0.25126480534E+03  0.25126480534E+03  0.00000000000E+00 0.  1.
         23    2    1    2    0    0 -0.48807072841E+02  0.31561034759E+02  0.58694080185E+02  0.12318105810E+03  0.91380242679E+02 0.  0.
         23    2    1    2    0    0  0.94317831178E+01  0.11408486981E+02  0.14635110163E+03  0.17237429380E+03  0.89861783352E+02 0.  0.
        -11    1    3    3    0    0 -0.51943876252E+02 -0.17529828698E+02  0.13681274386E+02  0.56503437445E+02  0.00000000000E+00 0.  1.
         11    1    3    3    0    0  0.31368034108E+01  0.49090863458E+02  0.45012805799E+02  0.66677620658E+02  0.00000000000E+00 0. -1.
        -13    1    4    4    0    0 -0.13274870624E+02 -0.29391732583E+02  0.20685623344E+02  0.38314372596E+02  0.00000000000E+00 0.  1.
         13    1    4    4    0    0  0.22706653742E+02  0.40800219564E+02  0.12566547829E+03  0.13405992121E+03  0.00000000000E+00 0. -1.
         21    1    1    2  503  502  0.84550363358E+02  0.14148077305E+02 -0.17366048673E+03  0.19366697366E+03  0.00000000000E+00 0.  1.
          1    1    1    2  501    0 -0.45175073635E+02 -0.57117599046E+02  0.36984647921E+02  0.81676628116E+02  0.00000000000E+00 0. -1.
<scales pt_clust_5="13000.00000" pt_clust_6="13000.00000" pt_clust_7="13000.00000" pt_clust_8="13000.00000" pt_clust_9="85.72591" pt_clust_10="13000.00000"></scales>
<clustering>
<clus scale="   85.726">  2  9  1 -1</clus>
<clus scale="   89.862">  7  8 -1 -1</clus>
<clus scale="   55.198">  7 10 -1 -1</clus>
<clus scale="   91.380">  5  6 -1 -1</clus>
<clus scale="   99.448">  1  5  2 -1</clus>
<clus scale="   85.726">  2  5  1 -1</clus>
</clustering>
</event>
<event>
10    2  0.4951045E-006  0.3845635E+03  0.7546771E-02  0.1065072E+00
         21   -1    0    0  503  502  0.00000000000E+00  0.00000000000E+00  0.19702686924E+03  0.19702686924E+03  0.00000000000E+00 0.  1.
          4   -1    0    0  502    0 -0.00000000000E+00 -0.00000000000E+00 -0.65074199334E+03  0.65074199334E+03  0.00000000000E+00 0. -1.
         23    2    1    2    0    0  0.18176606778E+03 -0.13102063373E+03 -0.26652595765E+03  0.35977288753E+03  0.90526982955E+02 0.  0.
         23    2    1    2    0    0  0.13238046863E+01 -0.23477286955E+02 -0.14962863809E+03  0.17765635841E+03  0.92844584586E+02 0.  0.
        -13    1    3    3    0    0  0.10592847542E+03 -0.20928665052E+02 -0.11961196166E+03  0.16113929471E+03  0.00000000000E+00 0.  1.
         13    1    3    3    0    0  0.75837592362E+02 -0.11009196868E+03 -0.14691399599E+03  0.19863359283E+03  0.00000000000E+00 0. -1.
        -13    1    4    4    0    0 -0.16278824218E+01  0.35710737408E+02 -0.45720427755E+02  0.58036749405E+02  0.00000000000E+00 0. -1.
         13    1    4    4    0    0  0.29516871081E+01 -0.59188024362E+02 -0.10390821033E+03  0.11961960901E+03  0.00000000000E+00 0.  1.
         21    1    1    2  503  501  0.40824195389E+02  0.26580517400E+02  0.50136393059E+01  0.48972190205E+02  0.00000000000E+00 0.  1.
          4    1    1    2  501    0 -0.22391406786E+03  0.12791740328E+03 -0.42574167674E+02  0.26136742643E+03  0.00000000000E+00 0. -1.
<scales pt_clust_5="13000.00000" pt_clust_6="13000.00000" pt_clust_7="13000.00000" pt_clust_8="13000.00000" pt_clust_9="48.71487" pt_clust_10="13000.00000"></scales>
<clustering>
<clus scale="   48.715">  1  9  2 -1</clus>
<clus scale="   90.527">  5  6 -1 -1</clus>
<clus scale="   92.845">  7  8 -1 -1</clus>
<clus scale="  245.144">  7 10 -1 -1</clus>
<clus scale="  246.452">  2  5  1 -1</clus>
<clus scale="   48.715">  1  5  2 -1</clus>
</clustering>
</event>
<event>
10    2  0.4951045E-006  0.2572107E+03  0.7546771E-02  0.1131578E+00
         21   -1    0    0  501  502  0.00000000000E+00  0.00000000000E+00  0.76686894888E+02  0.76686894888E+02  0.00000000000E+00 0.  1.
          1   -1    0    0  503    0 -0.00000000000E+00 -0.00000000000E+00 -0.78248022151E+03  0.78248022151E+03  0.00000000000E+00 0. -1.
         23    2    1    2    0    0  0.78749637769E+02 -0.54735642445E+02 -0.78841659321E+02  0.15733728402E+03  0.96651527131E+02 0.  0.
         23    2    1    2    0    0  0.91816682867E-01  0.98624761603E+02 -0.28661615642E+03  0.31716079526E+03  0.93355754485E+02 0.  0.
        -11    1    4    4    0    0 -0.33372712752E+02  0.28910509447E+02 -0.18071647261E+03  0.18603225254E+03  0.00000000000E+00 0. -1.
         11    1    4    4    0    0  0.33464529435E+02  0.69714252155E+02 -0.10589968381E+03  0.13112854272E+03  0.00000000000E+00 0.  1.
        -13    1    3    3    0    0  0.57564677004E+02 -0.24883514323E+02  0.78806812319E+01  0.63205905265E+02  0.00000000000E+00 0.  1.
         13    1    3    3    0    0  0.21184960765E+02 -0.29852128122E+02 -0.86722340552E+02  0.94131378758E+02  0.00000000000E+00 0. -1.
         21    1    1    2  503  502  0.32591639420E+02  0.12279809058E+02 -0.18391014961E+02  0.39385760141E+02  0.00000000000E+00 0.  1.
          1    1    1    2  501    0 -0.11143309387E+03 -0.56168928216E+02 -0.32194449592E+03  0.34528327698E+03  0.00000000000E+00 0. -1.
<scales pt_clust_5="13000.00000" pt_clust_6="13000.00000" pt_clust_7="13000.00000" pt_clust_8="13000.00000" pt_clust_9="34.82827" pt_clust_10="13000.00000"></scales>
<clustering>
<clus scale="   34.828">  1  9  2 -1</clus>
<clus scale="   93.356">  5  6 -1 -1</clus>
<clus scale="   96.652">  7  8 -1 -1</clus>
<clus scale="  118.685">  5 10 -1 -1</clus>
<clus scale="  145.644">  2  7  1 -1</clus>
<clus scale="   34.828">  1  5  2 -1</clus>
</clustering>
</event>
<event>
10    2  0.4951045E-006  0.2095033E+03  0.7546771E-02  0.1166391E+00
         21   -1    0    0  503  502  0.00000000000E+00  0.00000000000E+00  0.20430828587E+03  0.20430828587E+03  0.00000000000E+00 0. -1.
          3   -1    0    0  502    0 -0.00000000000E+00 -0.00000000000E+00 -0.41940304361E+03  0.41940304361E+03  0.00000000000E+00 0. -1.
         23    2    1    2    0    0 -0.68066465145E+02 -0.35604731669E+02 -0.33141323801E+03  0.35214218575E+03  0.90932084913E+02 0.  0.
         23    2    1    2    0    0 -0.40582604229E+01  0.79551500452E+02  0.68043753453E+02  0.14056845555E+03  0.93726344270E+02 0.  0.
        -11    1    4    4    0    0 -0.34126666637E+02 -0.36830839682E+01  0.22454253754E+02  0.41016923274E+02  0.00000000000E+00 0.  1.
         11    1    4    4    0    0  0.30068406214E+02  0.83234584420E+02  0.45589499699E+02  0.99551532276E+02  0.00000000000E+00 0. -1.
        -13    1    3    3    0    0 -0.49495212204E+02 -0.62273119084E+02 -0.17274745235E+03  0.19018254306E+03  0.00000000000E+00 0. -1.
         13    1    3    3    0    0 -0.18571252942E+02  0.26668387415E+02 -0.15866578566E+03  0.16195964269E+03  0.00000000000E+00 0.  1.
         21    1    1    2  503  501  0.23610902401E+02  0.77722786563E+01  0.54415067589E+02  0.59823762907E+02  0.00000000000E+00 0. -1.
          3    1    1    2  501    0  0.48513823167E+02 -0.51719047440E+02 -0.61403407671E+01  0.71176925271E+02  0.00000000000E+00 0. -1.
<scales pt_clust_5="13000.00000" pt_clust_6="13000.00000" pt_clust_7="13000.00000" pt_clust_8="13000.00000" pt_clust_9="24.85725" pt_clust_10="13000.00000"></scales>
<clustering>
<clus scale="   24.857">  1  9  2 -1</clus>
<clus scale="   90.932">  7  8 -1 -1</clus>
<clus scale="   93.726">  5  6 -1 -1</clus>
<clus scale="   73.397">  5 10 -1 -1</clus>
<clus scale="  117.929">  2  7  1 -1</clus>
<clus scale="   24.857">  1  5  2 -1</clus>
</clustering>
</event>
<event>
10    2  0.4951045E-006  0.2273939E+03  0.7546771E-02  0.1160527E+00
         21   -1    0    0  503  502  0.00000000000E+00  0.00000000000E+00  0.19416585017E+03  0.19416585017E+03  0.00000000000E+00 0. -1.
          3   -1    0    0  502    0 -0.00000000000E+00 -0.00000000000E+00 -0.22393141843E+03  0.22393141843E+03  0.00000000000E+00 0. -1.
         23    2    1    2    0    0 -0.19428787387E+01 -0.66001178184E+02  0.31039499486E+02  0.11906647481E+03  0.94092744650E+02 0.  0.
         23    2    1    2    0    0 -0.55466125578E+02  0.14808284612E+02 -0.14508648744E+03  0.17962994016E+03  0.89000281942E+02 0.  0.
        -11    1    3    3    0    0 -0.23736325965E+02  0.14880723347E+02  0.20337969390E+02  0.34619100170E+02  0.00000000000E+00 0. -1.
         11    1    3    3    0    0  0.21793447227E+02 -0.80881901531E+02  0.10701530097E+02  0.84447374640E+02  0.00000000000E+00 0.  1.
        -13    1    4    4    0    0 -0.57959079985E+02  0.42967801427E+02 -0.75061760232E+02  0.10411414295E+03  0.00000000000E+00 0.  1.
         13    1    4    4    0    0  0.24929544072E+01 -0.28159516816E+02 -0.70024727204E+02  0.75515797214E+02  0.00000000000E+00 0. -1.
         21    1    1    2  503  501  0.14339752795E+02  0.36213510633E+02  0.37309543419E+02  0.53935599494E+02  0.00000000000E+00 0. -1.
          3    1    1    2  501    0  0.43069251522E+02  0.14979382940E+02  0.46971876269E+02  0.65465254144E+02  0.00000000000E+00 0. -1.
<scales pt_clust_5="13000.00000" pt_clust_6="13000.00000" pt_clust_7="13000.00000" pt_clust_8="13000.00000" pt_clust_9="38.94929" pt_clust_10="13000.00000"></scales>
<clustering>
<clus scale="   38.949">  1  9  2 -1</clus>
<clus scale="   89.000">  7  8 -1 -1</clus>
<clus scale="   56.345">  7 10 -1 -1</clus>
<clus scale="   94.093">  5  6 -1 -1</clus>
<clus scale="  105.628">  2  5  1 -1</clus>
<clus scale="   38.949">  1  5  2 -1</clus>
</clustering>
</event>
<event>
10    2  0.4951045E-006  0.2592187E+03  0.7546771E-02  0.1136061E+00
         21   -1    0    0  503  502  0.00000000000E+00  0.00000000000E+00  0.41150277699E+03  0.41150277699E+03  0.00000000000E+00 0.  1.
          1   -1    0    0  502    0 -0.00000000000E+00 -0.00000000000E+00 -0.11266453345E+03  0.11266453345E+03  0.00000000000E+00 0. -1.
         23    2    1    2    0    0 -0.12549142103E+02 -0.93512282086E+02  0.83554277236E+02  0.15575932483E+03  0.91529351347E+02 0.  0.
         23    2    1    2    0    0 -0.74916212068E+02  0.59892361353E+02  0.52460247912E+01  0.13659002041E+03  0.97107049792E+02 0.  0.
        -11    1    4    4    0    0  0.11063648520E+02  0.38118639302E+02  0.23373438309E+02  0.46062485812E+02  0.00000000000E+00 0.  1.
         11    1    4    4    0    0 -0.85979860589E+02  0.21773722051E+02 -0.18127413518E+02  0.90527534594E+02  0.00000000000E+00 0. -1.
        -13    1    3    3    0    0 -0.21697464970E+02 -0.10097148625E+02 -0.13484568645E+02  0.27469364537E+02  0.00000000000E+00 0. -1.
         13    1    3    3    0    0  0.91483228673E+01 -0.83415133461E+02  0.97038845881E+02  0.12828996029E+03  0.00000000000E+00 0.  1.
         21    1    1    2  503  501  0.15632677158E+02  0.14024812262E+02  0.71733044185E+02  0.74744267888E+02  0.00000000000E+00 0. -1.
          1    1    1    2  501    0  0.71832677013E+02  0.19595108471E+02  0.13830489733E+03  0.15707369732E+03  0.00000000000E+00 0. -1.
<scales pt_clust_5="13000.00000" pt_clust_6="13000.00000" pt_clust_7="13000.00000" pt_clust_8="13000.00000" pt_clust_9="21.00181" pt_clust_10="13000.00000"></scales>
<clustering>
<clus scale="   21.002">  1  9  2 -1</clus>
<clus scale="   91.529">  7  8 -1 -1</clus>
<clus scale="   97.107">  5  6 -1 -1</clus>
<clus scale="   82.756">  5 10 -1 -1</clus>
<clus scale="  127.547">  2  7  1 -1</clus>
<clus scale="   21.002">  1  5  2 -1</clus>
</clustering>
</event>
<event>
10    2  0.4951045E-006  0.1636389E+03  0.7546771E-02  0.1204119E+00
          1   -1    0    0  503    0 -0.00000000000E+00  0.00000000000E+00  0.22135406322E+03  0.22135406322E+03  0.00000000000E+00 0. -1.
         21   -1    0    0  501  502  0.00000000000E+00 -0.00000000000E+00 -0.13385632104E+03  0.13385632104E+03  0.00000000000E+00 0.  1.
         23    2    1    2    0    0 -0.39425461513E+02  0.20013871718E+02  0.45583470105E+02  0.11042888811E+03  0.90342484503E+02 0.  0.
         23    2    1    2    0    0  0.72377751558E+02 -0.66520259091E+02  0.43814172757E+02  0.14118830235E+03  0.91383648408E+02 0.  0.
        -11    1    4    4    0    0  0.24016331631E+02  0.11177722025E+02 -0.16844216227E+02  0.31391930093E+02  0.00000000000E+00 0.  1.
         11    1    4    4    0    0  0.48361419927E+02 -0.77697981116E+02  0.60658388984E+02  0.10979637226E+03  0.00000000000E+00 0. -1.
        -13    1    3    3    0    0  0.29025024174E+02  0.70651655121E+01  0.65787103881E+01  0.30588364167E+02  0.00000000000E+00 0. -1.
         13    1    3    3    0    0 -0.68450485688E+02  0.12948706206E+02  0.39004759717E+02  0.79840523945E+02  0.00000000000E+00 0.  1.
         21    1    1    2  503  502 -0.29770925687E+02  0.16010224808E+02 -0.41490798294E+02  0.53517489270E+02  0.00000000000E+00 0.  1.
          1    1    1    2  501    0 -0.31813643571E+01  0.30496162566E+02  0.39590897611E+02  0.50075704529E+02  0.00000000000E+00 0. -1.
<scales pt_clust_5="13000.00000" pt_clust_6="13000.00000" pt_clust_7="13000.00000" pt_clust_8="13000.00000" pt_clust_9="33.80289" pt_clust_10="13000.00000"></scales>
<clustering>
<clus scale="   33.803">  2  9  1 -1</clus>
<clus scale="   90.342">  7  8 -1 -1</clus>
<clus scale="   91.384">  5  6 -1 -1</clus>
<clus scale="   31.861">  5 10 -1 -1</clus>
<clus scale="  106.770">  1  7  2 -1</clus>
<clus scale="   33.803">  2  5  1 -1</clus>
</clustering>
</event>
<event>
10    2  0.4951045E-006  0.1410212E+03  0.7546771E-02  0.1231602E+00
          1   -1    0    0  503    0 -0.00000000000E+00  0.00000000000E+00  0.34101714075E+03  0.34101714075E+03  0.00000000000E+00 0. -1.
         21   -1    0    0  501  502  0.00000000000E+00 -0.00000000000E+00 -0.53221969744E+02  0.53221969744E+02  0.00000000000E+00 0.  1.
         23    2    1    2    0    0  0.10248343401E+02  0.13930686524E+02  0.10458109628E+03  0.13888636908E+03  0.89739206858E+02 0.  0.
         23    2    1    2    0    0  0.22218079575E+01 -0.39094021770E+01  0.79496816444E+02  0.12282131906E+03  0.93515307484E+02 0.  0.
        -13    1    4    4    0    0 -0.12382828163E+02  0.23348017334E+02 -0.99040840205E+01  0.28223309994E+02  0.00000000000E+00 0.  1.
         13    1    4    4    0    0  0.14604636120E+02 -0.27257419510E+02  0.89400900465E+02  0.94598009062E+02  0.00000000000E+00 0. -1.
        -13    1    3    3    0    0  0.47749734673E+02  0.16938402098E+02  0.41740108039E+02  0.65644369492E+02  0.00000000000E+00 0.  1.
         13    1    3    3    0    0 -0.37501391272E+02 -0.30077155740E+01  0.62840988245E+02  0.73241999590E+02  0.00000000000E+00 0. -1.
         21    1    1    2  503  502  0.94064801809E+01  0.19912601336E+02 -0.38291643456E+00  0.22025898083E+02  0.00000000000E+00 0.  1.
          1    1    1    2  501    0 -0.21876631539E+02 -0.29933885683E+02  0.10410017471E+03  0.11050552427E+03  0.00000000000E+00 0. -1.
<scales pt_clust_5="13000.00000" pt_clust_6="13000.00000" pt_clust_7="13000.00000" pt_clust_8="13000.00000" pt_clust_9="22.02257" pt_clust_10="13000.00000"></scales>
<clustering>
<clus scale="   22.023">  2  9  1 -1</clus>
<clus scale="   89.739">  7  8 -1 -1</clus>
<clus scale="   93.479">  1  7  2 -1</clus>
<clus scale="   93.515">  5  6 -1 -1</clus>
<clus scale="   23.080">  5 10 -1 -1</clus>
<clus scale="   22.023">  2  5  1 -1</clus>
</clustering>
</event>
<event>
10    2  0.4951045E-006  0.2959810E+03  0.7546771E-02  0.1132004E+00
         21   -1    0    0  503  502  0.00000000000E+00  0.00000000000E+00  0.42149106817E+03  0.42149106817E+03  0.00000000000E+00 0. -1.
         -1   -1    0    0    0  501 -0.00000000000E+00 -0.00000000000E+00 -0.15911800194E+03  0.15911800194E+03  0.00000000000E+00 0.  1.
         23    2    1    2    0    0 -0.77467140443E+01  0.17436303456E+02  0.24565314553E+02  0.97725261921E+02  0.92643056306E+02 0.  0.
         23    2    1    2    0    0 -0.49019145845E+02  0.32503907151E+02 -0.77565714799E+02  0.13264628913E+03  0.90106699354E+02 0.  0.
        -11    1    4    4    0    0 -0.73259820363E+02  0.96988961086E+01 -0.58805270973E+02  0.94441144421E+02  0.00000000000E+00 0.  1.
         11    1    4    4    0    0  0.24240674518E+02  0.22805011043E+02 -0.18760443826E+02  0.38205144710E+02  0.00000000000E+00 0. -1.
        -11    1    3    3    0    0  0.20606964039E+02  0.35354044953E+02  0.43076898527E+02  0.59415272853E+02  0.00000000000E+00 0. -1.
         11    1    3    3    0    0 -0.28353678084E+02 -0.17917741497E+02 -0.18511583974E+02  0.38309989069E+02  0.00000000000E+00 0.  1.
         21    1    1    2  503  501  0.91597007146E+02 -0.39733365699E+02  0.14506253252E+03  0.17610193187E+03  0.00000000000E+00 0.  1.
         -1    1    1    2    0  502 -0.34831147257E+02 -0.10206844908E+02  0.17031093395E+03  0.17413558719E+03  0.00000000000E+00 0.  1.
<scales pt_clust_5="13000.00000" pt_clust_6="13000.00000" pt_clust_7="13000.00000" pt_clust_8="13000.00000" pt_clust_9="98.07835" pt_clust_10="13000.00000"></scales>
<clustering>
<clus scale="   90.107">  5  6 -1 -1</clus>
<clus scale="   36.296">  5 10 -1 -1</clus>
<clus scale="   92.643">  7  8 -1 -1</clus>
<clus scale="   94.587">  2  7  1 -1</clus>
<clus scale="   98.078">  1  9  2 -1</clus>
<clus scale="   98.078">  1  5  2 -1</clus>
</clustering>
</event>
<event>
10    2  0.4951045E-006  0.5709675E+03  0.7546771E-02  0.1034772E+00
         21   -1    0    0  503  502  0.00000000000E+00  0.00000000000E+00  0.25328966473E+03  0.25328966473E+03  0.00000000000E+00 0. -1.
         -1   -1    0    0    0  501 -0.00000000000E+00 -0.00000000000E+00 -0.86348363324E+03  0.86348363324E+03  0.00000000000E+00 0.  1.
         23    2    1    2    0    0 -0.12619581384E+03  0.45544077912E+02 -0.36944349141E+03  0.41040901002E+03  0.11809917739E+03 0.  0.
         23    2    1    2    0    0 -0.98887880699E+02  0.87589872631E+02  0.95497219264E+02  0.17589637059E+03  0.66098529202E+02 0.  0.
        -11    1    3    3    0    0 -0.88942208967E+02 -0.26975854692E+02 -0.24070774665E+03  0.25802835614E+03  0.00000000000E+00 0.  1.
         11    1    3    3    0    0 -0.37253604873E+02  0.72519932604E+02 -0.12873574476E+03  0.15238065389E+03  0.00000000000E+00 0. -1.
        -13    1    4    4    0    0 -0.26547555327E+02  0.87982046050E+01 -0.58185456141E+01  0.28566353831E+02  0.00000000000E+00 0.  1.
         13    1    4    4    0    0 -0.72340325371E+02  0.78791668026E+02  0.10131576488E+03  0.14733001676E+03  0.00000000000E+00 0. -1.
         21    1    1    2  503  501 -0.11726818244E+02 -0.31061488995E+02  0.53600214070E+02  0.63050117471E+02  0.00000000000E+00 0. -1.
         -1    1    1    2    0  502  0.23681051278E+03 -0.10207246155E+03 -0.38984791044E+03  0.46741779988E+03  0.00000000000E+00 0.  1.
<scales pt_clust_5="13000.00000" pt_clust_6="13000.00000" pt_clust_7="13000.00000" pt_clust_8="13000.00000" pt_clust_9="33.20142" pt_clust_10="13000.00000"></scales>
<clustering>
<clus scale="   33.201">  1  9  2 -1</clus>
<clus scale="   66.099">  7  8 -1 -1</clus>
<clus scale="  118.099">  5  6 -1 -1</clus>
<clus scale="  178.810">  2  5  1 -1</clus>
<clus scale="  137.400">  7 10 -1 -1</clus>
<clus scale="   33.201">  1  5  2 -1</clus>
</clustering>
</event>
<event>
10    2  0.4951045E-006  0.2262050E+03  0.7546771E-02  0.1166107E+00
         21   -1    0    0  503  502  0.00000000000E+00  0.00000000000E+00  0.42922750065E+02  0.42922750065E+02  0.00000000000E+00 0. -1.
          2   -1    0    0  502    0 -0.00000000000E+00 -0.00000000000E+00 -0.11794657845E+04  0.11794657845E+04  0.00000000000E+00 0. -1.
         23    2    1    2    0    0  0.29982709378E+02  0.46413561366E+02 -0.13712247574E+03  0.16698031762E+03  0.77631640318E+02 0.  0.
         23    2    1    2    0    0 -0.25061203795E+02  0.84928250305E+02 -0.51956160384E+03  0.53445187141E+03  0.88620940161E+02 0.  0.
        -11    1    3    3    0    0 -0.21166157024E+02  0.56820960541E+01 -0.10129966642E+02  0.24143501049E+02  0.00000000000E+00 0.  1.
         11    1    3    3    0    0  0.51148866402E+02  0.40731465312E+02 -0.12699250910E+03  0.14283681657E+03  0.00000000000E+00 0. -1.
        -11    1    4    4    0    0 -0.57488261863E+02  0.66727838956E+02 -0.36914589954E+03  0.37950783903E+03  0.00000000000E+00 0. -1.
         11    1    4    4    0    0  0.32427058068E+02  0.18200411349E+02 -0.15041570430E+03  0.15494403238E+03  0.00000000000E+00 0.  1.
         21    1    1    2  503  501  0.29483923764E+02 -0.34748399087E+02 -0.19935128991E+02  0.49740952620E+02  0.00000000000E+00 0. -1.
          2    1    1    2  501    0 -0.34405429348E+02 -0.96593412584E+02 -0.45992382586E+03  0.47121539291E+03  0.00000000000E+00 0. -1.
<scales pt_clust_5="13000.00000" pt_clust_6="13000.00000" pt_clust_7="13000.00000" pt_clust_8="13000.00000" pt_clust_9="45.57141" pt_clust_10="13000.00000"></scales>
<clustering>
<clus scale="   45.571">  1  9  2 -1</clus>
<clus scale="   77.632">  5  6 -1 -1</clus>
<clus scale="   88.621">  7  8 -1 -1</clus>
<clus scale="   94.302">  2  5  1 -1</clus>
<clus scale="   89.266">  7 10 -1 -1</clus>
<clus scale="   45.571">  1  5  2 -1</clus>
</clustering>
</event>
<event>
10    2  0.4951045E-006  0.5040416E+03  0.7546771E-02  0.1069769E+00
         21   -1    0    0  501  502  0.00000000000E+00  0.00000000000E+00  0.30607685865E+03  0.30607685865E+03  0.00000000000E+00 0. -1.
          2   -1    0    0  503    0 -0.00000000000E+00 -0.00000000000E+00 -0.12261961518E+04  0.12261961518E+04  0.00000000000E+00 0. -1.
         23    2    1    2    0    0  0.25398414755E+02  0.21281739227E+02 -0.14068527479E+03  0.17040351997E+03  0.90260850753E+02 0.  0.
         23    2    1    2    0    0 -0.11405366817E+03 -0.12421975496E+03 -0.82221365400E+03  0.84426026419E+03  0.91111547717E+02 0.  0.
        -11    1    3    3    0    0 -0.19247231780E+02  0.27124904283E+02 -0.14238888440E+02  0.36179584126E+02  0.00000000000E+00 0. -1.
         11    1    3    3    0    0  0.44645646535E+02 -0.58431650553E+01 -0.12644638635E+03  0.13422393584E+03  0.00000000000E+00 0.  1.
        -13    1    4    4    0    0 -0.10302212878E+03 -0.47985461190E+02 -0.53150019565E+03  0.54351506095E+03  0.00000000000E+00 0.  1.
         13    1    4    4    0    0 -0.11031539388E+02 -0.76234293771E+02 -0.29071345835E+03  0.30074520324E+03  0.00000000000E+00 0. -1.
         21    1    1    2  503  502  0.17188195311E+03  0.25750363405E+03  0.11153476228E+03  0.32907678519E+03  0.00000000000E+00 0. -1.
          2    1    1    2  501    0 -0.83226699699E+02 -0.15456561832E+03 -0.68755126666E+02  0.18853244111E+03  0.00000000000E+00 0. -1.
<scales pt_clust_5="13000.00000" pt_clust_6="13000.00000" pt_clust_7="13000.00000" pt_clust_8="13000.00000" pt_clust_9="312.83121" pt_clust_10="13000.00000"></scales>
<clustering>
<clus scale="   90.261">  5  6 -1 -1</clus>
<clus scale="   91.112">  7  8 -1 -1</clus>
<clus scale="   96.151">  2  5  1 -1</clus>
<clus scale="  171.856">  7 10 -1 -1</clus>
<clus scale="  312.831">  1  9  2 -1</clus>
<clus scale="  312.831">  1  5  2 -1</clus>
</clustering>
</event>
<event>
10    2  0.4951045E-006  0.1999393E+03  0.7546771E-02  0.1169130E+00
          1   -1    0    0  502    0 -0.00000000000E+00  0.00000000000E+00  0.21823483416E+03  0.21823483416E+03  0.00000000000E+00 0. -1.
         21   -1    0    0  503  502  0.00000000000E+00 -0.00000000000E+00 -0.43529722271E+03  0.43529722271E+03  0.00000000000E+00 0. -1.
         23    2    1    2    0    0 -0.94238925754E+02 -0.51150233508E+02  0.73564354681E+02  0.15939402906E+03  0.92181455319E+02 0.  0.
         23    2    1    2    0    0  0.27919743457E+02 -0.11254506082E+02  0.66606594787E+02  0.12089796766E+03  0.96300073378E+02 0.  0.
        -11    1    3    3    0    0  0.15701604778E+02 -0.23030269120E+02  0.12843689807E+02  0.30690292541E+02  0.00000000000E+00 0.  1.
         11    1    3    3    0    0 -0.10994053053E+03 -0.28119964387E+02  0.60720664874E+02  0.12870373652E+03  0.00000000000E+00 0. -1.
        -13    1    4    4    0    0 -0.23360939957E+02 -0.32188662807E+02  0.85956839353E+01  0.40690653857E+02  0.00000000000E+00 0.  1.
         13    1    4    4    0    0  0.51280683414E+02  0.20934156725E+02  0.58010910852E+02  0.80207313800E+02  0.00000000000E+00 0. -1.
         21    1    1    2  503  501  0.49772522233E+02  0.31175904485E+02 -0.30207088150E+03  0.30772724683E+03  0.00000000000E+00 0. -1.
          1    1    1    2  501    0  0.16546660064E+02  0.31228835104E+02 -0.55162456519E+02  0.65512813330E+02  0.00000000000E+00 0. -1.
<scales pt_clust_5="13000.00000" pt_clust_6="13000.00000" pt_clust_7="13000.00000" pt_clust_8="13000.00000" pt_clust_9="58.73024" pt_clust_10="13000.00000"></scales>
<clustering>
<clus scale="   58.730">  2  9  1 -1</clus>
<clus scale="   92.181">  5  6 -1 -1</clus>
<clus scale="   96.300">  7  8 -1 -1</clus>
<clus scale="   60.421">  7 10 -1 -1</clus>
<clus scale="  127.402">  1  5  2 -1</clus>
<clus scale="   58.730">  2  5  1 -1</clus>
</clustering>
</event>
<event>
10    2  0.4951045E-006  0.2686941E+03  0.7546771E-02  0.1108778E+00
          2   -1    0    0  503    0 -0.00000000000E+00  0.00000000000E+00  0.91270294242E+03  0.91270294242E+03  0.00000000000E+00 0. -1.
         21   -1    0    0  501  502  0.00000000000E+00 -0.00000000000E+00 -0.22914858387E+03  0.22914858387E+03  0.00000000000E+00 0.  1.
         23    2    1    2    0    0  0.24775645419E+03  0.27717995584E+03  0.15803822861E+03  0.41480790282E+03  0.94220624187E+02 0.  0.
         23    2    1    2    0    0 -0.28080811808E+02 -0.72325275042E+02  0.15698304887E+03  0.19772751073E+03  0.91831440488E+02 0.  0.
        -11    1    4    4    0    0  0.33056578316E+02 -0.33795852559E+02  0.72525563626E+02  0.86572827142E+02  0.00000000000E+00 0. -1.
         11    1    4    4    0    0 -0.61137390124E+02 -0.38529422483E+02  0.84457485249E+02  0.11115468358E+03  0.00000000000E+00 0.  1.
        -11    1    3    3    0    0  0.13677354985E+03  0.16032214022E+03  0.38673576859E+02  0.21425647745E+03  0.00000000000E+00 0.  1.
         11    1    3    3    0    0  0.11098290434E+03  0.11685781563E+03  0.11936465175E+03  0.20055142536E+03  0.00000000000E+00 0. -1.
         21    1    1    2  503  502 -0.21789568657E+03 -0.14397298868E+03  0.38591223276E+03  0.46597747059E+03  0.00000000000E+00 0. -1.
          2    1    1    2  501    0 -0.17799558070E+01 -0.60881692117E+02 -0.17379151700E+02  0.63338642167E+02  0.00000000000E+00 0. -1.
<scales pt_clust_5="13000.00000" pt_clust_6="13000.00000" pt_clust_7="13000.00000" pt_clust_8="13000.00000" pt_clust_9="261.16435" pt_clust_10="13000.00000"></scales>
<clustering>
<clus scale="   91.831">  5  6 -1 -1</clus>
<clus scale="   60.908">  5 10 -1 -1</clus>
<clus scale="   94.221">  7  8 -1 -1</clus>
<clus scale="  261.164">  2  9  1 -1</clus>
<clus scale="  225.928">  1  7  2 -1</clus>
<clus scale="  261.164">  2  5  1 -1</clus>
</clustering>
</event>
<event>
10    2  0.4951045E-006  0.2761900E+03  0.7546771E-02  0.1113089E+00
         21   -1    0    0  503  502  0.00000000000E+00  0.00000000000E+00  0.22224478537E+03  0.22224478537E+03  0.00000000000E+00 0.  1.
         -1   -1    0    0    0  501 -0.00000000000E+00 -0.00000000000E+00 -0.38129924683E+03  0.38129924683E+03  0.00000000000E+00 0.  1.
         23    2    1    2    0    0  0.15908987150E+03 -0.22198454609E+02 -0.17835033883E+03  0.25607101404E+03  0.89225345439E+02 0.  0.
         23    2    1    2    0    0 -0.21039825639E+03  0.51094857819E+02 -0.27321591309E+00  0.23328810922E+03  0.86862860114E+02 0.  0.
        -11    1    3    3    0    0  0.11384038894E+03 -0.50712655746E+02 -0.15166229581E+03  0.19629788480E+03  0.00000000000E+00 0.  1.
         11    1    3    3    0    0  0.45249482559E+02  0.28514201137E+02 -0.26688043015E+02  0.59773129233E+02  0.00000000000E+00 0. -1.
        -13    1    4    4    0    0 -0.20870694051E+03  0.29514130200E+02  0.56026059493E+01  0.21085791447E+03  0.00000000000E+00 0.  1.
         13    1    4    4    0    0 -0.16913158775E+01  0.21580727619E+02 -0.58758218624E+01  0.22430194750E+02  0.00000000000E+00 0. -1.
         21    1    1    2  503  501  0.49771249708E+01 -0.51789728922E+02  0.31934789980E+02  0.61047347247E+02  0.00000000000E+00 0. -1.
         -1    1    1    2    0  502  0.46331259921E+02  0.22893325712E+02 -0.12365696705E+02  0.53137561697E+02  0.00000000000E+00 0.  1.
<scales pt_clust_5="13000.00000" pt_clust_6="13000.00000" pt_clust_7="13000.00000" pt_clust_8="13000.00000" pt_clust_9="52.02834" pt_clust_10="13000.00000"></scales>
<clustering>
<clus scale="   52.028">  1  9  2 -1</clus>
<clus scale="   86.863">  7  8 -1 -1</clus>
<clus scale="   49.855">  7 10 -1 -1</clus>
<clus scale="   89.225">  5  6 -1 -1</clus>
<clus scale="  186.425">  2  5  1 -1</clus>
<clus scale="   52.028">  1  5  2 -1</clus>
</clustering>
</event>
<event>
10    2  0.4951045E-006  0.9213720E+03  0.7546771E-02  0.1007918E+00
         21   -1    0    0  501  502  0.00000000000E+00  0.00000000000E+00  0.28143398965E+03  0.28143398965E+03  0.00000000000E+00 0. -1.
          1   -1    0    0  503    0 -0.00000000000E+00 -0.00000000000E+00 -0.15919101588E+04  0.15919101588E+04  0.00000000000E+00 0. -1.
         23    2    1    2    0    0 -0.15044203744E+02  0.22677176651E+02 -0.64356159935E+02  0.11535267337E+03  0.91782032696E+02 0.  0.
         23    2    1    2    0    0  0.59571015712E+02  0.21970383635E+03 -0.98119585939E+03  0.10113338907E+04  0.90732807334E+02 0.  0.
        -13    1    3    3    0    0 -0.17216811936E+02 -0.32695768652E+02 -0.41061174540E+02  0.55239948910E+02  0.00000000000E+00 0.  1.
         13    1    3    3    0    0  0.21726081916E+01  0.55372945303E+02 -0.23294985394E+02  0.60112724463E+02  0.00000000000E+00 0. -1.
        -13    1    4    4    0    0  0.18030721152E+02  0.18764052300E+03 -0.68203911001E+03  0.70760965254E+03  0.00000000000E+00 0. -1.
         13    1    4    4    0    0  0.41540294560E+02  0.32063313349E+02 -0.29915674938E+03  0.30372423814E+03  0.00000000000E+00 0.  1.
         21    1    1    2  503  502  0.12228929829E+03  0.18825856988E+03 -0.23995506685E+02  0.22576923163E+03  0.00000000000E+00 0. -1.
          1    1    1    2  501    0 -0.16681611025E+03 -0.43063958288E+03 -0.24092864318E+03  0.52088835281E+03  0.00000000000E+00 0. -1.
<scales pt_clust_5="13000.00000" pt_clust_6="13000.00000" pt_clust_7="13000.00000" pt_clust_8="13000.00000" pt_clust_9="225.39976" pt_clust_10="13000.00000"></scales>
<clustering>
<clus scale="   90.733">  7  8 -1 -1</clus>
<clus scale="   91.782">  5  6 -1 -1</clus>
<clus scale="   95.732">  2  5  1 -1</clus>
<clus scale="  225.400">  1  9  2 -1</clus>
<clus scale="  283.718">  7 10 -1 -1</clus>
<clus scale="  225.400">  1  5  2 -1</clus>
</clustering>
</event>
<event>
10    2  0.4951045E-006  0.2697143E+03  0.7546771E-02  0.1141544E+00
          2   -1    0    0  502    0 -0.00000000000E+00  0.00000000000E+00  0.60036889189E+03  0.60036889189E+03  0.00000000000E+00 0. -1.
         21   -1    0    0  503  502  0.00000000000E+00 -0.00000000000E+00 -0.86939629576E+02  0.86939629576E+02  0.00000000000E+00 0. -1.
         23    2    1    2    0    0 -0.30945240834E+02 -0.63100105527E+01  0.74409984265E+02  0.12153883992E+03  0.90760231861E+02 0.  0.
         23    2    1    2    0    0  0.27932418175E+02 -0.29608865276E+01  0.48740824848E+03  0.49696747524E+03  0.92848715280E+02 0.  0.
        -11    1    3    3    0    0 -0.45379741679E+01 -0.40797808435E+02  0.65341048727E+02  0.77165452318E+02  0.00000000000E+00 0. -1.
         11    1    3    3    0    0 -0.26407266666E+02  0.34487797882E+02  0.90689355375E+01  0.44373387602E+02  0.00000000000E+00 0.  1.
        -13    1    4    4    0    0  0.26459990490E+02 -0.46400542416E+02  0.25612178899E+03  0.26163239905E+03  0.00000000000E+00 0. -1.
         13    1    4    4    0    0  0.14724276853E+01  0.43439655889E+02  0.23128645949E+03  0.23533507620E+03  0.00000000000E+00 0.  1.
         21    1    1    2  503  501 -0.22472590624E+02  0.34536650329E+01 -0.21245035519E+02  0.31117465606E+02  0.00000000000E+00 0.  1.
          2    1    1    2  501    0  0.25485413282E+02  0.58172320474E+01 -0.27143934912E+02  0.37684740697E+02  0.00000000000E+00 0. -1.
<scales pt_clust_5="13000.00000" pt_clust_6="13000.00000" pt_clust_7="13000.00000" pt_clust_8="13000.00000" pt_clust_9="22.73643" pt_clust_10="13000.00000"></scales>
<clustering>
<clus scale="   22.736">  2  9  1 -1</clus>
<clus scale="   90.760">  5  6 -1 -1</clus>
<clus scale="   92.849">  7  8 -1 -1</clus>
<clus scale="   15.519">  7 10 -1 -1</clus>
<clus scale="   99.172">  1  5  2 -1</clus>
<clus scale="   22.736">  2  5  1 -1</clus>
</clustering>
</event>
<event>
10    2  0.4951045E-006  0.2278095E+03  0.7546771E-02  0.1156917E+00
         21   -1    0    0  501  502  0.00000000000E+00  0.00000000000E+00  0.52369452682E+03  0.52369452682E+03  0.00000000000E+00 0.  1.
          3   -1    0    0  503    0 -0.00000000000E+00 -0.00000000000E+00 -0.15806841392E+03  0.15806841392E+03  0.00000000000E+00 0. -1.
         23    2    1    2    0    0 -0.67553660526E+02  0.13499698216E+02 -0.95504954474E+02  0.14880785392E+03  0.90977151840E+02 0.  0.
         23    2    1    2    0    0  0.95933681096E+02  0.80113252887E+02  0.33735721688E+03  0.37132535712E+03  0.91930542283E+02 0.  0.
        -11    1    3    3    0    0 -0.42045743952E+02 -0.71824495130E+01 -0.10605849106E+03  0.11431463463E+03  0.00000000000E+00 0. -1.
         11    1    3    3    0    0 -0.25507916573E+02  0.20682147729E+02  0.10553536582E+02  0.34493219290E+02  0.00000000000E+00 0.  1.
        -13    1    4    4    0    0  0.46028072128E+01  0.54402901162E+02  0.78434806316E+02  0.95566104508E+02  0.00000000000E+00 0.  1.
         13    1    4    4    0    0  0.91330873883E+02  0.25710351724E+02  0.25892241056E+03  0.27575925261E+03  0.00000000000E+00 0. -1.
         21    1    1    2  503  502 -0.96264974252E+01 -0.22903310564E+02  0.10916136245E+02  0.27136564226E+02  0.00000000000E+00 0.  1.
          3    1    1    2  501    0 -0.18753523145E+02 -0.70709640538E+02  0.11285771425E+03  0.13449316548E+03  0.00000000000E+00 0. -1.
<scales pt_clust_5="13000.00000" pt_clust_6="13000.00000" pt_clust_7="13000.00000" pt_clust_8="13000.00000" pt_clust_9="24.84415" pt_clust_10="13000.00000"></scales>
<clustering>
<clus scale="   24.844">  1  9  2 -1</clus>
<clus scale="   90.977">  5  6 -1 -1</clus>
<clus scale="   91.931">  7  8 -1 -1</clus>
<clus scale="   79.189">  7 10 -1 -1</clus>
<clus scale="  114.282">  2  5  1 -1</clus>
<clus scale="   24.844">  1  5  2 -1</clus>
</clustering>
</event>
<event>
10    2  0.4951045E-006  0.2849326E+03  0.7546771E-02  0.1121982E+00
         21   -1    0    0  501  502  0.00000000000E+00  0.00000000000E+00  0.14485597114E+03  0.14485597114E+03  0.00000000000E+00 0.  1.
         -1   -1    0    0    0  501 -0.00000000000E+00 -0.00000000000E+00 -0.11862181129E+04  0.11862181129E+04  0.00000000000E+00 0.  1.
         23    2    1    2    0    0 -0.56436031811E+02  0.55818302962E+02 -0.22944418964E+03  0.25967333483E+03  0.92113495373E+02 0.  0.
         23    2    1    2    0    0  0.17062982812E+03  0.29888511678E+02 -0.48863497845E+03  0.52643945454E+03  0.91468550680E+02 0.  0.
        -13    1    4    4    0    0  0.16199764936E+03  0.17709337467E+01 -0.36474048055E+03  0.39910148178E+03  0.00000000000E+00 0.  1.
         13    1    4    4    0    0  0.86321787549E+01  0.28117577932E+02 -0.12389449789E+03  0.12733797276E+03  0.00000000000E+00 0. -1.
        -13    1    3    3    0    0 -0.83563752504E+01  0.69687185383E+02 -0.15267976020E+03  0.16803940606E+03  0.00000000000E+00 0.  1.
         13    1    3    3    0    0 -0.48079656560E+02 -0.13868882421E+02 -0.76764429431E+02  0.91633928762E+02  0.00000000000E+00 0. -1.
         21    1    1    2  503  502 -0.69760526047E+02 -0.21538900032E+01  0.94002594598E+02  0.11707970801E+03  0.00000000000E+00 0.  1.
         -1    1    1    2    0  503 -0.44433270260E+02 -0.83552924637E+02 -0.41728556824E+03  0.42788158663E+03  0.00000000000E+00 0.  1.
<scales pt_clust_5="13000.00000" pt_clust_6="13000.00000" pt_clust_7="13000.00000" pt_clust_8="13000.00000" pt_clust_9="69.79377" pt_clust_10="13000.00000"></scales>
<clustering>
<clus scale="   69.794">  1  9  2 -1</clus>
<clus scale="   91.469">  5  6 -1 -1</clus>
<clus scale="   92.113">  7  8 -1 -1</clus>
<clus scale="   99.638">  5 10 -1 -1</clus>
<clus scale="  135.795">  2  7  1 -1</clus>
<clus scale="   69.794">  1  5  2 -1</clus>
</clustering>
</event>
<event>
10    2  0.4951045E-006  0.3850127E+03  0.7546771E-02  0.1099868E+00
          1   -1    0    0  502    0 -0.00000000000E+00  0.00000000000E+00  0.42393641853E+03  0.42393641853E+03  0.00000000000E+00 0. -1.
         21   -1    0    0  503  502  0.00000000000E+00 -0.00000000000E+00 -0.40928702964E+03  0.40928702964E+03  0.00000000000E+00 0. -1.
         23    2    1    2    0    0  0.44277041936E+01  0.31283309014E+02  0.29656051595E+03  0.31185997924E+03  0.91160611257E+02 0.  0.
         23    2    1    2    0    0  0.52832448926E+02  0.89659615809E+02  0.43375485491E+02  0.14570009222E+03  0.92287430161E+02 0.  0.
        -11    1    4    4    0    0  0.63815572745E+02  0.20387515747E+02  0.90107367739E+01  0.67596386740E+02  0.00000000000E+00 0.  1.
         11    1    4    4    0    0 -0.10983123819E+02  0.69272100062E+02  0.34364748718E+02  0.78103705483E+02  0.00000000000E+00 0. -1.
        -11    1    3    3    0    0 -0.15776382238E+02 -0.28356230303E+02  0.80001948306E+02  0.86332391176E+02  0.00000000000E+00 0.  1.
         11    1    3    3    0    0  0.20204086431E+02  0.59639539316E+02  0.21655856765E+03  0.22552758807E+03  0.00000000000E+00 0. -1.
         21    1    1    2  503  501  0.27596237218E+02  0.97125678932E+01 -0.78949310504E+02  0.84195486296E+02  0.00000000000E+00 0. -1.
          1    1    1    2  501    0 -0.84856390337E+02 -0.13065549272E+03 -0.24633730205E+03  0.29146789041E+03  0.00000000000E+00 0. -1.
<scales pt_clust_5="13000.00000" pt_clust_6="13000.00000" pt_clust_7="13000.00000" pt_clust_8="13000.00000" pt_clust_9="29.25553" pt_clust_10="13000.00000"></scales>
<clustering>
<clus scale="   29.256">  2  9  1 -1</clus>
<clus scale="   91.161">  7  8 -1 -1</clus>
<clus scale="   92.287">  5  6 -1 -1</clus>
<clus scale="   96.586">  1  7  2 -1</clus>
<clus scale="  132.430">  5 10 -1 -1</clus>
<clus scale="   29.256">  2  5  1 -1</clus>
</clustering>
</event>
<event>
10    2  0.4951045E-006  0.3204253E+03  0.7546771E-02  0.1098627E+00
         21   -1    0    0  503  502  0.00000000000E+00  0.00000000000E+00  0.94857841898E+02  0.94857841898E+02  0.00000000000E+00 0.  1.
         -4   -1    0    0    0  501 -0.00000000000E+00 -0.00000000000E+00 -0.92496094642E+03  0.92496094642E+03  0.00000000000E+00 0.  1.
         23    2    1    2    0    0  0.14259017704E+03 -0.48973939832E+02 -0.42493252457E+03  0.45986063110E+03  0.90408761877E+02 0.  0.
         23    2    1    2    0    0 -0.19510782307E+03  0.70106198194E+02 -0.24265438370E+03  0.33100883366E+03  0.87771045239E+02 0.  0.
        -13    1    4    4    0    0 -0.13753276571E+03  0.27217099022E+02 -0.10295756542E+03  0.17394335974E+03  0.00000000000E+00 0.  1.
         13    1    4    4    0    0 -0.57575057367E+02  0.42889099172E+02 -0.13969681828E+03  0.15706547391E+03  0.00000000000E+00 0. -1.
        -13    1    3    3    0    0  0.10033525225E+03 -0.40775604435E+02 -0.17175802128E+03  0.20305327044E+03  0.00000000000E+00 0. -1.
         13    1    3    3    0    0  0.42254924786E+02 -0.81983353974E+01 -0.25317450329E+03  0.25680736066E+03  0.00000000000E+00 0.  1.
         21    1    1    2  503  501  0.16156528043E+01  0.53050511759E+02 -0.13311095464E+02  0.54718848620E+02  0.00000000000E+00 0.  1.
         -4    1    1    2    0  502  0.50901993230E+02 -0.74182770121E+02 -0.14920510079E+03  0.17423047494E+03  0.00000000000E+00 0.  1.
<scales pt_clust_5="13000.00000" pt_clust_6="13000.00000" pt_clust_7="13000.00000" pt_clust_8="13000.00000" pt_clust_9="53.07511" pt_clust_10="13000.00000"></scales>
<clustering>
<clus scale="   53.075">  1  9  2 -1</clus>
<clus scale="   87.771">  5  6 -1 -1</clus>
<clus scale="   82.909">  5 10 -1 -1</clus>
<clus scale="   90.409">  7  8 -1 -1</clus>
<clus scale="  173.047">  2  7  1 -1</clus>
<clus scale="   53.075">  1  5  2 -1</clus>
</clustering>
</event>
<event>
10    2  0.4951045E-006  0.1468189E+03  0.7546771E-02  0.1212889E+00
          2   -1    0    0  503    0 -0.00000000000E+00  0.00000000000E+00  0.68343094708E+03  0.68343094708E+03  0.00000000000E+00 0. -1.
         21   -1    0    0  501  502  0.00000000000E+00 -0.00000000000E+00 -0.51145347212E+02  0.51145347212E+02  0.00000000000E+00 0. -1.
         23    2    1    2    0    0 -0.66121439887E+02  0.52836797391E+02  0.21853386057E+03  0.25135699308E+03  0.90881889190E+02 0.  0.
         23    2    1    2    0    0  0.16883908652E+02 -0.50619889406E+02  0.26435532526E+03  0.28453395698E+03  0.90710501643E+02 0.  0.
        -11    1    4    4    0    0  0.47074003820E+02 -0.57465282427E+02  0.18704175604E+03  0.20125317146E+03  0.00000000000E+00 0. -1.
         11    1    4    4    0    0 -0.30190095168E+02  0.68453930207E+01  0.77313569219E+02  0.83280785523E+02  0.00000000000E+00 0.  1.
        -11    1    3    3    0    0 -0.35209029578E+02  0.76983568756E+02  0.15741986224E+03  0.17873768111E+03  0.00000000000E+00 0. -1.
         11    1    3    3    0    0 -0.30912410309E+02 -0.24146771364E+02  0.61113998327E+02  0.72619311963E+02  0.00000000000E+00 0.  1.
         21    1    1    2  503  502  0.64057508279E+02  0.43915583900E+02  0.64595777452E+02  0.10101760906E+03  0.00000000000E+00 0. -1.
          2    1    1    2  501    0 -0.14819977044E+02 -0.46132491885E+02  0.84800636590E+02  0.97667735170E+02  0.00000000000E+00 0. -1.
<scales pt_clust_5="13000.00000" pt_clust_6="13000.00000" pt_clust_7="13000.00000" pt_clust_8="13000.00000" pt_clust_9="77.66558" pt_clust_10="13000.00000"></scales>
<clustering>
<clus scale="   77.666">  2  9  1 -1</clus>
<clus scale="   90.711">  5  6 -1 -1</clus>
<clus scale="   37.625">  5 10 -1 -1</clus>
<clus scale="   90.882">  7  8 -1 -1</clus>
<clus scale="  122.525">  1  7  2 -1</clus>
<clus scale="   77.666">  2  5  1 -1</clus>
</clustering>
</event>
<event>
10    2  0.4951045E-006  0.2117263E+03  0.7546771E-02  0.1144935E+00
          2   -1    0    0  503    0 -0.00000000000E+00  0.00000000000E+00  0.44691996096E+03  0.44691996096E+03  0.00000000000E+00 0. -1.
         21   -1    0    0  501  502  0.00000000000E+00 -0.00000000000E+00 -0.15415460906E+03  0.15415460906E+03  0.00000000000E+00 0. -1.
         23    2    1    2    0    0  0.18709912965E+03  0.40948501262E+02 -0.37684726265E+01  0.21108481189E+03  0.88655131576E+02 0.  0.
         23    2    1    2    0    0 -0.11021705496E+03 -0.25933504627E+02  0.24693660797E+03  0.28724106118E+03  0.93324128731E+02 0.  0.
        -13    1    4    4    0    0 -0.48505521334E+02 -0.58817692669E+02  0.11617503277E+03  0.13895662924E+03  0.00000000000E+00 0.  1.
         13    1    4    4    0    0 -0.61711533630E+02  0.32884188042E+02  0.13076157519E+03  0.14828443193E+03  0.00000000000E+00 0. -1.
        -13    1    3    3    0    0  0.29384265212E+02 -0.20816724321E+02 -0.19546259148E+02  0.40973495094E+02  0.00000000000E+00 0.  1.
         13    1    3    3    0    0  0.15771486443E+03  0.61765225582E+02  0.15777786522E+02  0.17011131680E+03  0.00000000000E+00 0. -1.
         21    1    1    2  503  502 -0.28135250146E+02 -0.27441846307E+02  0.17111698113E+02  0.42865574087E+02  0.00000000000E+00 0. -1.
          2    1    1    2  501    0 -0.48746824536E+02  0.12426849672E+02  0.32485518453E+02  0.59883122866E+02  0.00000000000E+00 0. -1.
<scales pt_clust_5="13000.00000" pt_clust_6="13000.00000" pt_clust_7="13000.00000" pt_clust_8="13000.00000" pt_clust_9="39.30200" pt_clust_10="13000.00000"></scales>
<clustering>
<clus scale="   39.302">  2  9  1 -1</clus>
<clus scale="   88.655">  7  8 -1 -1</clus>
<clus scale="   93.324">  5  6 -1 -1</clus>
<clus scale="   52.393">  5 10 -1 -1</clus>
<clus scale="  189.001">  1  7  2 -1</clus>
<clus scale="   39.302">  2  5  1 -1</clus>
</clustering>
</event>
<event>
10    2  0.4951045E-006  0.3585996E+03  0.7546771E-02  0.1084516E+00
         21   -1    0    0  501  502  0.00000000000E+00  0.00000000000E+00  0.12721051720E+03  0.12721051720E+03  0.00000000000E+00 0. -1.
          2   -1    0    0  503    0 -0.00000000000E+00 -0.00000000000E+00 -0.10610442955E+04  0.10610442955E+04  0.00000000000E+00 0. -1.
         23    2    1    2    0    0  0.13900844547E+03 -0.71882144815E+02 -0.67287336561E+03  0.69692585792E+03  0.91960288352E+02 0.  0.
         23    2    1    2    0    0  0.44808575535E+01  0.11463822928E+02 -0.25263915913E+03  0.26976409220E+03  0.93779653420E+02 0.  0.
        -11    1    3    3    0    0  0.10356941053E+03 -0.42432889407E+02 -0.60251014037E+03  0.61281778870E+03  0.00000000000E+00 0. -1.
         11    1    3    3    0    0  0.35439034937E+02 -0.29449255408E+02 -0.70363225247E+02  0.84108069224E+02  0.00000000000E+00 0.  1.
        -13    1    4    4    0    0 -0.39461490638E+02 -0.15766896250E+02 -0.12631532266E+03  0.13327177120E+03  0.00000000000E+00 0.  1.
         13    1    4    4    0    0  0.43942348192E+02  0.27230719178E+02 -0.12632383647E+03  0.13649232100E+03  0.00000000000E+00 0. -1.
         21    1    1    2  503  502  0.21802118525E+01  0.62682395906E+02 -0.37370960639E+02  0.73009758110E+02  0.00000000000E+00 0.  1.
          2    1    1    2  501    0 -0.14566951488E+03 -0.22640740183E+01  0.29049707050E+02  0.14855510451E+03  0.00000000000E+00 0. -1.
<scales pt_clust_5="13000.00000" pt_clust_6="13000.00000" pt_clust_7="13000.00000" pt_clust_8="13000.00000" pt_clust_9="62.72030" pt_clust_10="13000.00000"></scales>
<clustering>
<clus scale="   62.720">  1  9  2 -1</clus>
<clus scale="   91.960">  5  6 -1 -1</clus>
<clus scale="   93.780">  7  8 -1 -1</clus>
<clus scale="  151.892">  7 10 -1 -1</clus>
<clus scale="  179.083">  2  5  1 -1</clus>
<clus scale="   62.720">  1  5  2 -1</clus>
</clustering>
</event>
<event>
10    2  0.4951045E-006  0.1767610E+03  0.7546771E-02  0.1191031E+00
         21   -1    0    0  503  502  0.00000000000E+00  0.00000000000E+00  0.57954736137E+02  0.57954736137E+02  0.00000000000E+00 0. -1.
          1   -1    0    0  502    0 -0.00000000000E+00 -0.00000000000E+00 -0.76262408860E+03  0.76262408860E+03  0.00000000000E+00 0. -1.
         23    2    1    2    0    0  0.39593856313E+02 -0.24702655245E+02 -0.11149526359E+03  0.15104335739E+03  0.90581495765E+02 0.  0.
         23    2    1    2    0    0 -0.69664931974E+02 -0.47866118736E+01 -0.55110705753E+03  0.56270094565E+03  0.89650716525E+02 0.  0.
        -11    1    4    4    0    0 -0.28730768527E+02  0.41591977993E+02 -0.20739563049E+03  0.21346732124E+03  0.00000000000E+00 0.  1.
         11    1    4    4    0    0 -0.40934163447E+02 -0.46378589867E+02 -0.34371142705E+03  0.34923362441E+03  0.00000000000E+00 0. -1.
        -11    1    3    3    0    0  0.71449741548E+01 -0.36933937170E+02 -0.11008714224E+03  0.11633720496E+03  0.00000000000E+00 0. -1.
         11    1    3    3    0    0  0.32448882158E+02  0.12231281925E+02 -0.14081213468E+01  0.34706152431E+02  0.00000000000E+00 0.  1.
         21    1    1    2  503  501  0.31396654831E+02 -0.14191479790E+02  0.12742377423E+02  0.36735762080E+02  0.00000000000E+00 0. -1.
          1    1    1    2  501    0 -0.13255791702E+01  0.43680746909E+02 -0.54809408763E+02  0.70098759615E+02  0.00000000000E+00 0. -1.
<scales pt_clust_5="13000.00000" pt_clust_6="13000.00000" pt_clust_7="13000.00000" pt_clust_8="13000.00000" pt_clust_9="34.45501" pt_clust_10="13000.00000"></scales>
<clustering>
<clus scale="   34.455">  1  9  2 -1</clus>
<clus scale="   89.651">  5  6 -1 -1</clus>
<clus scale="   40.843">  5 10 -1 -1</clus>
<clus scale="   90.581">  7  8 -1 -1</clus>
<clus scale="  112.699">  2  7  1 -1</clus>
<clus scale="   34.455">  1  5  2 -1</clus>
</clustering>
</event>
<event>
10    2  0.4951045E-006  0.2809550E+03  0.7546771E-02  0.1100824E+00
         21   -1    0    0  503  502  0.00000000000E+00  0.00000000000E+00  0.78838761180E+03  0.78838761180E+03  0.00000000000E+00 0. -1.
         -1   -1    0    0    0  501 -0.00000000000E+00 -0.00000000000E+00 -0.78890280276E+03  0.78890280276E+03  0.00000000000E+00 0.  1.
         23    2    1    2    0    0  0.22520779208E+03 -0.25759948376E+02 -0.73732093036E+03  0.77632993931E+03  0.87543679200E+02 0.  0.
         23    2    1    2    0    0 -0.15201837722E+03  0.47879902802E+02  0.45251980600E+03  0.48879590218E+03  0.93515704907E+02 0.  0.
        -11    1    3    3    0    0  0.16010215974E+03  0.10837023476E+00 -0.61368187750E+03  0.63422248468E+03  0.00000000000E+00 0.  1.
         11    1    3    3    0    0  0.65105632340E+02 -0.25868318611E+02 -0.12363905286E+03  0.14210745463E+03  0.00000000000E+00 0. -1.
        -13    1    4    4    0    0 -0.15454422391E+03  0.21489345755E+02  0.41002230049E+03  0.43870718711E+03  0.00000000000E+00 0. -1.
         13    1    4    4    0    0  0.25258466946E+01  0.26390557047E+02  0.42497505510E+02  0.50088715070E+02  0.00000000000E+00 0.  1.
         21    1    1    2  503  501 -0.16648602094E+02  0.37296284527E+02  0.53987006118E+02  0.67696274793E+02  0.00000000000E+00 0. -1.
         -1    1    1    2    0  502 -0.56540812771E+02 -0.59416238953E+02  0.23029892728E+03  0.24446829828E+03  0.00000000000E+00 0.  1.
<scales pt_clust_5="13000.00000" pt_clust_6="13000.00000" pt_clust_7="13000.00000" pt_clust_8="13000.00000" pt_clust_9="40.84347" pt_clust_10="13000.00000"></scales>
<clustering>
<clus scale="   40.843">  1  9  2 -1</clus>
<clus scale="   87.544">  5  6 -1 -1</clus>
<clus scale="   93.516">  7  8 -1 -1</clus>
<clus scale="   77.929">  7 10 -1 -1</clus>
<clus scale="  242.476">  2  5  1 -1</clus>
<clus scale="   40.843">  1  5  2 -1</clus>
</clustering>
</event>
<event>
10    2  0.4951045E-006  0.1901215E+03  0.7546771E-02  0.1178433E+00
          2   -1    0    0  503    0 -0.00000000000E+00  0.00000000000E+00  0.33696607400E+03  0.33696607400E+03  0.00000000000E+00 0. -1.
         21   -1    0    0  501  502  0.00000000000E+00 -0.00000000000E+00 -0.10730597060E+03  0.10730597060E+03  0.00000000000E+00 0.  1.
         23    2    1    2    0    0 -0.51596516997E+02 -0.38144086074E+02  0.77107011878E+02  0.13535995571E+03  0.90882641138E+02 0.  0.
         23    2    1    2    0    0 -0.18343753502E+01  0.15027922617E+02  0.13623065147E+03  0.16541281562E+03  0.92592687509E+02 0.  0.
        -13    1    3    3    0    0  0.23604703360E+02 -0.15522967891E+02  0.38771402699E+02  0.47972556948E+02  0.00000000000E+00 0. -1.
         13    1    3    3    0    0 -0.75201220358E+02 -0.22621118183E+02  0.38335609179E+02  0.87387398761E+02  0.00000000000E+00 0.  1.
        -13    1    4    4    0    0  0.43931625824E+02  0.32332441828E+01  0.46853661854E+02  0.64309464659E+02  0.00000000000E+00 0. -1.
         13    1    4    4    0    0 -0.45766001174E+02  0.11794678434E+02  0.89376989612E+02  0.10110335096E+03  0.00000000000E+00 0.  1.
         21    1    1    2  503  502 -0.22014961211E+02 -0.30611068415E+02 -0.21555702913E+02  0.43432065973E+02  0.00000000000E+00 0.  1.
          2    1    1    2  501    0  0.75445853558E+02  0.53727231872E+02  0.37878142966E+02  0.10006720731E+03  0.00000000000E+00 0. -1.
<scales pt_clust_5="13000.00000" pt_clust_6="13000.00000" pt_clust_7="13000.00000" pt_clust_8="13000.00000" pt_clust_9="37.70538" pt_clust_10="13000.00000"></scales>
<clustering>
<clus scale="   37.705">  2  9  1 -1</clus>
<clus scale="   90.883">  5  6 -1 -1</clus>
<clus scale="   92.593">  7  8 -1 -1</clus>
<clus scale="   77.952">  7 10 -1 -1</clus>
<clus scale="  119.942">  1  5  2 -1</clus>
<clus scale="   37.705">  2  5  1 -1</clus>
</clustering>
</event>
<event>
10    2  0.4951045E-006  0.3800466E+03  0.7546771E-02  0.1087921E+00
         21   -1    0    0  501  502  0.00000000000E+00  0.00000000000E+00  0.11264733138E+03  0.11264733138E+03  0.00000000000E+00 0. -1.
          3   -1    0    0  503    0 -0.00000000000E+00 -0.00000000000E+00 -0.14019980049E+04  0.14019980049E+04  0.00000000000E+00 0. -1.
         23    2    1    2    0    0  0.69822397945E+02  0.60304638000E+02 -0.51727067033E+03  0.53318578857E+03  0.90588752776E+02 0.  0.
         23    2    1    2    0    0 -0.23582224386E+03  0.25406486664E+02 -0.63092291016E+03  0.68071190767E+03  0.95117624155E+02 0.  0.
        -13    1    3    3    0    0  0.74281249750E+02  0.96787409919E+01 -0.36659143716E+03  0.37416662584E+03  0.00000000000E+00 0. -1.
         13    1    3    3    0    0 -0.44588518043E+01  0.50625897008E+02 -0.15067923317E+03  0.15901916274E+03  0.00000000000E+00 0.  1.
        -13    1    4    4    0    0 -0.98485541937E+02  0.26043962630E+02 -0.15588804626E+03  0.18622237494E+03  0.00000000000E+00 0.  1.
         13    1    4    4    0    0 -0.13733670193E+03 -0.63747596514E+00 -0.47503486389E+03  0.49448953274E+03  0.00000000000E+00 0. -1.
         21    1    1    2  503  502  0.85015213434E+02  0.20364929180E+02  0.21818306738E+02  0.90101916543E+02  0.00000000000E+00 0. -1.
          3    1    1    2  501    0  0.80984632484E+02 -0.10607605384E+03 -0.16297539979E+03  0.21064572351E+03  0.00000000000E+00 0. -1.
<scales pt_clust_5="13000.00000" pt_clust_6="13000.00000" pt_clust_7="13000.00000" pt_clust_8="13000.00000" pt_clust_9="87.42035" pt_clust_10="13000.00000"></scales>
<clustering>
<clus scale="   87.420">  1  9  2 -1</clus>
<clus scale="   90.589">  5  6 -1 -1</clus>
<clus scale="   95.118">  7  8 -1 -1</clus>
<clus scale="  137.405">  2  5  1 -1</clus>
<clus scale="  163.565">  7 10 -1 -1</clus>
<clus scale="   87.420">  1  5  2 -1</clus>
</clustering>
</event>
<event>
10    2  0.4951045E-006  0.1761872E+03  0.7546771E-02  0.1199666E+00
         21   -1    0    0  501  502  0.00000000000E+00  0.00000000000E+00  0.17270215231E+03  0.17270215231E+03  0.00000000000E+00 0. -1.
         -3   -1    0    0    0  501 -0.00000000000E+00 -0.00000000000E+00 -0.20275126651E+03  0.20275126651E+03  0.00000000000E+00 0.  1.
         23    2    1    2    0    0 -0.29325211078E+02  0.49935262247E+01 -0.24000976268E+02  0.98207715034E+02  0.90464385928E+02 0.  0.
         23    2    1    2    0    0 -0.56834645905E+01  0.31953381108E+02 -0.81133544798E+02  0.12766403805E+03  0.93070587111E+02 0.  0.
        -11    1    4    4    0    0  0.25137175869E+02 -0.13408775442E+02 -0.64248081506E+02  0.70281497186E+02  0.00000000000E+00 0.  1.
         11    1    4    4    0    0 -0.30820640460E+02  0.45362156550E+02 -0.16885463292E+02  0.57382540862E+02  0.00000000000E+00 0. -1.
        -11    1    3    3    0    0 -0.20070775591E+02 -0.40460204645E+02 -0.25367544220E+02  0.51801317478E+02  0.00000000000E+00 0.  1.
         11    1    3    3    0    0 -0.92544354871E+01  0.45453730869E+02  0.13665679519E+01  0.46406397556E+02  0.00000000000E+00 0. -1.
         21    1    1    2  503  502  0.22367499899E+02  0.28968050609E+02  0.73887351714E+02  0.82454798230E+02  0.00000000000E+00 0. -1.
         -3    1    1    2    0  503  0.12641175769E+02 -0.65914957942E+02  0.11980551430E+01  0.67126867508E+02  0.00000000000E+00 0.  1.
<scales pt_clust_5="13000.00000" pt_clust_6="13000.00000" pt_clust_7="13000.00000" pt_clust_8="13000.00000" pt_clust_9="36.59854" pt_clust_10="13000.00000"></scales>
<clustering>
<clus scale="   36.599">  1  9  2 -1</clus>
<clus scale="   90.464">  7  8 -1 -1</clus>
<clus scale="   93.071">  5  6 -1 -1</clus>
<clus scale="   59.193">  5 10 -1 -1</clus>
<clus scale="   94.200">  2  7  1 -1</clus>
<clus scale="   36.599">  1  5  2 -1</clus>
</clustering>
</event>
<event>
10    2  0.4951045E-006  0.2771311E+03  0.7546771E-02  0.1123748E+00
         -1   -1    0    0    0  501 -0.00000000000E+00  0.00000000000E+00  0.43763512529E+03  0.43763512529E+03  0.00000000000E+00 0.  1.
         21   -1    0    0  501  502  0.00000000000E+00 -0.00000000000E+00 -0.30488875519E+03  0.30488875519E+03  0.00000000000E+00 0.  1.
         23    2    1    2    0    0  0.87656755524E+02 -0.61833370097E+02  0.13102644521E+03  0.19265909348E+03  0.91883211249E+02 0.  0.
         23    2    1    2    0    0 -0.35013779074E+02  0.70997577607E+02  0.11440542991E+02  0.12661302617E+03  0.98149638922E+02 0.  0.
        -13    1    3    3    0    0 -0.16741614047E+02 -0.16873555319E+02  0.42069155601E+02  0.48319896140E+02  0.00000000000E+00 0. -1.
         13    1    3    3    0    0  0.10439836957E+03 -0.44959814778E+02  0.88957289607E+02  0.14433919734E+03  0.00000000000E+00 0.  1.
        -13    1    4    4    0    0 -0.31649160823E+02  0.20133291717E+02  0.50135519997E+02  0.62614608372E+02  0.00000000000E+00 0.  1.
         13    1    4    4    0    0 -0.33646182509E+01  0.50864285890E+02 -0.38694977006E+02  0.63998417797E+02  0.00000000000E+00 0. -1.
         21    1    1    2  503  502  0.13974774863E+03 -0.10422323926E+03 -0.87421459612E+02  0.19502417401E+03  0.00000000000E+00 0.  1.
         -1    1    1    2    0  503 -0.19239072508E+03  0.95059031747E+02  0.77700841517E+02  0.22822758682E+03  0.00000000000E+00 0.  1.
<scales pt_clust_5="13000.00000" pt_clust_6="13000.00000" pt_clust_7="13000.00000" pt_clust_8="13000.00000" pt_clust_9="195.25258" pt_clust_10="13000.00000"></scales>
<clustering>
<clus scale="   91.883">  5  6 -1 -1</clus>
<clus scale="   98.150">  7  8 -1 -1</clus>
<clus scale="  141.243">  1  5  2 -1</clus>
<clus scale="  156.087">  7 10 -1 -1</clus>
<clus scale="  195.253">  2  9  1 -1</clus>
<clus scale="  195.253">  2  5  1 -1</clus>
</clustering>
</event>
<event>
10    2  0.4951045E-006  0.3125523E+03  0.7546771E-02  0.1094078E+00
          1   -1    0    0  503    0 -0.00000000000E+00  0.00000000000E+00  0.13497731370E+04  0.13497731370E+04  0.00000000000E+00 0. -1.
         21   -1    0    0  501  502  0.00000000000E+00 -0.00000000000E+00 -0.24698304291E+03  0.24698304291E+03  0.00000000000E+00 0.  1.
         23    2    1    2    0    0  0.17446284218E+03 -0.11535128077E+02  0.28006817064E+03  0.34229296382E+03  0.90310300590E+02 0.  0.
         23    2    1    2    0    0 -0.69096639717E+01 -0.59757557909E+02  0.43234398218E+03  0.44618646039E+03  0.92424722446E+02 0.  0.
        -11    1    4    4    0    0 -0.18282240246E+02 -0.79181217664E+02  0.38843547364E+03  0.39684508655E+03  0.00000000000E+00 0.  1.
         11    1    4    4    0    0  0.11372576275E+02  0.19423659754E+02  0.43908508546E+02  0.49341373837E+02  0.00000000000E+00 0. -1.
        -13    1    3    3    0    0  0.90967517701E+02 -0.42572907882E+02  0.19384833848E+03  0.21832251394E+03  0.00000000000E+00 0.  1.
         13    1    3    3    0    0  0.83495324479E+02  0.31037779805E+02  0.86219832162E+02  0.12397044988E+03  0.00000000000E+00 0. -1.
         21    1    1    2  503  502  0.26598181503E+02  0.26867024488E+01 -0.19030035860E+03  0.19216895720E+03  0.00000000000E+00 0.  1.
          1    1    1    2  501    0 -0.19415135971E+03  0.68605983538E+02  0.58067829983E+03  0.61610779848E+03  0.00000000000E+00 0. -1.
<scales pt_clust_5="13000.00000" pt_clust_6="13000.00000" pt_clust_7="13000.00000" pt_clust_8="13000.00000" pt_clust_9="26.73353" pt_clust_10="13000.00000"></scales>
<clustering>
<clus scale="   26.734">  2  9  1 -1</clus>
<clus scale="   90.310">  7  8 -1 -1</clus>
<clus scale="   92.425">  5  6 -1 -1</clus>
<clus scale="  198.265">  5 10 -1 -1</clus>
<clus scale="  209.985">  1  7  2 -1</clus>
<clus scale="   26.734">  2  5  1 -1</clus>
</clustering>
</event>
<event>
10    2  0.4951045E-006  0.1877893E+03  0.7546771E-02  0.1180817E+00
         -1   -1    0    0    0  501 -0.00000000000E+00  0.00000000000E+00  0.34456211553E+03  0.34456211553E+03  0.00000000000E+00 0.  1.
         21   -1    0    0  501  502  0.00000000000E+00 -0.00000000000E+00 -0.43758970706E+03  0.43758970706E+03  0.00000000000E+00 0.  1.
         23    2    1    2    0    0  0.49948435671E+02  0.61403552732E+02  0.27029833203E+03  0.29580049528E+03  0.90396361615E+02 0.  0.
         23    2    1    2    0    0  0.10961595805E+02 -0.11393233396E+02  0.17168301014E+02  0.94310931836E+02  0.91377453205E+02 0.  0.
        -11    1    4    4    0    0 -0.33185861187E+02 -0.22778734693E+02 -0.96827671012E+01  0.41399614922E+02  0.00000000000E+00 0. -1.
         11    1    4    4    0    0  0.44147456992E+02  0.11385501297E+02  0.26851068115E+02  0.52911316914E+02  0.00000000000E+00 0.  1.
        -13    1    3    3    0    0  0.18975700774E+02  0.79482716790E+02  0.21376254245E+03  0.22884930422E+03  0.00000000000E+00 0.  1.
         13    1    3    3    0    0  0.30972734897E+02 -0.18079164059E+02  0.56535789577E+02  0.66951191051E+02  0.00000000000E+00 0. -1.
         21    1    1    2  503  502 -0.41001911039E+02 -0.16192657045E+02 -0.29100420403E+03  0.29432432046E+03  0.00000000000E+00 0.  1.
         -1    1    1    2    0  503 -0.19908120437E+02 -0.33817662290E+02 -0.89490020541E+02  0.97716075026E+02  0.00000000000E+00 0.  1.
<scales pt_clust_5="13000.00000" pt_clust_6="13000.00000" pt_clust_7="13000.00000" pt_clust_8="13000.00000" pt_clust_9="44.08354" pt_clust_10="13000.00000"></scales>
<clustering>
<clus scale="   44.084">  2  9  1 -1</clus>
<clus scale="   90.396">  7  8 -1 -1</clus>
<clus scale="   91.377">  5  6 -1 -1</clus>
<clus scale="   64.128">  5 10 -1 -1</clus>
<clus scale="  117.968">  1  7  2 -1</clus>
<clus scale="   44.084">  2  5  1 -1</clus>
</clustering>
</event>
<event>
10    2  0.4951045E-006  0.2466177E+03  0.7546771E-02  0.1128777E+00
          1   -1    0    0  502    0 -0.00000000000E+00  0.00000000000E+00  0.13238849196E+04  0.13238849196E+04  0.00000000000E+00 0. -1.
         21   -1    0    0  503  502  0.00000000000E+00 -0.00000000000E+00 -0.50770225855E+02  0.50770225855E+02  0.00000000000E+00 0.  1.
         23    2    1    2    0    0 -0.96848204264E+02 -0.15431945036E+03  0.34810243266E+03  0.40327522574E+03  0.90892995580E+02 0.  0.
         23    2    1    2    0    0  0.57879432739E+01 -0.54270697694E+01  0.19175961763E+03  0.21258796890E+03  0.91427239883E+02 0.  0.
        -11    1    3    3    0    0 -0.88937472477E+02 -0.12577502972E+03  0.20110296165E+03  0.25332120578E+03  0.00000000000E+00 0.  1.
         11    1    3    3    0    0 -0.79107317867E+01 -0.28544420642E+02  0.14699947101E+03  0.14995401996E+03  0.00000000000E+00 0. -1.
        -11    1    4    4    0    0  0.59890165020E+01 -0.33856740545E+02  0.17746738156E+03  0.18076730544E+03  0.00000000000E+00 0. -1.
         11    1    4    4    0    0 -0.20107322809E+00  0.28429670776E+02  0.14292236070E+02  0.31820663455E+02  0.00000000000E+00 0.  1.
         21    1    1    2  503  501  0.18513578290E+01  0.60879912266E+02  0.19376723709E+03  0.20311458198E+03  0.00000000000E+00 0. -1.
          1    1    1    2  501    0  0.89208903161E+02  0.98866607863E+02  0.53948540633E+03  0.55567736880E+03  0.00000000000E+00 0. -1.
<scales pt_clust_5="13000.00000" pt_clust_6="13000.00000" pt_clust_7="13000.00000" pt_clust_8="13000.00000" pt_clust_9="60.90809" pt_clust_10="13000.00000"></scales>
<clustering>
<clus scale="   60.908">  2  9  1 -1</clus>
<clus scale="   90.893">  5  6 -1 -1</clus>
<clus scale="   91.427">  7  8 -1 -1</clus>
<clus scale="  141.490">  7 10 -1 -1</clus>
<clus scale="  176.988">  1  5  2 -1</clus>
<clus scale="   60.908">  2  5  1 -1</clus>
</clustering>
</event>
<event>
10    2  0.4951045E-006  0.1535437E+03  0.7546771E-02  0.1218637E+00
          3   -1    0    0  503    0 -0.00000000000E+00  0.00000000000E+00  0.62795495283E+02  0.62795495283E+02  0.00000000000E+00 0. -1.
         21   -1    0    0  501  502  0.00000000000E+00 -0.00000000000E+00 -0.36166997754E+03  0.36166997754E+03  0.00000000000E+00 0. -1.
         23    2    1    2    0    0 -0.80586838736E+01 -0.66610902966E+01 -0.95689821674E+02  0.13313032906E+03  0.91966461458E+02 0.  0.
         23    2    1    2    0    0  0.99171671958E+01  0.10943956711E+01 -0.32455803324E+02  0.10938129504E+03  0.10397759676E+03 0.  0.
        -11    1    4    4    0    0 -0.20037035085E+01  0.51958490518E+02 -0.19703047047E+02  0.55604942474E+02  0.00000000000E+00 0.  1.
         11    1    4    4    0    0  0.11920870704E+02 -0.50864094846E+02 -0.12752756277E+02  0.53776352568E+02  0.00000000000E+00 0. -1.
        -11    1    3    3    0    0  0.27360130934E+02  0.29099841084E+02 -0.28002046272E+02  0.48780038041E+02  0.00000000000E+00 0.  1.
         11    1    3    3    0    0 -0.35418814807E+02 -0.35760931381E+02 -0.67687775402E+02  0.84350291016E+02  0.00000000000E+00 0. -1.
         21    1    1    2  503  502 -0.20183449377E+02 -0.21239108358E+02 -0.98425264750E+02  0.10269373931E+03  0.00000000000E+00 0. -1.
          3    1    1    2  501    0  0.18324966055E+02  0.26805802983E+02 -0.72303592505E+02  0.79260109410E+02  0.00000000000E+00 0. -1.
<scales pt_clust_5="13000.00000" pt_clust_6="13000.00000" pt_clust_7="13000.00000" pt_clust_8="13000.00000" pt_clust_9="29.29968" pt_clust_10="13000.00000"></scales>
<clustering>
<clus scale="   29.300">  2  9  1 -1</clus>
<clus scale="   91.966">  7  8 -1 -1</clus>
<clus scale="   94.860">  1  7  2 -1</clus>
<clus scale="  103.978">  5  6 -1 -1</clus>
<clus scale="   22.668">  5 10 -1 -1</clus>
<clus scale="   29.300">  2  5  1 -1</clus>
</clustering>
</event>
<event>
10    2  0.4951045E-006  0.2223234E+03  0.7546771E-02  0.1166507E+00
         -1   -1    0    0    0  501 -0.00000000000E+00  0.00000000000E+00  0.21423971024E+03  0.21423971024E+03  0.00000000000E+00 0.  1.
         21   -1    0    0  501  502  0.00000000000E+00 -0.00000000000E+00 -0.29491689884E+03  0.29491689884E+03  0.00000000000E+00 0.  1.
         23    2    1    2    0    0  0.27514022968E+02  0.19305715466E+02 -0.63243638570E+02  0.11641502012E+03  0.91776723521E+02 0.  0.
         23    2    1    2    0    0 -0.40598749333E+02  0.36110741091E+02  0.16678545418E+03  0.19810304525E+03  0.92060766564E+02 0.  0.
        -11    1    4    4    0    0 -0.51901184332E+02  0.60682928574E+02  0.12414393512E+03  0.14760713866E+03  0.00000000000E+00 0.  1.
         11    1    4    4    0    0  0.11302434998E+02 -0.24572187483E+02  0.42641519058E+02  0.50495906588E+02  0.00000000000E+00 0. -1.
        -11    1    3    3    0    0 -0.23133029143E+02  0.18657637176E+02 -0.58407070593E+02  0.65533429314E+02  0.00000000000E+00 0.  1.
         11    1    3    3    0    0  0.50647052112E+02  0.64807829052E+00 -0.48365679762E+01  0.50881590805E+02  0.00000000000E+00 0. -1.
         21    1    1    2  503  502  0.13877300604E+02 -0.29326701635E+02 -0.13591064502E+03  0.13972951846E+03  0.00000000000E+00 0.  1.
         -1    1    1    2    0  503 -0.79257423908E+00 -0.26089754922E+02 -0.48308359192E+02  0.54909025248E+02  0.00000000000E+00 0.  1.
<scales pt_clust_5="13000.00000" pt_clust_6="13000.00000" pt_clust_7="13000.00000" pt_clust_8="13000.00000" pt_clust_9="32.44434" pt_clust_10="13000.00000"></scales>
<clustering>
<clus scale="   32.444">  2  9  1 -1</clus>
<clus scale="   91.777">  7  8 -1 -1</clus>
<clus scale="   92.061">  5  6 -1 -1</clus>
<clus scale="   35.922">  5 10 -1 -1</clus>
<clus scale="   98.418">  1  7  2 -1</clus>
<clus scale="   32.444">  2  5  1 -1</clus>
</clustering>
</event>
<event>
10    2  0.4951045E-006  0.1828394E+03  0.7546771E-02  0.1180045E+00
         21   -1    0    0  503  502  0.00000000000E+00  0.00000000000E+00  0.12264920311E+03  0.12264920311E+03  0.00000000000E+00 0.  1.
          2   -1    0    0  502    0 -0.00000000000E+00 -0.00000000000E+00 -0.62079520849E+03  0.62079520849E+03  0.00000000000E+00 0. -1.
         23    2    1    2    0    0 -0.90477803194E+02  0.35755768007E+02 -0.39020169959E+03  0.41246144049E+03  0.91664418981E+02 0.  0.
         23    2    1    2    0    0  0.41137173452E+02  0.31343511315E+01 -0.17131470566E+03  0.19606804392E+03  0.85975916832E+02 0.  0.
        -11    1    3    3    0    0 -0.37836037899E+02 -0.19877461631E+02 -0.61099132406E+02  0.74563953929E+02  0.00000000000E+00 0.  1.
         11    1    3    3    0    0 -0.52641765295E+02  0.55633229638E+02 -0.32910256719E+03  0.33789748656E+03  0.00000000000E+00 0. -1.
        -13    1    4    4    0    0  0.63008627288E+02 -0.23235535479E+01 -0.79188508001E+02  0.10122403772E+03  0.00000000000E+00 0. -1.
         13    1    4    4    0    0 -0.21871453835E+02  0.54579046795E+01 -0.92126197663E+02  0.94844006200E+02  0.00000000000E+00 0.  1.
         21    1    1    2  503  501  0.28502129997E+02  0.12442930119E+02  0.72386546199E+02  0.78784579678E+02  0.00000000000E+00 0.  1.
          2    1    1    2  501    0  0.20838499745E+02 -0.51333049258E+02 -0.90161463218E+01  0.56130347516E+02  0.00000000000E+00 0. -1.
<scales pt_clust_5="13000.00000" pt_clust_6="13000.00000" pt_clust_7="13000.00000" pt_clust_8="13000.00000" pt_clust_9="31.09981" pt_clust_10="13000.00000"></scales>
<clustering>
<clus scale="   31.100">  1  9  2 -1</clus>
<clus scale="   85.976">  7  8 -1 -1</clus>
<clus scale="   57.156">  7 10 -1 -1</clus>
<clus scale="   91.664">  5  6 -1 -1</clus>
<clus scale="  130.046">  2  5  1 -1</clus>
<clus scale="   31.100">  1  5  2 -1</clus>
</clustering>
</event>
<event>
10    2  0.4951045E-006  0.2032790E+03  0.7546771E-02  0.1172031E+00
         21   -1    0    0  501  502  0.00000000000E+00  0.00000000000E+00  0.12750189641E+03  0.12750189641E+03  0.00000000000E+00 0.  1.
          2   -1    0    0  503    0 -0.00000000000E+00 -0.00000000000E+00 -0.55075248086E+03  0.55075248086E+03  0.00000000000E+00 0. -1.
         23    2    1    2    0    0  0.25766075865E+02 -0.36366573728E+02 -0.74190381007E+02  0.12551574664E+03  0.90904189505E+02 0.  0.
         23    2    1    2    0    0  0.13964836030E+02  0.58503200319E+02 -0.38254976087E+03  0.39767762284E+03  0.90473924819E+02 0.  0.
        -11    1    4    4    0    0  0.43097537710E+01 -0.22694929864E+02 -0.13528120862E+03  0.13723935013E+03  0.00000000000E+00 0.  1.
         11    1    4    4    0    0  0.96550822587E+01  0.81198130183E+02 -0.24726855226E+03  0.26043827271E+03  0.00000000000E+00 0. -1.
        -13    1    3    3    0    0  0.57769902123E+02 -0.31385356782E+02 -0.63510919039E+02  0.91411372645E+02  0.00000000000E+00 0.  1.
         13    1    3    3    0    0 -0.32003826258E+02 -0.49812169455E+01 -0.10679461968E+02  0.34104373992E+02  0.00000000000E+00 0. -1.
         21    1    1    2  503  502 -0.65278837287E+02 -0.66817381932E+02  0.42809740544E+02  0.10275486855E+03  0.00000000000E+00 0.  1.
          2    1    1    2  501    0  0.25547925393E+02  0.44680755340E+02 -0.93201831163E+01  0.52306139247E+02  0.00000000000E+00 0. -1.
<scales pt_clust_5="13000.00000" pt_clust_6="13000.00000" pt_clust_7="13000.00000" pt_clust_8="13000.00000" pt_clust_9="93.41247" pt_clust_10="13000.00000"></scales>
<clustering>
<clus scale="   90.474">  5  6 -1 -1</clus>
<clus scale="   51.469">  5 10 -1 -1</clus>
<clus scale="   90.904">  7  8 -1 -1</clus>
<clus scale="   93.412">  1  9  2 -1</clus>
<clus scale="  113.449">  2  7  1 -1</clus>
<clus scale="   93.412">  1  5  2 -1</clus>
</clustering>
</event>
<event>
10    2  0.4951045E-006  0.6342993E+03  0.7546771E-02  0.1025922E+00
         21   -1    0    0  501  502  0.00000000000E+00  0.00000000000E+00  0.56042158490E+03  0.56042158490E+03  0.00000000000E+00 0. -1.
          2   -1    0    0  503    0 -0.00000000000E+00 -0.00000000000E+00 -0.10359236250E+04  0.10359236250E+04  0.00000000000E+00 0. -1.
         23    2    1    2    0    0 -0.13608853428E+03  0.42570101006E+02 -0.46390864083E+03  0.49392326341E+03  0.91742359023E+02 0.  0.
         23    2    1    2    0    0  0.82417144983E+02 -0.19673333808E+03 -0.84472790409E+02  0.24489749585E+03  0.85688616827E+02 0.  0.
        -13    1    3    3    0    0 -0.13240974086E+03  0.20506099206E+02 -0.44467392736E+03  0.46442194312E+03  0.00000000000E+00 0. -1.
         13    1    3    3    0    0 -0.36787934195E+01  0.22064001801E+02 -0.19234713469E+02  0.29501320288E+02  0.00000000000E+00 0.  1.
        -13    1    4    4    0    0  0.36999216057E+02 -0.41567131718E+02 -0.59214681553E+02  0.81259749812E+02  0.00000000000E+00 0.  1.
         13    1    4    4    0    0  0.45417928926E+02 -0.15516620636E+03 -0.25258108856E+02  0.16363774604E+03  0.00000000000E+00 0. -1.
         21    1    1    2  503  502 -0.33171920094E+03  0.14234963708E+03 -0.17293632253E+03  0.40025993942E+03  0.00000000000E+00 0. -1.
          2    1    1    2  501    0  0.38539059024E+03  0.11813599996E+02  0.24581571363E+03  0.45726451126E+03  0.00000000000E+00 0. -1.
<scales pt_clust_5="13000.00000" pt_clust_6="13000.00000" pt_clust_7="13000.00000" pt_clust_8="13000.00000" pt_clust_9="434.02215" pt_clust_10="13000.00000"></scales>
<clustering>
<clus scale="   85.689">  7  8 -1 -1</clus>
<clus scale="   91.742">  5  6 -1 -1</clus>
<clus scale="  169.555">  2  5  1 -1</clus>
<clus scale="  360.110">  7 10 -1 -1</clus>
<clus scale="  434.022">  1  9  2 -1</clus>
<clus scale="  434.022">  1  5  2 -1</clus>
</clustering>
</event>
<event>
10    2  0.4951045E-006  0.5624859E+03  0.7546771E-02  0.1026945E+00
          1   -1    0    0  502    0 -0.00000000000E+00  0.00000000000E+00  0.79078373643E+03  0.79078373643E+03  0.00000000000E+00 0. -1.
         21   -1    0    0  503  502  0.00000000000E+00 -0.00000000000E+00 -0.67792957139E+03  0.67792957139E+03  0.00000000000E+00 0.  1.
         23    2    1    2    0    0  0.65452961462E+01 -0.21733629239E+03  0.29259482023E+03  0.37579592781E+03  0.91284969409E+02 0.  0.
         23    2    1    2    0    0 -0.60437074835E+02  0.20382402198E+03  0.12136645368E+03  0.26118074079E+03  0.91042250243E+02 0.  0.
        -11    1    4    4    0    0 -0.28534155236E+02  0.16754353713E+03  0.54092455783E+02  0.17835646504E+03  0.00000000000E+00 0.  1.
         11    1    4    4    0    0 -0.31902919599E+02  0.36280484850E+02  0.67273997901E+02  0.82824275749E+02  0.00000000000E+00 0. -1.
        -13    1    3    3    0    0 -0.39143502723E+02 -0.95477884549E+02  0.15679320170E+03  0.18770281922E+03  0.00000000000E+00 0. -1.
         13    1    3    3    0    0  0.45688798869E+02 -0.12185840784E+03  0.13580161854E+03  0.18809310859E+03  0.00000000000E+00 0.  1.
         21    1    1    2  503  501  0.69960590822E+02  0.28424042464E+03 -0.43887974743E+03  0.52754387114E+03  0.00000000000E+00 0.  1.
          1    1    1    2  501    0 -0.16068812133E+02 -0.27072815424E+03  0.13777263856E+03  0.30419276808E+03  0.00000000000E+00 0. -1.
<scales pt_clust_5="13000.00000" pt_clust_6="13000.00000" pt_clust_7="13000.00000" pt_clust_8="13000.00000" pt_clust_9="272.44375" pt_clust_10="13000.00000"></scales>
<clustering>
<clus scale="   91.042">  5  6 -1 -1</clus>
<clus scale="   91.285">  7  8 -1 -1</clus>
<clus scale="  235.820">  1  7  2 -1</clus>
<clus scale="  272.444">  2  9  1 -1</clus>
<clus scale="  193.987">  5 10 -1 -1</clus>
<clus scale="  272.444">  2  5  1 -1</clus>
</clustering>
</event>
<event>
10    2  0.4951045E-006  0.1659899E+03  0.7546771E-02  0.1202530E+00
          3   -1    0    0  502    0 -0.00000000000E+00  0.00000000000E+00  0.69577029069E+03  0.69577029069E+03  0.00000000000E+00 0. -1.
         21   -1    0    0  503  502  0.00000000000E+00 -0.00000000000E+00 -0.93937332771E+02  0.93937332771E+02  0.00000000000E+00 0.  1.
         23    2    1    2    0    0 -0.26955756049E+02  0.29327127011E+02  0.23586365271E+03  0.25550879861E+03  0.89813085551E+02 0.  0.
         23    2    1    2    0    0  0.43390219974E+02 -0.40812650963E+02  0.35649568085E+03  0.37263254275E+03  0.90650194598E+02 0.  0.
        -13    1    3    3    0    0 -0.49202501206E+02  0.46816095851E+02  0.18817576287E+03  0.20005686863E+03  0.00000000000E+00 0.  1.
         13    1    3    3    0    0  0.22246745157E+02 -0.17488968840E+02  0.47687889843E+02  0.55451929983E+02  0.00000000000E+00 0. -1.
        -13    1    4    4    0    0 -0.22602453230E+02 -0.90160796726E+01  0.33326987000E+02  0.41265586718E+02  0.00000000000E+00 0.  1.
         13    1    4    4    0    0  0.65992673204E+02 -0.31796571291E+02  0.32316869385E+03  0.33136695603E+03  0.00000000000E+00 0. -1.
         21    1    1    2  503  501  0.71268361623E+01  0.61892162053E+02 -0.50175876345E+02  0.79994062806E+02  0.00000000000E+00 0.  1.
          3    1    1    2  501    0 -0.23561300087E+02 -0.50406638100E+02  0.59649500700E+02  0.81572219291E+02  0.00000000000E+00 0. -1.
<scales pt_clust_5="13000.00000" pt_clust_6="13000.00000" pt_clust_7="13000.00000" pt_clust_8="13000.00000" pt_clust_9="62.30114" pt_clust_10="13000.00000"></scales>
<clustering>
<clus scale="   62.301">  2  9  1 -1</clus>
<clus scale="   89.813">  5  6 -1 -1</clus>
<clus scale="   90.650">  7  8 -1 -1</clus>
<clus scale="   34.031">  7 10 -1 -1</clus>
<clus scale="  105.868">  1  5  2 -1</clus>
<clus scale="   62.301">  2  5  1 -1</clus>
</clustering>
</event>
<event>
10    2  0.4951045E-006  0.3549248E+03  0.7546771E-02  0.1084935E+00
          2   -1    0    0  502    0 -0.00000000000E+00  0.00000000000E+00  0.69459147183E+03  0.69459147183E+03  0.00000000000E+00 0. -1.
         21   -1    0    0  503  502  0.00000000000E+00 -0.00000000000E+00 -0.25319820860E+03  0.25319820860E+03  0.00000000000E+00 0. -1.
         23    2    1    2    0    0  0.26857517571E+02  0.14205979434E+03  0.55255486194E+02  0.18151290308E+03  0.94823276739E+02 0.  0.
         23    2    1    2    0    0 -0.64999840158E+02 -0.47040406806E+01  0.43317862137E+03  0.44761137757E+03  0.92006087294E+02 0.  0.
        -13    1    3    3    0    0  0.12661953971E+01  0.14682577822E+03  0.48243515652E+02  0.15455370977E+03  0.00000000000E+00 0. -1.
         13    1    3    3    0    0  0.25591322174E+02 -0.47659838820E+01  0.70119705423E+01  0.26959193309E+02  0.00000000000E+00 0.  1.
        -13    1    4    4    0    0 -0.56585231959E+02  0.38638204305E+02  0.25521838996E+03  0.26425598551E+03  0.00000000000E+00 0. -1.
         13    1    4    4    0    0 -0.84146081995E+01 -0.43342244986E+02  0.17796023142E+03  0.18335539206E+03  0.00000000000E+00 0.  1.
         21    1    1    2  503  501  0.36179664113E+01  0.21491602015E+02 -0.13300510122E+03  0.13477883954E+03  0.00000000000E+00 0. -1.
          2    1    1    2  501    0  0.34524356175E+02 -0.15884735567E+03  0.85964256887E+02  0.18388656024E+03  0.00000000000E+00 0. -1.
<scales pt_clust_5="13000.00000" pt_clust_6="13000.00000" pt_clust_7="13000.00000" pt_clust_8="13000.00000" pt_clust_9="21.79400" pt_clust_10="13000.00000"></scales>
<clustering>
<clus scale="   21.794">  2  9  1 -1</clus>
<clus scale="   92.006">  7  8 -1 -1</clus>
<clus scale="   94.823">  5  6 -1 -1</clus>
<clus scale="  154.289">  7 10 -1 -1</clus>
<clus scale="  182.649">  1  5  2 -1</clus>
<clus scale="   21.794">  2  5  1 -1</clus>
</clustering>
</event>
<event>
10    2  0.4951045E-006  0.4659150E+03  0.7546771E-02  0.1023447E+00
         21   -1    0    0  503  502  0.00000000000E+00  0.00000000000E+00  0.13891891848E+03  0.13891891848E+03  0.00000000000E+00 0. -1.
          2   -1    0    0  502    0 -0.00000000000E+00 -0.00000000000E+00 -0.18127738871E+04  0.18127738871E+04  0.00000000000E+00 0. -1.
         23    2    1    2    0    0 -0.31547349378E+03  0.34920226001E+03 -0.70717399346E+03  0.85461248977E+03  0.93817412868E+02 0.  0.
         23    2    1    2    0    0  0.21515872032E+03 -0.25258948152E+03 -0.67607604137E+03  0.75851295364E+03  0.90379013183E+02 0.  0.
        -11    1    4    4    0    0  0.44376653907E+02 -0.88075566394E+02 -0.28018709997E+03  0.29703771443E+03  0.00000000000E+00 0.  1.
         11    1    4    4    0    0  0.17078206641E+03 -0.16451391513E+03 -0.39588894141E+03  0.46147523921E+03  0.00000000000E+00 0. -1.
        -11    1    3    3    0    0 -0.14538560232E+03  0.96283835026E+02 -0.27972590520E+03  0.32962726266E+03  0.00000000000E+00 0.  1.
         11    1    3    3    0    0 -0.17008789147E+03  0.25291842499E+03 -0.42744808826E+03  0.52498522711E+03  0.00000000000E+00 0. -1.
         21    1    1    2  503  501  0.49416422753E+02 -0.12389849210E+01 -0.33652338155E+02  0.59799647028E+02  0.00000000000E+00 0. -1.
          2    1    1    2  501    0  0.50898350715E+02 -0.95373793571E+02 -0.25695259566E+03  0.27876771517E+03  0.00000000000E+00 0. -1.
<scales pt_clust_5="13000.00000" pt_clust_6="13000.00000" pt_clust_7="13000.00000" pt_clust_8="13000.00000" pt_clust_9="49.43195" pt_clust_10="13000.00000"></scales>
<clustering>
<clus scale="   49.432">  1  9  2 -1</clus>
<clus scale="   90.379">  5  6 -1 -1</clus>
<clus scale="   93.817">  7  8 -1 -1</clus>
<clus scale="  110.280">  5 10 -1 -1</clus>
<clus scale="  460.798">  2  7  1 -1</clus>
<clus scale="   49.432">  1  5  2 -1</clus>
</clustering>
</event>
<event>
10    2  0.4951045E-006  0.2121770E+03  0.7546771E-02  0.1152958E+00
         21   -1    0    0  503  502  0.00000000000E+00  0.00000000000E+00  0.12120957610E+03  0.12120957610E+03  0.00000000000E+00 0.  1.
          1   -1    0    0  502    0 -0.00000000000E+00 -0.00000000000E+00 -0.44876929991E+03  0.44876929991E+03  0.00000000000E+00 0. -1.
         23    2    1    2    0    0  0.65537904408E+02 -0.10013228879E+03 -0.10709089121E+03  0.18492560539E+03  0.91691484762E+02 0.  0.
         23    2    1    2    0    0 -0.20960684766E+02  0.37262898536E+02 -0.21551262608E+03  0.23856090571E+03  0.92939441692E+02 0.  0.
        -11    1    4    4    0    0 -0.50485085815E+02 -0.35339629385E+01 -0.88818946951E+02  0.10222542796E+03  0.00000000000E+00 0. -1.
         11    1    4    4    0    0  0.29524401049E+02  0.40796861475E+02 -0.12669367913E+03  0.13633547775E+03  0.00000000000E+00 0.  1.
        -13    1    3    3    0    0 -0.20946570480E+01 -0.76792404964E+02 -0.38987064767E+02  0.86147851207E+02  0.00000000000E+00 0.  1.
         13    1    3    3    0    0  0.67632561456E+02 -0.23339883824E+02 -0.68103826444E+02  0.98777754188E+02  0.00000000000E+00 0. -1.
         21    1    1    2  503  501 -0.12066783880E+02 -0.20186886792E+02  0.40159202272E+02  0.46539007281E+02  0.00000000000E+00 0.  1.
          1    1    1    2  501    0 -0.32510435762E+02  0.83056277044E+02 -0.45115408793E+02  0.99953357624E+02  0.00000000000E+00 0. -1.
<scales pt_clust_5="13000.00000" pt_clust_6="13000.00000" pt_clust_7="13000.00000" pt_clust_8="13000.00000" pt_clust_9="23.51845" pt_clust_10="13000.00000"></scales>
<clustering>
<clus scale="   23.518">  1  9  2 -1</clus>
<clus scale="   91.691">  7  8 -1 -1</clus>
<clus scale="   92.939">  5  6 -1 -1</clus>
<clus scale="   84.376">  5 10 -1 -1</clus>
<clus scale="  155.233">  2  7  1 -1</clus>
<clus scale="   23.518">  1  5  2 -1</clus>
</clustering>
</event>
<event>
10    2  0.4951045E-006  0.1836152E+03  0.7546771E-02  0.1172822E+00
         21   -1    0    0  501  502  0.00000000000E+00  0.00000000000E+00  0.15349755599E+03  0.15349755599E+03  0.00000000000E+00 0. -1.
         -4   -1    0    0    0  501 -0.00000000000E+00 -0.00000000000E+00 -0.25571818016E+03  0.25571818016E+03  0.00000000000E+00 0.  1.
         23    2    1    2    0    0  0.11817823237E+03  0.21141044571E+02 -0.60302955863E+02  0.16049543542E+03  0.87802619174E+02 0.  0.
         23    2    1    2    0    0 -0.41169116626E+02 -0.41475194739E+02 -0.51159742119E+02  0.11922579214E+03  0.90456521900E+02 0.  0.
        -11    1    3    3    0    0  0.10217920741E+03 -0.58636431731E+01 -0.12220001682E+02  0.10307425080E+03  0.00000000000E+00 0. -1.
         11    1    3    3    0    0  0.15999024958E+02  0.27004687744E+02 -0.48082954181E+02  0.57421184614E+02  0.00000000000E+00 0.  1.
        -13    1    4    4    0    0 -0.23993744015E+02  0.24265373484E+02  0.78257210893E-01  0.34124979508E+02  0.00000000000E+00 0.  1.
         13    1    4    4    0    0 -0.17175372611E+02 -0.65740568223E+02 -0.51237999330E+02  0.85100812628E+02  0.00000000000E+00 0. -1.
         21    1    1    2  503  502 -0.59487887559E+01  0.51228599002E+02  0.62606477113E+01  0.51951449962E+02  0.00000000000E+00 0.  1.
         -4    1    1    2    0  503 -0.71060326983E+02 -0.30894448834E+02  0.29814261042E+01  0.77543058628E+02  0.00000000000E+00 0.  1.
<scales pt_clust_5="13000.00000" pt_clust_6="13000.00000" pt_clust_7="13000.00000" pt_clust_8="13000.00000" pt_clust_9="51.57284" pt_clust_10="13000.00000"></scales>
<clustering>
<clus scale="   51.573">  1  9  2 -1</clus>
<clus scale="   87.803">  5  6 -1 -1</clus>
<clus scale="   90.457">  7  8 -1 -1</clus>
<clus scale="   74.376">  7 10 -1 -1</clus>
<clus scale="  151.195">  2  5  1 -1</clus>
<clus scale="   51.573">  1  5  2 -1</clus>
</clustering>
</event>
<event>
10    2  0.4951045E-006  0.4983720E+03  0.7546771E-02  0.1067255E+00
         21   -1    0    0  503  502  0.00000000000E+00  0.00000000000E+00  0.14957633445E+04  0.14957633445E+04  0.00000000000E+00 0.  1.
          1   -1    0    0  502    0 -0.00000000000E+00 -0.00000000000E+00 -0.52788884662E+03  0.52788884662E+03  0.00000000000E+00 0. -1.
         23    2    1    2    0    0  0.37023003891E+02 -0.40475074316E+02 -0.24634534885E+03  0.26841977188E+03  0.91401359836E+02 0.  0.
         23    2    1    2    0    0 -0.16750870155E+02  0.46804488283E+02 -0.29907771570E+02  0.11015092695E+03  0.93634930088E+02 0.  0.
        -13    1    4    4    0    0 -0.33745714100E+02  0.14985925546E+02  0.24901747704E+02  0.44535920596E+02  0.00000000000E+00 0.  1.
         13    1    4    4    0    0  0.16994843945E+02  0.31818562737E+02 -0.54809519274E+02  0.65615006351E+02  0.00000000000E+00 0. -1.
        -13    1    3    3    0    0  0.67976871338E+01 -0.60022536138E+02 -0.92922824063E+02  0.11083124391E+03  0.00000000000E+00 0.  1.
         13    1    3    3    0    0  0.30225316757E+02  0.19547461822E+02 -0.15342252479E+03  0.15758852797E+03  0.00000000000E+00 0. -1.
         21    1    1    2  503  501 -0.21823880681E+03 -0.35020142560E+03  0.11710496235E+04  0.12416225014E+04  0.00000000000E+00 0.  1.
          1    1    1    2  501    0  0.19796667307E+03  0.34387201163E+03  0.73077994836E+02  0.40345899092E+03  0.00000000000E+00 0. -1.
<scales pt_clust_5="13000.00000" pt_clust_6="13000.00000" pt_clust_7="13000.00000" pt_clust_8="13000.00000" pt_clust_9="414.62084" pt_clust_10="13000.00000"></scales>
<clustering>
<clus scale="   91.401">  7  8 -1 -1</clus>
<clus scale="   93.635">  5  6 -1 -1</clus>
<clus scale="  106.598">  2  7  1 -1</clus>
<clus scale="  387.961">  5 10 -1 -1</clus>
<clus scale="  414.621">  1  9  2 -1</clus>
<clus scale="  414.621">  1  5  2 -1</clus>
</clustering>
</event>
<event>
10    2  0.4951045E-006  0.4765278E+03  0.7546771E-02  0.1078076E+00
         21   -1    0    0  501  502  0.00000000000E+00  0.00000000000E+00  0.70193583218E+03  0.70193583218E+03  0.00000000000E+00 0.  1.
         -3   -1    0    0    0  501 -0.00000000000E+00 -0.00000000000E+00 -0.24600032713E+03  0.24600032713E+03  0.00000000000E+00 0.  1.
         23    2    1    2    0    0 -0.73687044615E+01  0.23053203905E+02  0.22089808511E+03  0.23973912233E+03  0.89961851664E+02 0.  0.
         23    2    1    2    0    0  0.98959205967E+02  0.23556075670E+02 -0.18884472392E+03  0.23837906144E+03  0.10399247106E+03 0.  0.
        -11    1    4    4    0    0  0.26968726189E+02 -0.25834615927E+02 -0.89275981807E+01  0.38398458063E+02  0.00000000000E+00 0. -1.
         11    1    4    4    0    0  0.71990479779E+02  0.49390691597E+02 -0.17991712574E+03  0.19998060338E+03  0.00000000000E+00 0.  1.
        -13    1    3    3    0    0 -0.35271742742E+02  0.34158147416E+02  0.19157066498E+03  0.19776297569E+03  0.00000000000E+00 0. -1.
         13    1    3    3    0    0  0.27903038280E+02 -0.11104943510E+02  0.29327420126E+02  0.41976146642E+02  0.00000000000E+00 0.  1.
         21    1    1    2  503  502  0.29108823581E+02 -0.68354147163E+02  0.21641395162E+03  0.22881130108E+03  0.00000000000E+00 0.  1.
         -3    1    1    2    0  503 -0.12069932509E+03  0.21744867588E+02  0.20746819224E+03  0.24100667446E+03  0.00000000000E+00 0.  1.
<scales pt_clust_5="13000.00000" pt_clust_6="13000.00000" pt_clust_7="13000.00000" pt_clust_8="13000.00000" pt_clust_9="74.29410" pt_clust_10="13000.00000"></scales>
<clustering>
<clus scale="   74.294">  1  9  2 -1</clus>
<clus scale="   89.962">  7  8 -1 -1</clus>
<clus scale="   90.735">  2  7  1 -1</clus>
<clus scale="  103.992">  5  6 -1 -1</clus>
<clus scale="  107.156">  5 10 -1 -1</clus>
<clus scale="   74.294">  1  5  2 -1</clus>
</clustering>
</event>
<event>
10    2  0.4951045E-006  0.3158463E+03  0.7546771E-02  0.1112800E+00
          2   -1    0    0  503    0 -0.00000000000E+00  0.00000000000E+00  0.61123794225E+03  0.61123794225E+03  0.00000000000E+00 0. -1.
         21   -1    0    0  501  502  0.00000000000E+00 -0.00000000000E+00 -0.15938685177E+03  0.15938685177E+03  0.00000000000E+00 0. -1.
         23    2    1    2    0    0 -0.77155766031E+02  0.36693166390E+02  0.36208291765E+03  0.38303840284E+03  0.91186501754E+02 0.  0.
         23    2    1    2    0    0 -0.89870244515E+02 -0.52978301115E+01  0.22508431157E+02  0.12907834892E+03  0.89721027825E+02 0.  0.
        -13    1    4    4    0    0 -0.11175463729E+02  0.30001746287E+02 -0.14596969119E+02  0.35186180203E+02  0.00000000000E+00 0.  1.
         13    1    4    4    0    0 -0.78694780786E+02 -0.35299576399E+02  0.37105400277E+02  0.93892168718E+02  0.00000000000E+00 0. -1.
        -13    1    3    3    0    0 -0.47050833085E+01  0.49898881631E+02  0.17321304228E+03  0.18031859087E+03  0.00000000000E+00 0.  1.
         13    1    3    3    0    0 -0.72450682723E+02 -0.13205715241E+02  0.18886987537E+03  0.20271981197E+03  0.00000000000E+00 0. -1.
         21    1    1    2  503  502 -0.20878654073E+02 -0.21019468352E+02 -0.33761191490E+02  0.44917193774E+02  0.00000000000E+00 0. -1.
          2    1    1    2  501    0  0.18790466462E+03 -0.10375867927E+02  0.10102093316E+03  0.21359084849E+03  0.00000000000E+00 0. -1.
<scales pt_clust_5="13000.00000" pt_clust_6="13000.00000" pt_clust_7="13000.00000" pt_clust_8="13000.00000" pt_clust_9="29.62661" pt_clust_10="13000.00000"></scales>
<clustering>
<clus scale="   29.627">  2  9  1 -1</clus>
<clus scale="   89.721">  5  6 -1 -1</clus>
<clus scale="   91.187">  7  8 -1 -1</clus>
<clus scale="  125.569">  1  7  2 -1</clus>
<clus scale="  129.307">  5 10 -1 -1</clus>
<clus scale="   29.627">  2  5  1 -1</clus>
</clustering>
</event>
<event>
10    2  0.4951045E-006  0.2427532E+03  0.7546771E-02  0.1155609E+00
         -2   -1    0    0    0  501 -0.00000000000E+00  0.00000000000E+00  0.35106207653E+03  0.35106207653E+03  0.00000000000E+00 0.  1.
         21   -1    0    0  501  502  0.00000000000E+00 -0.00000000000E+00 -0.12717502806E+03  0.12717502806E+03  0.00000000000E+00 0.  1.
         23    2    1    2    0    0 -0.16080651886E+02 -0.29441969980E+02  0.85328275674E+02  0.12909665164E+03  0.90882417842E+02 0.  0.
         23    2    1    2    0    0  0.17537842498E+02 -0.35966248569E+02  0.21109212289E+03  0.23312404153E+03  0.90475341582E+02 0.  0.
        -11    1    3    3    0    0 -0.43429363874E+02 -0.35717745514E+02  0.83900525721E+02  0.10100081786E+03  0.00000000000E+00 0.  1.
         11    1    3    3    0    0  0.27348711988E+02  0.62757755339E+01  0.14277499522E+01  0.28095833781E+02  0.00000000000E+00 0. -1.
        -13    1    4    4    0    0 -0.12804567871E+02  0.26489475218E+02  0.66920143605E+02  0.73102358894E+02  0.00000000000E+00 0.  1.
         13    1    4    4    0    0  0.30342410369E+02 -0.62455723787E+02  0.14417197929E+03  0.16002168263E+03  0.00000000000E+00 0. -1.
         21    1    1    2  503  502 -0.25247086198E+02  0.10597898992E+02 -0.38528761407E+02  0.47267285516E+02  0.00000000000E+00 0.  1.
         -2    1    1    2    0  503  0.23789895586E+02  0.54810319557E+02 -0.34004588690E+02  0.68749125914E+02  0.00000000000E+00 0.  1.
<scales pt_clust_5="13000.00000" pt_clust_6="13000.00000" pt_clust_7="13000.00000" pt_clust_8="13000.00000" pt_clust_9="27.38121" pt_clust_10="13000.00000"></scales>
<clustering>
<clus scale="   27.381">  2  9  1 -1</clus>
<clus scale="   90.475">  7  8 -1 -1</clus>
<clus scale="   61.844">  7 10 -1 -1</clus>
<clus scale="   90.882">  5  6 -1 -1</clus>
<clus scale="   97.388">  1  5  2 -1</clus>
<clus scale="   27.381">  2  5  1 -1</clus>
</clustering>
</event>
<event>
10    2  0.4951045E-006  0.2966917E+03  0.7546771E-02  0.1128555E+00
         21   -1    0    0  503  502  0.00000000000E+00  0.00000000000E+00  0.31702390413E+03  0.31702390413E+03  0.00000000000E+00 0.  1.
         -2   -1    0    0    0  501 -0.00000000000E+00 -0.00000000000E+00 -0.15639216030E+03  0.15639216030E+03  0.00000000000E+00 0.  1.
         23    2    1    2    0    0 -0.33549883683E+01  0.59930047522E+02 -0.10687030109E+02  0.10248188875E+03  0.82373893723E+02 0.  0.
         23    2    1    2    0    0  0.99186273031E+02 -0.20127435863E+02 -0.33496921977E+02  0.14018392456E+03  0.91029986760E+02 0.  0.
        -11    1    3    3    0    0  0.27513529809E+02  0.82644739734E+01  0.19922968406E+02  0.34960270633E+02  0.00000000000E+00 0.  1.
         11    1    3    3    0    0 -0.30868518177E+02  0.51665573549E+02 -0.30609998515E+02  0.67521618121E+02  0.00000000000E+00 0. -1.
        -13    1    4    4    0    0  0.11702773092E+02 -0.43728314613E+02 -0.72177172118E+01  0.45839020917E+02  0.00000000000E+00 0.  1.
         13    1    4    4    0    0  0.87483499940E+02  0.23600878749E+02 -0.26279204765E+02  0.94344903638E+02  0.00000000000E+00 0. -1.
         21    1    1    2  503  501 -0.20234844998E+02  0.11630854839E+01  0.41360863501E+02  0.46059990767E+02  0.00000000000E+00 0.  1.
         -2    1    1    2    0  502 -0.75596439665E+02 -0.40965697143E+02  0.16345483241E+03  0.18469026036E+03  0.00000000000E+00 0.  1.
<scales pt_clust_5="13000.00000" pt_clust_6="13000.00000" pt_clust_7="13000.00000" pt_clust_8="13000.00000" pt_clust_9="20.26824" pt_clust_10="13000.00000"></scales>
<clustering>
<clus scale="   20.268">  1  9  2 -1</clus>
<clus scale="   82.374">  5  6 -1 -1</clus>
<clus scale="   91.030">  7  8 -1 -1</clus>
<clus scale="   97.198">  7 10 -1 -1</clus>
<clus scale="  102.206">  2  5  1 -1</clus>
<clus scale="   20.268">  1  5  2 -1</clus>
</clustering>
</event>
<event>
10    2  0.4951045E-006  0.4880578E+03  0.7546771E-02  0.1069185E+00
         21   -1    0    0  501  502  0.00000000000E+00  0.00000000000E+00  0.16301818198E+03  0.16301818198E+03  0.00000000000E+00 0. -1.
          1   -1    0    0  503    0 -0.00000000000E+00 -0.00000000000E+00 -0.20183806236E+04  0.20183806236E+04  0.00000000000E+00 0. -1.
         23    2    1    2    0    0 -0.10960714844E+02 -0.38968167725E+01 -0.60672327322E+03  0.61619459739E+03  0.10699219189E+03 0.  0.
         23    2    1    2    0    0 -0.10500538286E+03 -0.12942665400E+03 -0.26499701740E+03  0.32584502974E+03  0.90411144112E+02 0.  0.
        -11    1    3    3    0    0 -0.57587382438E+02 -0.15093730861E+02 -0.32045971538E+03  0.32594256628E+03  0.00000000000E+00 0.  1.
         11    1    3    3    0    0  0.46626667594E+02  0.11196914089E+02 -0.28626355784E+03  0.29025203111E+03  0.00000000000E+00 0. -1.
        -13    1    4    4    0    0 -0.62494755141E+02 -0.11209306239E+03 -0.24328702328E+03  0.27506185623E+03  0.00000000000E+00 0.  1.
         13    1    4    4    0    0 -0.42510627714E+02 -0.17333591604E+02 -0.21709994119E+02  0.50783173504E+02  0.00000000000E+00 0. -1.
         21    1    1    2  503  502  0.19131002031E+03  0.41786646536E+03 -0.60544607659E+03  0.76011634531E+03  0.00000000000E+00 0. -1.
          1    1    1    2  501    0 -0.75343922610E+02 -0.28454299459E+03 -0.37819607443E+03  0.47924283319E+03  0.00000000000E+00 0. -1.
<scales pt_clust_5="13000.00000" pt_clust_6="13000.00000" pt_clust_7="13000.00000" pt_clust_8="13000.00000" pt_clust_9="455.66243" pt_clust_10="13000.00000"></scales>
<clustering>
<clus scale="   90.411">  7  8 -1 -1</clus>
<clus scale="  106.992">  5  6 -1 -1</clus>
<clus scale="  107.623">  2  5  1 -1</clus>
<clus scale="  296.367">  7 10 -1 -1</clus>
<clus scale="  455.662">  1  9  2 -1</clus>
<clus scale="  455.662">  1  5  2 -1</clus>
</clustering>
</event>
<event>
10    2  0.4951045E-006  0.2394999E+03  0.7546771E-02  0.1149140E+00
          1   -1    0    0  502    0 -0.00000000000E+00  0.00000000000E+00  0.12889685215E+04  0.12889685215E+04  0.00000000000E+00 0. -1.
         21   -1    0    0  503  502  0.00000000000E+00 -0.00000000000E+00 -0.67689299086E+02  0.67689299086E+02  0.00000000000E+00 0.  1.
         23    2    1    2    0    0 -0.14069731977E+03 -0.68165892457E+02  0.39271151115E+03  0.43196926038E+03  0.89066190197E+02 0.  0.
         23    2    1    2    0    0  0.93676407759E+02 -0.24650058845E+01  0.29320740117E+03  0.32101088337E+03  0.91082717974E+02 0.  0.
        -11    1    4    4    0    0  0.38257890557E+02 -0.25361170420E+02  0.22738431340E+03  0.23197086268E+03  0.00000000000E+00 0. -1.
         11    1    4    4    0    0  0.55418517202E+02  0.22896164536E+02  0.65823087779E+02  0.89040020687E+02  0.00000000000E+00 0.  1.
        -11    1    3    3    0    0 -0.90778254425E+02 -0.15163610545E+02  0.12950382636E+03  0.15887689449E+03  0.00000000000E+00 0.  1.
         11    1    3    3    0    0 -0.49919065345E+02 -0.53002281912E+02  0.26320768479E+03  0.27309236589E+03  0.00000000000E+00 0. -1.
         21    1    1    2  503  501  0.13632842741E+03  0.83402215007E+02  0.19793697285E+03  0.25440207312E+03  0.00000000000E+00 0.  1.
          1    1    1    2  501    0 -0.89307515401E+02 -0.12771316666E+02  0.33742333726E+03  0.34927560374E+03  0.00000000000E+00 0. -1.
<scales pt_clust_5="13000.00000" pt_clust_6="13000.00000" pt_clust_7="13000.00000" pt_clust_8="13000.00000" pt_clust_9="159.81667" pt_clust_10="13000.00000"></scales>
<clustering>
<clus scale="   89.066">  7  8 -1 -1</clus>
<clus scale="   91.083">  5  6 -1 -1</clus>
<clus scale="   90.216">  5 10 -1 -1</clus>
<clus scale="  159.817">  2  9  1 -1</clus>
<clus scale="  118.133">  1  7  2 -1</clus>
<clus scale="  159.817">  2  5  1 -1</clus>
</clustering>
</event>
<event>
10    2  0.4951045E-006  0.6091342E+03  0.7546771E-02  0.9999198E-01
          1   -1    0    0  503    0 -0.00000000000E+00  0.00000000000E+00  0.22757802732E+04  0.22757802732E+04  0.00000000000E+00 0. -1.
         21   -1    0    0  501  502  0.00000000000E+00 -0.00000000000E+00 -0.25531105252E+03  0.25531105252E+03  0.00000000000E+00 0. -1.
         23    2    1    2    0    0  0.39788165271E+03  0.13131423727E+03  0.11906301675E+04  0.12654486039E+04  0.90591031053E+02 0.  0.
         23    2    1    2    0    0 -0.23407198784E+02 -0.65154721695E+02  0.22632136812E+03  0.25412560252E+03  0.92549583863E+02 0.  0.
        -13    1    4    4    0    0 -0.10790358689E+02  0.22939998002E+02  0.66973453294E+02  0.71610884613E+02  0.00000000000E+00 0.  1.
         13    1    4    4    0    0 -0.12616840095E+02 -0.88094719697E+02  0.15934791483E+03  0.18251471791E+03  0.00000000000E+00 0. -1.
        -13    1    3    3    0    0  0.20832179218E+02  0.17405921884E+02  0.33501180000E+02  0.43119309700E+02  0.00000000000E+00 0.  1.
         13    1    3    3    0    0  0.37704947350E+03  0.11390831539E+03  0.11571289875E+04  0.12223292942E+04  0.00000000000E+00 0. -1.
         21    1    1    2  503  502  0.39323391430E+02 -0.21382875204E+03  0.52091034398E+03  0.56446138112E+03  0.00000000000E+00 0. -1.
          1    1    1    2  501    0 -0.41379784536E+03  0.14766923646E+03  0.82607341075E+02  0.44705573816E+03  0.00000000000E+00 0. -1.
<scales pt_clust_5="13000.00000" pt_clust_6="13000.00000" pt_clust_7="13000.00000" pt_clust_8="13000.00000" pt_clust_9="217.41461" pt_clust_10="13000.00000"></scales>
<clustering>
<clus scale="   90.591">  7  8 -1 -1</clus>
<clus scale="   92.550">  5  6 -1 -1</clus>
<clus scale="  217.415">  2  9  1 -1</clus>
<clus scale="  383.594">  5 10 -1 -1</clus>
<clus scale="  425.429">  1  7  2 -1</clus>
<clus scale="  217.415">  2  5  1 -1</clus>
</clustering>
</event>
<event>
10    2  0.4951045E-006  0.3101594E+03  0.7546771E-02  0.1128144E+00
         21   -1    0    0  501  502  0.00000000000E+00  0.00000000000E+00  0.10690724271E+04  0.10690724271E+04  0.00000000000E+00 0. -1.
          1   -1    0    0  503    0 -0.00000000000E+00 -0.00000000000E+00 -0.79745585395E+02  0.79745585395E+02  0.00000000000E+00 0. -1.
         23    2    1    2    0    0  0.25622929766E+01  0.10562087535E+02 -0.11357797600E+02  0.91189377891E+02  0.89824161757E+02 0.  0.
         23    2    1    2    0    0 -0.13443553791E+03  0.35801189192E+01  0.54228223420E+03  0.56796771408E+03  0.10213506551E+03 0.  0.
        -11    1    3    3    0    0 -0.15775777641E+02  0.38353309812E+02  0.19469253659E+02  0.45813790192E+02  0.00000000000E+00 0.  1.
         11    1    3    3    0    0  0.18338070618E+02 -0.27791222277E+02 -0.30827051260E+02  0.45375587699E+02  0.00000000000E+00 0. -1.
        -13    1    4    4    0    0 -0.21744287273E+02 -0.19585627170E+01  0.10277543269E+02  0.24130434985E+02  0.00000000000E+00 0.  1.
         13    1    4    4    0    0 -0.11269125063E+03  0.55386816363E+01  0.53200469093E+03  0.54383727910E+03  0.00000000000E+00 0. -1.
         21    1    1    2  503  502 -0.41761283321E+01 -0.20653607312E+02  0.16315886135E+03  0.16451390695E+03  0.00000000000E+00 0. -1.
          1    1    1    2  501    0  0.13604937326E+03  0.65114008577E+01  0.29524354376E+03  0.32514701358E+03  0.00000000000E+00 0. -1.
<scales pt_clust_5="13000.00000" pt_clust_6="13000.00000" pt_clust_7="13000.00000" pt_clust_8="13000.00000" pt_clust_9="21.07158" pt_clust_10="13000.00000"></scales>
<clustering>
<clus scale="   21.072">  1  9  2 -1</clus>
<clus scale="   89.824">  5  6 -1 -1</clus>
<clus scale="   90.372">  2  5  1 -1</clus>
<clus scale="  102.135">  7  8 -1 -1</clus>
<clus scale="  135.931">  7 10 -1 -1</clus>
<clus scale="   21.072">  1  5  2 -1</clus>
</clustering>
</event>
<event>
10    2  0.4951045E-006  0.1269201E+03  0.7546771E-02  0.1246661E+00
         21   -1    0    0  501  502  0.00000000000E+00  0.00000000000E+00  0.25396506219E+02  0.25396506219E+02  0.00000000000E+00 0.  1.
          2   -1    0    0  503    0 -0.00000000000E+00 -0.00000000000E+00 -0.64280353378E+03  0.64280353378E+03  0.00000000000E+00 0. -1.
         23    2    1    2    0    0 -0.12556450614E+02 -0.15169394206E+02 -0.21115752109E+03  0.23100490324E+03  0.91585979472E+02 0.  0.
         23    2    1    2    0    0  0.19706352135E+02  0.14067109553E+02 -0.24854060728E+03  0.26632310303E+03  0.92570718138E+02 0.  0.
        -13    1    4    4    0    0  0.11206163571E+01 -0.37415802032E+02 -0.67442916044E+02  0.77134589823E+02  0.00000000000E+00 0. -1.
         13    1    4    4    0    0  0.18585735778E+02  0.51482911585E+02 -0.18109769124E+03  0.18918851321E+03  0.00000000000E+00 0.  1.
        -13    1    3    3    0    0 -0.52243140226E+02 -0.12494791702E+02 -0.12844854882E+03  0.13922821271E+03  0.00000000000E+00 0. -1.
         13    1    3    3    0    0  0.39686689612E+02 -0.26746025038E+01 -0.82708972268E+02  0.91776690529E+02  0.00000000000E+00 0.  1.
         21    1    1    2  503  502  0.17212898608E+02 -0.14987637158E+02 -0.20783728144E+02  0.30868697764E+02  0.00000000000E+00 0.  1.
          2    1    1    2  501    0 -0.24362800129E+02  0.16089921810E+02 -0.13692517105E+03  0.14000333596E+03  0.00000000000E+00 0. -1.
<scales pt_clust_5="13000.00000" pt_clust_6="13000.00000" pt_clust_7="13000.00000" pt_clust_8="13000.00000" pt_clust_9="22.82352" pt_clust_10="13000.00000"></scales>
<clustering>
<clus scale="   22.824">  1  9  2 -1</clus>
<clus scale="   91.586">  7  8 -1 -1</clus>
<clus scale="   92.571">  5  6 -1 -1</clus>
<clus scale="   27.487">  5 10 -1 -1</clus>
<clus scale="   94.396">  2  7  1 -1</clus>
<clus scale="   22.824">  1  5  2 -1</clus>
</clustering>
</event>
<event>
10    2  0.4951045E-006  0.2285683E+03  0.7546771E-02  0.1163693E+00
          1   -1    0    0  503    0 -0.00000000000E+00  0.00000000000E+00  0.28918975614E+03  0.28918975614E+03  0.00000000000E+00 0. -1.
         21   -1    0    0  501  502  0.00000000000E+00 -0.00000000000E+00 -0.18003974260E+03  0.18003974260E+03  0.00000000000E+00 0.  1.
         23    2    1    2    0    0 -0.28033646066E+02  0.33258103923E+01  0.12009893258E+03  0.15284221808E+03  0.90222190696E+02 0.  0.
         23    2    1    2    0    0  0.10780663625E+02  0.53765965598E+02  0.62502242376E+02  0.12973983241E+03  0.99593634573E+02 0.  0.
        -11    1    3    3    0    0  0.14024366805E+02 -0.32231705735E+02  0.70271305694E+02  0.78572400516E+02  0.00000000000E+00 0. -1.
         11    1    3    3    0    0 -0.42058012871E+02  0.35557516128E+02  0.49827626886E+02  0.74269817563E+02  0.00000000000E+00 0.  1.
        -13    1    4    4    0    0 -0.81010373081E+01  0.79272343688E+02  0.55868456276E+02  0.97319143471E+02  0.00000000000E+00 0.  1.
         13    1    4    4    0    0  0.18881700933E+02 -0.25506378090E+02  0.66337861004E+01  0.32420688941E+02  0.00000000000E+00 0. -1.
         21    1    1    2  503  502 -0.40151046144E+02  0.37052702100E+02 -0.49688410623E+02  0.73850845558E+02  0.00000000000E+00 0.  1.
          1    1    1    2  501    0  0.57404028585E+02 -0.94144478089E+02 -0.23762750796E+02  0.11279660269E+03  0.00000000000E+00 0. -1.
<scales pt_clust_5="13000.00000" pt_clust_6="13000.00000" pt_clust_7="13000.00000" pt_clust_8="13000.00000" pt_clust_9="54.63524" pt_clust_10="13000.00000"></scales>
<clustering>
<clus scale="   54.635">  2  9  1 -1</clus>
<clus scale="   90.222">  5  6 -1 -1</clus>
<clus scale="   96.643">  1  5  2 -1</clus>
<clus scale="   99.594">  7  8 -1 -1</clus>
<clus scale="   75.555">  7 10 -1 -1</clus>
<clus scale="   54.635">  2  5  1 -1</clus>
</clustering>
</event>
<event>
10    2  0.4951045E-006  0.1728465E+03  0.7546771E-02  0.1188692E+00
          3   -1    0    0  503    0 -0.00000000000E+00  0.00000000000E+00  0.55268782319E+03  0.55268782319E+03  0.00000000000E+00 0. -1.
         21   -1    0    0  501  502  0.00000000000E+00 -0.00000000000E+00 -0.15725706417E+03  0.15725706417E+03  0.00000000000E+00 0.  1.
         23    2    1    2    0    0 -0.93084938848E+02  0.24074034590E+02  0.43158004282E+03  0.45153370292E+03  0.91525878981E+02 0.  0.
         23    2    1    2    0    0  0.51334894804E+02 -0.40429055314E+01  0.67797299652E+02  0.12502917334E+03  0.91565298210E+02 0.  0.
        -11    1    3    3    0    0 -0.76472149471E+02  0.12562067563E+02  0.42219635219E+03  0.42924999125E+03  0.00000000000E+00 0. -1.
         11    1    3    3    0    0 -0.16612789377E+02  0.11511967027E+02  0.93836906363E+01  0.22283711668E+02  0.00000000000E+00 0.  1.
        -13    1    4    4    0    0 -0.51512814111E+01 -0.29549854434E+02 -0.39100161275E+01  0.30249261534E+02  0.00000000000E+00 0. -1.
         13    1    4    4    0    0  0.56486176215E+02  0.25506948902E+02  0.71707315779E+02  0.94779911806E+02  0.00000000000E+00 0.  1.
         21    1    1    2  503  502  0.58239956400E+02 -0.14018160899E+01 -0.78923039580E+02  0.98095381065E+02  0.00000000000E+00 0.  1.
          3    1    1    2  501    0 -0.16489912356E+02 -0.18629312969E+02 -0.25023543882E+02  0.35286630040E+02  0.00000000000E+00 0. -1.
<scales pt_clust_5="13000.00000" pt_clust_6="13000.00000" pt_clust_7="13000.00000" pt_clust_8="13000.00000" pt_clust_9="58.25682" pt_clust_10="13000.00000"></scales>
<clustering>
<clus scale="   58.257">  2  9  1 -1</clus>
<clus scale="   91.526">  5  6 -1 -1</clus>
<clus scale="   91.565">  7  8 -1 -1</clus>
<clus scale="   21.269">  7 10 -1 -1</clus>
<clus scale="  126.923">  1  5  2 -1</clus>
<clus scale="   58.257">  2  5  1 -1</clus>
</clustering>
</event>
<event>
10    2  0.4951045E-006  0.1773481E+03  0.7546771E-02  0.1179996E+00
          1   -1    0    0  503    0 -0.00000000000E+00  0.00000000000E+00  0.53661009012E+03  0.53661009012E+03  0.00000000000E+00 0. -1.
         21   -1    0    0  501  502  0.00000000000E+00 -0.00000000000E+00 -0.78745261964E+02  0.78745261964E+02  0.00000000000E+00 0.  1.
         23    2    1    2    0    0 -0.39539456668E+02  0.97004462862E+02  0.24672461234E+03  0.28297917165E+03  0.90724543549E+02 0.  0.
         23    2    1    2    0    0  0.15606400471E+02 -0.52927593390E+02  0.17472295259E+03  0.20627212555E+03  0.94737478000E+02 0.  0.
        -11    1    3    3    0    0 -0.58876319590E+02  0.74682006652E+02  0.23035386249E+03  0.24921220895E+03  0.00000000000E+00 0.  1.
         11    1    3    3    0    0  0.19336862922E+02  0.22322456210E+02  0.16370749848E+02  0.33766962693E+02  0.00000000000E+00 0. -1.
        -13    1    4    4    0    0  0.53867042330E+02 -0.30630522112E+02  0.12611673576E+03  0.14051803504E+03  0.00000000000E+00 0. -1.
         13    1    4    4    0    0 -0.38260641860E+02 -0.22297071278E+02  0.48606216834E+02  0.65754090504E+02  0.00000000000E+00 0.  1.
         21    1    1    2  503  502 -0.26127901205E+02  0.43829256457E+01 -0.22577811577E+02  0.34808545420E+02  0.00000000000E+00 0.  1.
          1    1    1    2  501    0  0.50060957403E+02 -0.48459795118E+02  0.58995074805E+02  0.91295509475E+02  0.00000000000E+00 0. -1.
<scales pt_clust_5="13000.00000" pt_clust_6="13000.00000" pt_clust_7="13000.00000" pt_clust_8="13000.00000" pt_clust_9="26.49297" pt_clust_10="13000.00000"></scales>
<clustering>
<clus scale="   26.493">  2  9  1 -1</clus>
<clus scale="   90.725">  5  6 -1 -1</clus>
<clus scale="   94.737">  7  8 -1 -1</clus>
<clus scale="   62.820">  7 10 -1 -1</clus>
<clus scale="  142.662">  1  5  2 -1</clus>
<clus scale="   26.493">  2  5  1 -1</clus>
</clustering>
</event>
<event>
10    2  0.4951045E-006  0.2712725E+03  0.7546771E-02  0.1134433E+00
         21   -1    0    0  501  502  0.00000000000E+00  0.00000000000E+00  0.37769789859E+03  0.37769789859E+03  0.00000000000E+00 0. -1.
          2   -1    0    0  503    0 -0.00000000000E+00 -0.00000000000E+00 -0.65208198755E+03  0.65208198755E+03  0.00000000000E+00 0. -1.
         23    2    1    2    0    0 -0.21718966580E+02 -0.75698002464E+02 -0.30665416276E+03  0.32761453675E+03  0.84217623264E+02 0.  0.
         23    2    1    2    0    0 -0.79687161061E+02  0.47877939488E+02 -0.29693070711E+02  0.13430416788E+03  0.92269119071E+02 0.  0.
        -11    1    4    4    0    0 -0.63322367235E+02  0.72206238697E+02 -0.38832470902E+02  0.10359258610E+03  0.00000000000E+00 0.  1.
         11    1    4    4    0    0 -0.16364793826E+02 -0.24328299210E+02  0.91394001909E+01  0.30711581777E+02  0.00000000000E+00 0. -1.
        -11    1    3    3    0    0 -0.41072850471E+02 -0.84309705530E+02 -0.23987495737E+03  0.25755601462E+03  0.00000000000E+00 0.  1.
         11    1    3    3    0    0  0.19353883892E+02  0.86117030666E+01 -0.66779205387E+02  0.70058522134E+02  0.00000000000E+00 0. -1.
         21    1    1    2  503  502  0.46257349751E+02 -0.15594738157E+02  0.30808440435E+03  0.31192777765E+03  0.00000000000E+00 0. -1.
          2    1    1    2  501    0  0.55148777890E+02  0.43414801133E+02 -0.24612125985E+03  0.25593340385E+03  0.00000000000E+00 0. -1.
<scales pt_clust_5="13000.00000" pt_clust_6="13000.00000" pt_clust_7="13000.00000" pt_clust_8="13000.00000" pt_clust_9="48.81535" pt_clust_10="13000.00000"></scales>
<clustering>
<clus scale="   48.815">  1  9  2 -1</clus>
<clus scale="   84.218">  7  8 -1 -1</clus>
<clus scale="   92.269">  5  6 -1 -1</clus>
<clus scale="   72.183">  5 10 -1 -1</clus>
<clus scale="  115.785">  2  7  1 -1</clus>
<clus scale="   48.815">  1  5  2 -1</clus>
</clustering>
</event>
<event>
10    2  0.4951045E-006  0.3323181E+03  0.7546771E-02  0.1113955E+00
         21   -1    0    0  501  502  0.00000000000E+00  0.00000000000E+00  0.28717092456E+03  0.28717092456E+03  0.00000000000E+00 0. -1.
          4   -1    0    0  503    0 -0.00000000000E+00 -0.00000000000E+00 -0.38010527900E+03  0.38010527900E+03  0.00000000000E+00 0. -1.
         23    2    1    2    0    0  0.20883921628E+02 -0.40420515394E+02 -0.17013479022E+03  0.19913202733E+03  0.92939556788E+02 0.  0.
         23    2    1    2    0    0  0.15234223773E+02 -0.48310802661E+01 -0.16725060762E+03  0.19022568148E+03  0.89205511231E+02 0.  0.
        -13    1    4    4    0    0 -0.29509190452E+02 -0.27446973098E+02 -0.68434301129E+02  0.79419029359E+02  0.00000000000E+00 0. -1.
         13    1    4    4    0    0  0.44743414225E+02  0.22615892832E+02 -0.98816306491E+02  0.11080665212E+03  0.00000000000E+00 0.  1.
        -13    1    3    3    0    0 -0.19868341214E+02  0.34243852137E+01 -0.15329591128E+01  0.20219479724E+02  0.00000000000E+00 0.  1.
         13    1    3    3    0    0  0.40752262842E+02 -0.43844900608E+02 -0.16860183111E+03  0.17891254760E+03  0.00000000000E+00 0. -1.
         21    1    1    2  503  502 -0.53632504068E+01 -0.36619816770E+02  0.12166446526E+03  0.12716924763E+03  0.00000000000E+00 0. -1.
          4    1    1    2  501    0 -0.30754894994E+02  0.81871412430E+02  0.12278657814E+03  0.15074924713E+03  0.00000000000E+00 0. -1.
<scales pt_clust_5="13000.00000" pt_clust_6="13000.00000" pt_clust_7="13000.00000" pt_clust_8="13000.00000" pt_clust_9="37.01048" pt_clust_10="13000.00000"></scales>
<clustering>
<clus scale="   37.010">  1  9  2 -1</clus>
<clus scale="   89.206">  5  6 -1 -1</clus>
<clus scale="   62.084">  5 10 -1 -1</clus>
<clus scale="   92.940">  7  8 -1 -1</clus>
<clus scale="  104.701">  2  7  1 -1</clus>
<clus scale="   37.010">  1  5  2 -1</clus>
</clustering>
</event>
<event>
10    2  0.4951045E-006  0.1779529E+03  0.7546771E-02  0.1187515E+00
         21   -1    0    0  501  502  0.00000000000E+00  0.00000000000E+00  0.42590207270E+02  0.42590207270E+02  0.00000000000E+00 0. -1.
          1   -1    0    0  503    0 -0.00000000000E+00 -0.00000000000E+00 -0.84969557524E+03  0.84969557524E+03  0.00000000000E+00 0. -1.
         23    2    1    2    0    0 -0.23512297695E+02  0.78706815448E+02 -0.24240254156E+03  0.27157610660E+03  0.90812986861E+02 0.  0.
         23    2    1    2    0    0 -0.43734271148E+02 -0.77487636804E+02 -0.51274773211E+03  0.52817641872E+03  0.90238972606E+02 0.  0.
        -11    1    4    4    0    0 -0.68679457069E+02 -0.70164728189E+02 -0.35616959142E+03  0.36945464506E+03  0.00000000000E+00 0. -1.
         11    1    4    4    0    0  0.24945185921E+02 -0.73229086142E+01 -0.15657814069E+03  0.15872177366E+03  0.00000000000E+00 0.  1.
        -13    1    3    3    0    0  0.33425951946E+02  0.19422125779E+02 -0.58251930938E+02  0.69912807777E+02  0.00000000000E+00 0.  1.
         13    1    3    3    0    0 -0.56938249641E+02  0.59284689669E+02 -0.18415061062E+03  0.20166329882E+03  0.00000000000E+00 0. -1.
         21    1    1    2  503  502  0.31053872250E+02 -0.30485716751E+01 -0.26119064763E+01  0.31312279164E+02  0.00000000000E+00 0. -1.
          1    1    1    2  501    0  0.36192696593E+02  0.18293930306E+01 -0.49343187827E+02  0.61220978026E+02  0.00000000000E+00 0. -1.
<scales pt_clust_5="13000.00000" pt_clust_6="13000.00000" pt_clust_7="13000.00000" pt_clust_8="13000.00000" pt_clust_9="31.20315" pt_clust_10="13000.00000"></scales>
<clustering>
<clus scale="   31.203">  1  9  2 -1</clus>
<clus scale="   90.239">  5  6 -1 -1</clus>
<clus scale="   42.740">  5 10 -1 -1</clus>
<clus scale="   90.813">  7  8 -1 -1</clus>
<clus scale="  119.383">  2  7  1 -1</clus>
<clus scale="   31.203">  1  5  2 -1</clus>
</clustering>
</event>
<event>
10    2  0.4951045E-006  0.1671722E+03  0.7546771E-02  0.1202052E+00
         -3   -1    0    0    0  501 -0.00000000000E+00  0.00000000000E+00  0.38090092805E+03  0.38090092805E+03  0.00000000000E+00 0.  1.
         21   -1    0    0  501  502  0.00000000000E+00 -0.00000000000E+00 -0.82730828129E+02  0.82730828129E+02  0.00000000000E+00 0. -1.
         23    2    1    2    0    0  0.11783069520E+02  0.46796495730E+02  0.19099911005E+03  0.21874986801E+03  0.95089915199E+02 0.  0.
         23    2    1    2    0    0 -0.49029291657E+02 -0.41573855225E+02  0.13897089610E+03  0.17812702607E+03  0.91016869744E+02 0.  0.
        -11    1    3    3    0    0 -0.22823208359E+02  0.62837025590E+02  0.10242754911E+03  0.12231432231E+03  0.00000000000E+00 0. -1.
         11    1    3    3    0    0  0.34606277879E+02 -0.16040529860E+02  0.88571560936E+02  0.96435545695E+02  0.00000000000E+00 0.  1.
        -11    1    4    4    0    0 -0.12994892861E+02 -0.65422840706E+02  0.69621676520E+02  0.96416768085E+02  0.00000000000E+00 0.  1.
         11    1    4    4    0    0 -0.36034398796E+02  0.23848985481E+02  0.69349219575E+02  0.81710257989E+02  0.00000000000E+00 0. -1.
         21    1    1    2  503  502  0.20577770024E+02 -0.25291419830E+02 -0.17806025326E+02  0.37150438411E+02  0.00000000000E+00 0. -1.
         -3    1    1    2    0  503  0.16668452112E+02  0.20068779325E+02 -0.13993880897E+02  0.29604423689E+02  0.00000000000E+00 0.  1.
<scales pt_clust_5="13000.00000" pt_clust_6="13000.00000" pt_clust_7="13000.00000" pt_clust_8="13000.00000" pt_clust_9="32.60522" pt_clust_10="13000.00000"></scales>
<clustering>
<clus scale="   32.605">  2  9  1 -1</clus>
<clus scale="   91.017">  7  8 -1 -1</clus>
<clus scale="   26.762">  7 10 -1 -1</clus>
<clus scale="   95.090">  5  6 -1 -1</clus>
<clus scale="  104.715">  1  5  2 -1</clus>
<clus scale="   32.605">  2  5  1 -1</clus>
</clustering>
</event>
<event>
10    2  0.4951045E-006  0.2622926E+03  0.7546771E-02  0.1128031E+00
         -3   -1    0    0    0  501 -0.00000000000E+00  0.00000000000E+00  0.83467387913E+03  0.83467387913E+03  0.00000000000E+00 0.  1.
         21   -1    0    0  501  502  0.00000000000E+00 -0.00000000000E+00 -0.16199887073E+03  0.16199887073E+03  0.00000000000E+00 0.  1.
         23    2    1    2    0    0  0.10138838999E+03 -0.53815636295E+02  0.22361872784E+03  0.26694140757E+03  0.89870191390E+02 0.  0.
         23    2    1    2    0    0  0.30611920409E+02  0.15713959754E+02  0.35708429351E+03  0.37056342035E+03  0.92865696718E+02 0.  0.
        -11    1    3    3    0    0  0.23594742403E+02  0.24381601651E+02  0.37319991755E+02  0.50437646186E+02  0.00000000000E+00 0. -1.
         11    1    3    3    0    0  0.77793647587E+02 -0.78197237946E+02  0.18629873608E+03  0.21650376138E+03  0.00000000000E+00 0.  1.
        -13    1    4    4    0    0 -0.18036029213E+02  0.37962682852E+02  0.20718216145E+03  0.21140225085E+03  0.00000000000E+00 0. -1.
         13    1    4    4    0    0  0.48647949621E+02 -0.22248723098E+02  0.14990213206E+03  0.15916116950E+03  0.00000000000E+00 0.  1.
         21    1    1    2  503  502 -0.58024649597E+01 -0.33291639950E+02 -0.10743224311E+03  0.11262188397E+03  0.00000000000E+00 0.  1.
         -3    1    1    2    0  503 -0.12619784544E+03  0.71393316491E+02  0.19940423016E+03  0.24654603797E+03  0.00000000000E+00 0.  1.
<scales pt_clust_5="13000.00000" pt_clust_6="13000.00000" pt_clust_7="13000.00000" pt_clust_8="13000.00000" pt_clust_9="33.79352" pt_clust_10="13000.00000"></scales>
<clustering>
<clus scale="   33.794">  2  9  1 -1</clus>
<clus scale="   89.870">  5  6 -1 -1</clus>
<clus scale="   92.866">  7  8 -1 -1</clus>
<clus scale="  140.592">  7 10 -1 -1</clus>
<clus scale="  149.846">  1  5  2 -1</clus>
<clus scale="   33.794">  2  5  1 -1</clus>
</clustering>
</event>
<event>
10    2  0.4951045E-006  0.1505861E+03  0.7546771E-02  0.1208117E+00
          1   -1    0    0  503    0 -0.00000000000E+00  0.00000000000E+00  0.99255827550E+03  0.99255827550E+03  0.00000000000E+00 0. -1.
         21   -1    0    0  501  502  0.00000000000E+00 -0.00000000000E+00 -0.27174466801E+02  0.27174466801E+02  0.00000000000E+00 0.  1.
         23    2    1    2    0    0 -0.37555262331E+01  0.84467410584E+02  0.51643144498E+03  0.53116061210E+03  0.91001709025E+02 0.  0.
         23    2    1    2    0    0  0.42234723603E+02 -0.52805811726E+02  0.26079779826E+03  0.28390779892E+03  0.89531676407E+02 0.  0.
        -11    1    4    4    0    0  0.23002785803E+02 -0.47184063274E+02  0.25845820167E+03  0.26373491614E+03  0.00000000000E+00 0. -1.
         11    1    4    4    0    0  0.19231937800E+02 -0.56217484521E+01  0.23395965848E+01  0.20172882773E+02  0.00000000000E+00 0.  1.
        -13    1    3    3    0    0 -0.43766849702E+02  0.59538090285E+02  0.25407481643E+03  0.26460221781E+03  0.00000000000E+00 0.  1.
         13    1    3    3    0    0  0.40011323469E+02  0.24929320299E+02  0.26235662856E+03  0.26655839429E+03  0.00000000000E+00 0. -1.
         21    1    1    2  503  502 -0.26866320470E+02  0.53831072795E+01  0.14074627243E+03  0.14338859865E+03  0.00000000000E+00 0. -1.
          1    1    1    2  501    0 -0.11612876900E+02 -0.37044706138E+02  0.47408293026E+02  0.61275732638E+02  0.00000000000E+00 0. -1.
<scales pt_clust_5="13000.00000" pt_clust_6="13000.00000" pt_clust_7="13000.00000" pt_clust_8="13000.00000" pt_clust_9="27.40032" pt_clust_10="13000.00000"></scales>
<clustering>
<clus scale="   27.400">  2  9  1 -1</clus>
<clus scale="   89.532">  5  6 -1 -1</clus>
<clus scale="   40.269">  5 10 -1 -1</clus>
<clus scale="   91.002">  7  8 -1 -1</clus>
<clus scale="  125.728">  1  7  2 -1</clus>
<clus scale="   27.400">  2  5  1 -1</clus>
</clustering>
</event>
<event>
10    2  0.4951045E-006  0.1685843E+03  0.7546771E-02  0.1201608E+00
         21   -1    0    0  503  502  0.00000000000E+00  0.00000000000E+00  0.17419709128E+03  0.17419709128E+03  0.00000000000E+00 0. -1.
          1   -1    0    0  502    0 -0.00000000000E+00 -0.00000000000E+00 -0.25123052800E+03  0.25123052800E+03  0.00000000000E+00 0. -1.
         23    2    1    2    0    0 -0.62120301088E+01  0.32091574126E+02 -0.82156837489E+02  0.13083587772E+03  0.96435587330E+02 0.  0.
         23    2    1    2    0    0  0.11792112712E+02 -0.51581897281E+02 -0.11835948274E+03  0.15783225045E+03  0.90012810638E+02 0.  0.
        -13    1    4    4    0    0 -0.11731145559E+02 -0.48386426755E+02 -0.15317726891E+02  0.52091254807E+02  0.00000000000E+00 0.  1.
         13    1    4    4    0    0  0.23523258271E+02 -0.31954705259E+01 -0.10304175585E+03  0.10574099565E+03  0.00000000000E+00 0. -1.
        -13    1    3    3    0    0 -0.23346107867E+02  0.60742320379E+02 -0.69295783899E+02  0.95060906285E+02  0.00000000000E+00 0. -1.
         13    1    3    3    0    0  0.17134077758E+02 -0.28650746253E+02 -0.12861053590E+02  0.35774971431E+02  0.00000000000E+00 0.  1.
         21    1    1    2  503  501 -0.25488180836E+02  0.43258659009E+01  0.96733600440E+02  0.10012866688E+03  0.00000000000E+00 0. -1.
          1    1    1    2  501    0  0.19908098232E+02  0.15164457254E+02  0.26749283070E+02  0.36630824230E+02  0.00000000000E+00 0. -1.
<scales pt_clust_5="13000.00000" pt_clust_6="13000.00000" pt_clust_7="13000.00000" pt_clust_8="13000.00000" pt_clust_9="25.85267" pt_clust_10="13000.00000"></scales>
<clustering>
<clus scale="   25.853">  1  9  2 -1</clus>
<clus scale="   90.013">  5  6 -1 -1</clus>
<clus scale="   19.329">  5 10 -1 -1</clus>
<clus scale="   96.436">  7  8 -1 -1</clus>
<clus scale="  103.093">  2  7  1 -1</clus>
<clus scale="   25.853">  1  5  2 -1</clus>
</clustering>
</event>
<event>
10    2  0.4951045E-006  0.5245859E+03  0.7546771E-02  0.1044669E+00
          1   -1    0    0  503    0 -0.00000000000E+00  0.00000000000E+00  0.16680139531E+04  0.16680139531E+04  0.00000000000E+00 0. -1.
         21   -1    0    0  501  502  0.00000000000E+00 -0.00000000000E+00 -0.64826918228E+03  0.64826918228E+03  0.00000000000E+00 0.  1.
         23    2    1    2    0    0 -0.11902261880E+03  0.85168881994E+02  0.25971477216E+03  0.31197033534E+03  0.91943488116E+02 0.  0.
         23    2    1    2    0    0  0.14148952460E+02  0.53797136024E+02  0.86307005220E+02  0.13651251868E+03  0.89958011907E+02 0.  0.
        -11    1    3    3    0    0 -0.83431371790E+02  0.46855027950E+02  0.79758028351E+02  0.12456938038E+03  0.00000000000E+00 0. -1.
         11    1    3    3    0    0 -0.35591247012E+02  0.38313854044E+02  0.17995674381E+03  0.18740095496E+03  0.00000000000E+00 0.  1.
        -13    1    4    4    0    0  0.27902834341E+02  0.33542212885E+02  0.99539654818E+02  0.10868206425E+03  0.00000000000E+00 0. -1.
         13    1    4    4    0    0 -0.13753881881E+02  0.20254923140E+02 -0.13232649597E+02  0.27830454426E+02  0.00000000000E+00 0.  1.
         21    1    1    2  503  502  0.58610900623E+02 -0.41458562801E+03 -0.50522623605E+03  0.65617835245E+03  0.00000000000E+00 0.  1.
          1    1    1    2  501    0  0.46262765720E+02  0.27561961000E+03  0.11789492295E+04  0.12116219290E+04  0.00000000000E+00 0. -1.
<scales pt_clust_5="13000.00000" pt_clust_6="13000.00000" pt_clust_7="13000.00000" pt_clust_8="13000.00000" pt_clust_9="413.23378" pt_clust_10="13000.00000"></scales>
<clustering>
<clus scale="   89.958">  7  8 -1 -1</clus>
<clus scale="   91.943">  5  6 -1 -1</clus>
<clus scale="  172.840">  1  5  2 -1</clus>
<clus scale="  353.840">  7 10 -1 -1</clus>
<clus scale="  413.234">  2  9  1 -1</clus>
<clus scale="  413.234">  2  5  1 -1</clus>
</clustering>
</event>
<event>
10    2  0.4951045E-006  0.1931453E+03  0.7546771E-02  0.1181992E+00
         21   -1    0    0  503  502  0.00000000000E+00  0.00000000000E+00  0.10475868390E+03  0.10475868390E+03  0.00000000000E+00 0. -1.
          2   -1    0    0  502    0 -0.00000000000E+00 -0.00000000000E+00 -0.83106783884E+03  0.83106783884E+03  0.00000000000E+00 0. -1.
         23    2    1    2    0    0 -0.48613061294E+02 -0.86007336405E+01 -0.54745221720E+03  0.55783873197E+03  0.95094260686E+02 0.  0.
         23    2    1    2    0    0 -0.39295397415E+02 -0.40547788283E+02 -0.78943299678E+02  0.13162048647E+03  0.88902511230E+02 0.  0.
        -11    1    4    4    0    0 -0.28688835509E+01 -0.42939869810E+02 -0.84372291477E+02  0.94714024733E+02  0.00000000000E+00 0.  1.
         11    1    4    4    0    0 -0.36426513864E+02  0.23920815266E+01  0.54289917986E+01  0.36906461741E+02  0.00000000000E+00 0. -1.
        -13    1    3    3    0    0 -0.76625928283E+02 -0.45243437793E+01 -0.44386276179E+03  0.45045105603E+03  0.00000000000E+00 0. -1.
         13    1    3    3    0    0  0.28012866989E+02 -0.40763898612E+01 -0.10358945541E+03  0.10738767594E+03  0.00000000000E+00 0.  1.
         21    1    1    2  503  501  0.21486201390E+02  0.31404735132E+02  0.60709480148E+02  0.71648832640E+02  0.00000000000E+00 0. -1.
          2    1    1    2  501    0  0.66422257319E+02  0.17743786792E+02 -0.16062311821E+03  0.17471847166E+03  0.00000000000E+00 0. -1.
<scales pt_clust_5="13000.00000" pt_clust_6="13000.00000" pt_clust_7="13000.00000" pt_clust_8="13000.00000" pt_clust_9="38.05147" pt_clust_10="13000.00000"></scales>
<clustering>
<clus scale="   38.051">  1  9  2 -1</clus>
<clus scale="   88.903">  5  6 -1 -1</clus>
<clus scale="   74.163">  5 10 -1 -1</clus>
<clus scale="   95.094">  7  8 -1 -1</clus>
<clus scale="  105.605">  2  7  1 -1</clus>
<clus scale="   38.051">  1  5  2 -1</clus>
</clustering>
</event>
<event>
10    2  0.4951045E-006  0.2888740E+03  0.7546771E-02  0.1093665E+00
          2   -1    0    0  503    0 -0.00000000000E+00  0.00000000000E+00  0.14675761817E+04  0.14675761817E+04  0.00000000000E+00 0. -1.
         21   -1    0    0  501  502  0.00000000000E+00 -0.00000000000E+00 -0.63165141186E+02  0.63165141186E+02  0.00000000000E+00 0. -1.
         23    2    1    2    0    0 -0.82525184823E+02  0.22890933551E+03  0.56016403425E+03  0.62368369398E+03  0.12644253580E+03 0.  0.
         23    2    1    2    0    0  0.70983305593E+02 -0.70366604965E+02  0.49256031161E+03  0.51092065087E+03  0.91837694553E+02 0.  0.
        -11    1    3    3    0    0  0.31726741057E+02  0.40488533427E+02  0.14171207142E+03  0.15075880943E+03  0.00000000000E+00 0.  1.
         11    1    3    3    0    0 -0.11425192588E+03  0.18842080208E+03  0.41845196283E+03  0.47292488455E+03  0.00000000000E+00 0. -1.
        -13    1    4    4    0    0  0.16617951525E+02 -0.77178564172E+02  0.33243977770E+03  0.34168537118E+03  0.00000000000E+00 0.  1.
         13    1    4    4    0    0  0.54365354068E+02  0.68119592068E+01  0.16012053392E+03  0.16923527969E+03  0.00000000000E+00 0. -1.
         21    1    1    2  503  502 -0.32359398467E+02 -0.25132176225E+02  0.63901065212E+02  0.75908517877E+02  0.00000000000E+00 0.  1.
          2    1    1    2  501    0  0.43901277697E+02 -0.13341055432E+03  0.28778562947E+03  0.32022846019E+03  0.00000000000E+00 0. -1.
<scales pt_clust_5="13000.00000" pt_clust_6="13000.00000" pt_clust_7="13000.00000" pt_clust_8="13000.00000" pt_clust_9="40.97264" pt_clust_10="13000.00000"></scales>
<clustering>
<clus scale="   40.973">  2  9  1 -1</clus>
<clus scale="   91.838">  7  8 -1 -1</clus>
<clus scale="  126.443">  5  6 -1 -1</clus>
<clus scale="  144.767">  7 10 -1 -1</clus>
<clus scale="  268.869">  1  5  2 -1</clus>
<clus scale="   40.973">  2  5  1 -1</clus>
</clustering>
</event>
<event>
10    2  0.4951045E-006  0.4437674E+03  0.7546771E-02  0.1054600E+00
         21   -1    0    0  503  502  0.00000000000E+00  0.00000000000E+00  0.35045965838E+03  0.35045965838E+03  0.00000000000E+00 0.  1.
          2   -1    0    0  502    0 -0.00000000000E+00 -0.00000000000E+00 -0.17238293029E+04  0.17238293029E+04  0.00000000000E+00 0. -1.
         23    2    1    2    0    0 -0.19555555422E+01  0.21848944407E+03 -0.25471811957E+03  0.34741227062E+03  0.89847114450E+02 0.  0.
         23    2    1    2    0    0 -0.86316986116E+02  0.33888288018E+00 -0.15100174118E+03  0.19964968580E+03  0.98019050518E+02 0.  0.
        -13    1    4    4    0    0 -0.40976187087E+02  0.44097993463E+02 -0.10707722222E+03  0.12283815553E+03  0.00000000000E+00 0.  1.
         13    1    4    4    0    0 -0.45340799030E+02 -0.43759110583E+02 -0.43924518962E+02  0.76811530265E+02  0.00000000000E+00 0. -1.
        -13    1    3    3    0    0  0.29764159461E+02  0.15202205850E+03 -0.21102385045E+03  0.26177791526E+03  0.00000000000E+00 0.  1.
         13    1    3    3    0    0 -0.31719715003E+02  0.66467385568E+02 -0.43694269114E+02  0.85634355358E+02  0.00000000000E+00 0. -1.
         21    1    1    2  503  501 -0.35615612778E+02 -0.42210026215E+02  0.26762027812E+03  0.27325953130E+03  0.00000000000E+00 0.  1.
          2    1    1    2  501    0  0.12388815444E+03 -0.17661830073E+03 -0.12352700619E+04  0.12539674735E+04  0.00000000000E+00 0. -1.
<scales pt_clust_5="13000.00000" pt_clust_6="13000.00000" pt_clust_7="13000.00000" pt_clust_8="13000.00000" pt_clust_9="55.22824" pt_clust_10="13000.00000"></scales>
<clustering>
<clus scale="   55.228">  1  9  2 -1</clus>
<clus scale="   89.847">  7  8 -1 -1</clus>
<clus scale="   98.019">  5  6 -1 -1</clus>
<clus scale="  215.023">  2  7  1 -1</clus>
<clus scale="  101.234">  5 10 -1 -1</clus>
<clus scale="   55.228">  1  5  2 -1</clus>
</clustering>
</event>
<event>
10    2  0.4951045E-006  0.2310276E+03  0.7546771E-02  0.1156498E+00
         21   -1    0    0  501  502  0.00000000000E+00  0.00000000000E+00  0.23396532453E+03  0.23396532453E+03  0.00000000000E+00 0. -1.
          2   -1    0    0  503    0 -0.00000000000E+00 -0.00000000000E+00 -0.33712572588E+03  0.33712572588E+03  0.00000000000E+00 0. -1.
         23    2    1    2    0    0  0.28452407553E+02  0.58784311802E+02 -0.24068778560E+03  0.26523262985E+03  0.90291765913E+02 0.  0.
         23    2    1    2    0    0 -0.95532185413E+01  0.22530403270E+02 -0.37594506339E+02  0.10215529863E+03  0.91779491584E+02 0.  0.
        -11    1    4    4    0    0 -0.37997125075E+02  0.69544207604E+01 -0.53537943734E+02  0.66018610266E+02  0.00000000000E+00 0. -1.
         11    1    4    4    0    0  0.28443906534E+02  0.15575982509E+02  0.15943437395E+02  0.36136688365E+02  0.00000000000E+00 0.  1.
        -13    1    3    3    0    0 -0.25787508214E+02 -0.63686092799E+01 -0.52809339836E+02  0.59113290705E+02  0.00000000000E+00 0.  1.
         13    1    3    3    0    0  0.54239915766E+02  0.65152921082E+02 -0.18787844577E+03  0.20611933915E+03  0.00000000000E+00 0. -1.
         21    1    1    2  503  502 -0.28419626812E+02 -0.76197806690E+01  0.57148935597E+02  0.64278589635E+02  0.00000000000E+00 0. -1.
          2    1    1    2  501    0  0.95204378005E+01 -0.73694934403E+02  0.11797295500E+03  0.13942453229E+03  0.00000000000E+00 0. -1.
<scales pt_clust_5="13000.00000" pt_clust_6="13000.00000" pt_clust_7="13000.00000" pt_clust_8="13000.00000" pt_clust_9="29.42340" pt_clust_10="13000.00000"></scales>
<clustering>
<clus scale="   29.423">  1  9  2 -1</clus>
<clus scale="   90.292">  7  8 -1 -1</clus>
<clus scale="   91.779">  5  6 -1 -1</clus>
<clus scale="   80.197">  5 10 -1 -1</clus>
<clus scale="  110.653">  2  7  1 -1</clus>
<clus scale="   29.423">  1  5  2 -1</clus>
</clustering>
</event>
<event>
10    2  0.4951045E-006  0.2883524E+03  0.7546771E-02  0.1117181E+00
         21   -1    0    0  501  502  0.00000000000E+00  0.00000000000E+00  0.62479449731E+02  0.62479449731E+02  0.00000000000E+00 0. -1.
          1   -1    0    0  503    0 -0.00000000000E+00 -0.00000000000E+00 -0.10818358902E+04  0.10818358902E+04  0.00000000000E+00 0. -1.
         23    2    1    2    0    0  0.11992877169E+03 -0.57024524476E+02 -0.30287500809E+03  0.34348151107E+03  0.92798551992E+02 0.  0.
         23    2    1    2    0    0  0.58398489224E+02 -0.39853977262E+02 -0.22517136186E+03  0.25264583477E+03  0.90161258737E+02 0.  0.
        -11    1    4    4    0    0  0.39770951077E+02 -0.19398223235E+01 -0.22740528664E+02  0.45854368430E+02  0.00000000000E+00 0. -1.
         11    1    4    4    0    0  0.18627538148E+02 -0.37914154938E+02 -0.20243083320E+03  0.20679146634E+03  0.00000000000E+00 0.  1.
        -13    1    3    3    0    0  0.95702560291E+02 -0.80295466959E+02 -0.26425426307E+03  0.29229549708E+03  0.00000000000E+00 0. -1.
         13    1    3    3    0    0  0.24226211397E+02  0.23270942484E+02 -0.38620745019E+02  0.51186013993E+02  0.00000000000E+00 0.  1.
         21    1    1    2  503  502 -0.31456532656E+02  0.31541265964E+02 -0.17514125898E+02  0.47865535736E+02  0.00000000000E+00 0.  1.
          1    1    1    2  501    0 -0.14687072826E+03  0.65337235774E+02 -0.47379594465E+03  0.50032245838E+03  0.00000000000E+00 0. -1.
<scales pt_clust_5="13000.00000" pt_clust_6="13000.00000" pt_clust_7="13000.00000" pt_clust_8="13000.00000" pt_clust_9="44.54621" pt_clust_10="13000.00000"></scales>
<clustering>
<clus scale="   44.546">  1  9  2 -1</clus>
<clus scale="   90.161">  5  6 -1 -1</clus>
<clus scale="   92.799">  7  8 -1 -1</clus>
<clus scale="  147.748">  2  7  1 -1</clus>
<clus scale="   90.702">  5 10 -1 -1</clus>
<clus scale="   44.546">  1  5  2 -1</clus>
</clustering>
</event>
<event>
10    2  0.4951045E-006  0.2644500E+03  0.7546771E-02  0.1136046E+00
         21   -1    0    0  503  502  0.00000000000E+00  0.00000000000E+00  0.89293917287E+02  0.89293917287E+02  0.00000000000E+00 0.  1.
          2   -1    0    0  502    0 -0.00000000000E+00 -0.00000000000E+00 -0.79544210586E+03  0.79544210586E+03  0.00000000000E+00 0. -1.
         23    2    1    2    0    0  0.69259893675E+02 -0.59383145830E+01 -0.23304648945E+03  0.25921738959E+03  0.89726207810E+02 0.  0.
         23    2    1    2    0    0 -0.91222774426E+02  0.10791378595E+03 -0.38703166515E+03  0.42225954558E+03  0.92426371959E+02 0.  0.
        -11    1    3    3    0    0  0.59371430272E+02 -0.40692265602E+02 -0.11412073358E+03  0.13492356742E+03  0.00000000000E+00 0. -1.
         11    1    3    3    0    0  0.98884634030E+01  0.34753951019E+02 -0.11892575588E+03  0.12429382218E+03  0.00000000000E+00 0.  1.
        -11    1    4    4    0    0 -0.92047516186E+02  0.54585423042E+02 -0.31464664586E+03  0.33234744680E+03  0.00000000000E+00 0. -1.
         11    1    4    4    0    0  0.82474176005E+00  0.53328362905E+02 -0.72385019290E+02  0.89912098779E+02  0.00000000000E+00 0.  1.
         21    1    1    2  503  501  0.37649329152E+02 -0.67559459279E+01  0.32631906658E+02  0.50278784026E+02  0.00000000000E+00 0.  1.
          2    1    1    2  501    0 -0.15686448402E+02 -0.95219525436E+02 -0.11870194062E+03  0.15298030395E+03  0.00000000000E+00 0. -1.
<scales pt_clust_5="13000.00000" pt_clust_6="13000.00000" pt_clust_7="13000.00000" pt_clust_8="13000.00000" pt_clust_9="38.25068" pt_clust_10="13000.00000"></scales>
<clustering>
<clus scale="   38.251">  1  9  2 -1</clus>
<clus scale="   89.726">  5  6 -1 -1</clus>
<clus scale="   92.426">  7  8 -1 -1</clus>
<clus scale="   97.665">  7 10 -1 -1</clus>
<clus scale="  120.170">  2  5  1 -1</clus>
<clus scale="   38.251">  1  5  2 -1</clus>
</clustering>
</event>
<event>
10    2  0.4951045E-006  0.1622600E+03  0.7546771E-02  0.1209035E+00
         -1   -1    0    0    0  501 -0.00000000000E+00  0.00000000000E+00  0.26850342704E+03  0.26850342704E+03  0.00000000000E+00 0.  1.
         21   -1    0    0  503  502  0.00000000000E+00 -0.00000000000E+00 -0.10362512143E+03  0.10362512143E+03  0.00000000000E+00 0.  1.
         23    2    1    2    0    0 -0.38856258898E+01 -0.49573056579E+02  0.55732733775E+02  0.11899124169E+03  0.92629325583E+02 0.  0.
         23    2    1    2    0    0 -0.17953767439E+02  0.90593339908E+01  0.22698020160E+02  0.95045932706E+02  0.90078409773E+02 0.  0.
        -11    1    4    4    0    0  0.14712769855E+02  0.39180163676E+02 -0.58104311651E+01  0.42252951764E+02  0.00000000000E+00 0. -1.
         11    1    4    4    0    0 -0.32666537295E+02 -0.30120829685E+02  0.28508451325E+02  0.52792980942E+02  0.00000000000E+00 0.  1.
        -13    1    3    3    0    0 -0.27696362013E+02 -0.51052828084E+01 -0.15160631621E+02  0.31984326356E+02  0.00000000000E+00 0. -1.
         13    1    3    3    0    0  0.23810736123E+02 -0.44467773770E+02  0.70893365396E+02  0.87006915335E+02  0.00000000000E+00 0.  1.
         21    1    1    2  503  501 -0.32581165532E+02  0.50196928789E+02  0.55330133536E+01  0.60098903851E+02  0.00000000000E+00 0.  1.
         -1    1    1    2    0  502  0.54420558861E+02 -0.96832062015E+01  0.80914538325E+02  0.97992470228E+02  0.00000000000E+00 0.  1.
<scales pt_clust_5="13000.00000" pt_clust_6="13000.00000" pt_clust_7="13000.00000" pt_clust_8="13000.00000" pt_clust_9="59.84366" pt_clust_10="13000.00000"></scales>
<clustering>
<clus scale="   59.844">  2  9  1 -1</clus>
<clus scale="   90.078">  5  6 -1 -1</clus>
<clus scale="   50.939">  5 10 -1 -1</clus>
<clus scale="   92.629">  7  8 -1 -1</clus>
<clus scale="   98.542">  1  7  2 -1</clus>
<clus scale="   59.844">  2  5  1 -1</clus>
</clustering>
</event>
<event>
10    2  0.4951045E-006  0.3490935E+03  0.7546771E-02  0.1093733E+00
          2   -1    0    0  503    0 -0.00000000000E+00  0.00000000000E+00  0.85224824835E+03  0.85224824835E+03  0.00000000000E+00 0. -1.
         21   -1    0    0  501  502  0.00000000000E+00 -0.00000000000E+00 -0.58747201557E+03  0.58747201557E+03  0.00000000000E+00 0. -1.
         23    2    1    2    0    0  0.85020834017E+01 -0.12759081372E+03  0.14818896076E+03  0.21233714320E+03  0.82312776170E+02 0.  0.
         23    2    1    2    0    0 -0.14129626960E+03 -0.56007209104E+02  0.31572372515E+03  0.36224004062E+03  0.91841892021E+02 0.  0.
        -11    1    3    3    0    0  0.29769031391E+02 -0.24257736165E+02  0.73980093152E+02  0.83352787455E+02  0.00000000000E+00 0.  1.
         11    1    3    3    0    0 -0.21266947990E+02 -0.10333307756E+03  0.74208867613E+02  0.12898435574E+03  0.00000000000E+00 0. -1.
        -11    1    4    4    0    0 -0.44947397846E+02 -0.32403280090E+01  0.25177685017E+02  0.51620578469E+02  0.00000000000E+00 0. -1.
         11    1    4    4    0    0 -0.96348871757E+02 -0.52766881095E+02  0.29054604013E+03  0.31061946215E+03  0.00000000000E+00 0.  1.
         21    1    1    2  503  502  0.43647083230E+01  0.17101775804E+03 -0.50499050855E+03  0.53318058664E+03  0.00000000000E+00 0. -1.
          2    1    1    2  501    0  0.12842947788E+03  0.12580264788E+02  0.30585405542E+03  0.33196249346E+03  0.00000000000E+00 0. -1.
<scales pt_clust_5="13000.00000" pt_clust_6="13000.00000" pt_clust_7="13000.00000" pt_clust_8="13000.00000" pt_clust_9="168.40280" pt_clust_10="13000.00000"></scales>
<clustering>
<clus scale="   82.313">  5  6 -1 -1</clus>
<clus scale="   91.842">  7  8 -1 -1</clus>
<clus scale="  129.044">  7 10 -1 -1</clus>
<clus scale="  152.076">  1  5  2 -1</clus>
<clus scale="  168.403">  2  9  1 -1</clus>
<clus scale="  168.403">  2  5  1 -1</clus>
</clustering>
</event>
<event>
10    2  0.4951045E-006  0.4001050E+03  0.7546771E-02  0.1064949E+00
         21   -1    0    0  501  502  0.00000000000E+00  0.00000000000E+00  0.10383480715E+04  0.10383480715E+04  0.00000000000E+00 0. -1.
          3   -1    0    0  503    0 -0.00000000000E+00 -0.00000000000E+00 -0.12164346006E+03  0.12164346006E+03  0.00000000000E+00 0. -1.
         23    2    1    2    0    0 -0.71243370168E+02 -0.20529060033E+03  0.49962921971E+03  0.55183655331E+03  0.87603515989E+02 0.  0.
         23    2    1    2    0    0  0.14948120975E+02  0.23637898207E+03  0.13884277432E+03  0.28863669448E+03  0.89080614810E+02 0.  0.
        -11    1    3    3    0    0  0.98147207837E+01 -0.36562014174E+02  0.15602603605E+03  0.16055289953E+03  0.00000000000E+00 0.  1.
         11    1    3    3    0    0 -0.81058090951E+02 -0.16872858616E+03  0.34360318366E+03  0.39128365378E+03  0.00000000000E+00 0. -1.
        -13    1    4    4    0    0  0.38899597185E+02  0.13114295155E+03  0.11356628015E+03  0.17778906713E+03  0.00000000000E+00 0. -1.
         13    1    4    4    0    0 -0.23951476210E+02  0.10523603053E+03  0.25276494168E+02  0.11084762736E+03  0.00000000000E+00 0.  1.
         21    1    1    2  503  502 -0.23175428233E+02  0.41005047426E+02  0.59510364517E+02  0.75894649832E+02  0.00000000000E+00 0. -1.
          3    1    1    2  501    0  0.79470677426E+02 -0.72093429168E+02  0.21872225288E+03  0.24362363392E+03  0.00000000000E+00 0. -1.
<scales pt_clust_5="13000.00000" pt_clust_6="13000.00000" pt_clust_7="13000.00000" pt_clust_8="13000.00000" pt_clust_9="47.10113" pt_clust_10="13000.00000"></scales>
<clustering>
<clus scale="   47.101">  1  9  2 -1</clus>
<clus scale="   87.604">  5  6 -1 -1</clus>
<clus scale="   89.081">  7  8 -1 -1</clus>
<clus scale="   96.713">  7 10 -1 -1</clus>
<clus scale="  219.579">  2  5  1 -1</clus>
<clus scale="   47.101">  1  5  2 -1</clus>
</clustering>
</event>
<event>
10    2  0.4951045E-006  0.3436498E+03  0.7546771E-02  0.1097602E+00
          2   -1    0    0  503    0 -0.00000000000E+00  0.00000000000E+00  0.16376964892E+04  0.16376964892E+04  0.00000000000E+00 0. -1.
         21   -1    0    0  501  502  0.00000000000E+00 -0.00000000000E+00 -0.53228641636E+02  0.53228641636E+02  0.00000000000E+00 0.  1.
         23    2    1    2    0    0  0.96835566805E+02 -0.67043187641E+01  0.14063469106E+03  0.19855197770E+03  0.10110735200E+03 0.  0.
         23    2    1    2    0    0 -0.98963706868E+02  0.12018956578E+03  0.10231303847E+04  0.10388581912E+04  0.90505305630E+02 0.  0.
        -13    1    3    3    0    0  0.36124944681E+02  0.23456436677E+02  0.71813336095E+00  0.43078205224E+02  0.00000000000E+00 0.  1.
         13    1    3    3    0    0  0.60710622124E+02 -0.30160755441E+02  0.13991655770E+03  0.15547377247E+03  0.00000000000E+00 0. -1.
        -13    1    4    4    0    0 -0.92628575643E+02  0.42574156465E+02  0.60787121338E+03  0.61636030362E+03  0.00000000000E+00 0. -1.
         13    1    4    4    0    0 -0.63351312254E+01  0.77615409317E+02  0.41525917129E+03  0.42249788756E+03  0.00000000000E+00 0.  1.
         21    1    1    2  503  502  0.94123425380E+01  0.27013596296E+02  0.66233287659E+02  0.72146898554E+02  0.00000000000E+00 0.  1.
          2    1    1    2  501    0 -0.72842024751E+01 -0.14049884331E+03  0.35446948420E+03  0.38136806343E+03  0.00000000000E+00 0. -1.
<scales pt_clust_5="13000.00000" pt_clust_6="13000.00000" pt_clust_7="13000.00000" pt_clust_8="13000.00000" pt_clust_9="28.60641" pt_clust_10="13000.00000"></scales>
<clustering>
<clus scale="   28.606">  2  9  1 -1</clus>
<clus scale="   90.505">  7  8 -1 -1</clus>
<clus scale="  101.107">  5  6 -1 -1</clus>
<clus scale="  133.357">  7 10 -1 -1</clus>
<clus scale="  144.075">  1  5  2 -1</clus>
<clus scale="   28.606">  2  5  1 -1</clus>
</clustering>
</event>
<event>
10    2  0.4951045E-006  0.2919073E+03  0.7546771E-02  0.1128492E+00
         21   -1    0    0  503  502  0.00000000000E+00  0.00000000000E+00  0.64871620012E+02  0.64871620012E+02  0.00000000000E+00 0. -1.
          2   -1    0    0  502    0 -0.00000000000E+00 -0.00000000000E+00 -0.74626416105E+03  0.74626416105E+03  0.00000000000E+00 0. -1.
         23    2    1    2    0    0  0.54038918374E+02  0.29517663792E+02 -0.15478231953E+03  0.19048889246E+03  0.92395641329E+02 0.  0.
         23    2    1    2    0    0  0.62695635446E+02  0.46820183426E+02 -0.94230212371E+02  0.15264047518E+03  0.91087372663E+02 0.  0.
        -11    1    3    3    0    0  0.35112314954E+01 -0.31336870267E+02 -0.37027205941E+02  0.48634783484E+02  0.00000000000E+00 0.  1.
         11    1    3    3    0    0  0.50527686878E+02  0.60854534059E+02 -0.11775511359E+03  0.14185410898E+03  0.00000000000E+00 0. -1.
        -13    1    4    4    0    0 -0.96587018737E+01 -0.19604336908E+02 -0.17783168686E+02  0.28175550323E+02  0.00000000000E+00 0.  1.
         13    1    4    4    0    0  0.72354337320E+02  0.66424520334E+02 -0.76447043685E+02  0.12446492485E+03  0.00000000000E+00 0. -1.
         21    1    1    2  503  501 -0.17969499522E+02 -0.10008968015E+02 -0.10785766804E+01  0.20597225091E+02  0.00000000000E+00 0.  1.
          2    1    1    2  501    0 -0.98765054298E+02 -0.66328879203E+02 -0.43130143245E+03  0.44740918833E+03  0.00000000000E+00 0. -1.
<scales pt_clust_5="13000.00000" pt_clust_6="13000.00000" pt_clust_7="13000.00000" pt_clust_8="13000.00000" pt_clust_9="20.56897" pt_clust_10="13000.00000"></scales>
<clustering>
<clus scale="   20.569">  1  9  2 -1</clus>
<clus scale="   91.087">  7  8 -1 -1</clus>
<clus scale="   92.396">  5  6 -1 -1</clus>
<clus scale="  107.482">  2  5  1 -1</clus>
<clus scale="   78.459">  7 10 -1 -1</clus>
<clus scale="   20.569">  1  5  2 -1</clus>
</clustering>
</event>
<event>
10    2  0.4951045E-006  0.2472208E+03  0.7546771E-02  0.1153421E+00
         21   -1    0    0  501  502  0.00000000000E+00  0.00000000000E+00  0.77668917960E+02  0.77668917960E+02  0.00000000000E+00 0. -1.
          1   -1    0    0  503    0 -0.00000000000E+00 -0.00000000000E+00 -0.60647542916E+03  0.60647542916E+03  0.00000000000E+00 0. -1.
         23    2    1    2    0    0  0.47562513160E+01 -0.37499486098E+02 -0.18399001375E+03  0.20859657083E+03  0.90726902393E+02 0.  0.
         23    2    1    2    0    0  0.38200106335E+02 -0.36361678111E+02 -0.26874024780E+03  0.28838335728E+03  0.90345006554E+02 0.  0.
        -11    1    3    3    0    0 -0.13224477186E+02  0.19909896705E+02 -0.12735741173E+02  0.27083018422E+02  0.00000000000E+00 0.  1.
         11    1    3    3    0    0  0.17980728502E+02 -0.57409382803E+02 -0.17125427258E+03  0.18151355241E+03  0.00000000000E+00 0. -1.
        -13    1    4    4    0    0 -0.24986662391E+02 -0.11513625570E+01 -0.12489017590E+03  0.12737038498E+03  0.00000000000E+00 0.  1.
         13    1    4    4    0    0  0.63186768727E+02 -0.35210315554E+02 -0.14385007189E+03  0.16101297229E+03  0.00000000000E+00 0. -1.
         21    1    1    2  503  502 -0.68532963302E+02  0.21093296674E+02 -0.10065292636E+03  0.12358278929E+03  0.00000000000E+00 0.  1.
          1    1    1    2  501    0  0.25576605651E+02  0.52767867536E+02  0.24576676705E+02  0.63581629727E+02  0.00000000000E+00 0. -1.
<scales pt_clust_5="13000.00000" pt_clust_6="13000.00000" pt_clust_7="13000.00000" pt_clust_8="13000.00000" pt_clust_9="71.70564" pt_clust_10="13000.00000"></scales>
<clustering>
<clus scale="   71.706">  1  9  2 -1</clus>
<clus scale="   90.345">  7  8 -1 -1</clus>
<clus scale="   69.757">  7 10 -1 -1</clus>
<clus scale="   90.727">  5  6 -1 -1</clus>
<clus scale="   97.070">  2  5  1 -1</clus>
<clus scale="   71.706">  1  5  2 -1</clus>
</clustering>
</event>
<event>
10    2  0.4951045E-006  0.3915420E+03  0.7546771E-02  0.1083895E+00
         -1   -1    0    0    0  501 -0.00000000000E+00  0.00000000000E+00  0.10246389202E+04  0.10246389202E+04  0.00000000000E+00 0.  1.
         21   -1    0    0  503  502  0.00000000000E+00 -0.00000000000E+00 -0.81802986023E+02  0.81802986023E+02  0.00000000000E+00 0.  1.
         23    2    1    2    0    0 -0.48852571486E+01  0.10547443233E+03  0.25735472515E+03  0.29322657803E+03  0.92745080146E+02 0.  0.
         23    2    1    2    0    0 -0.62117078057E+02  0.97675201920E+02  0.42244493359E+03  0.44750119739E+03  0.91644003033E+02 0.  0.
        -13    1    4    4    0    0 -0.36663391992E+02  0.10414004471E+03  0.39221082507E+03  0.40745390479E+03  0.00000000000E+00 0.  1.
         13    1    4    4    0    0 -0.25453686065E+02 -0.64648427935E+01  0.30234108522E+02  0.40047292602E+02  0.00000000000E+00 0. -1.
        -13    1    3    3    0    0 -0.44161723839E+02  0.25169789587E+02  0.84084558215E+02  0.98254715360E+02  0.00000000000E+00 0. -1.
         13    1    3    3    0    0  0.39276466690E+02  0.80304642746E+02  0.17327016694E+03  0.19497186267E+03  0.00000000000E+00 0.  1.
         21    1    1    2  503  501 -0.24853830426E+02 -0.53310134562E+01  0.19201379322E+01  0.25491557838E+02  0.00000000000E+00 0.  1.
         -1    1    1    2    0  502  0.91856165632E+02 -0.19781862080E+03  0.26111613754E+03  0.34022257301E+03  0.00000000000E+00 0.  1.
<scales pt_clust_5="13000.00000" pt_clust_6="13000.00000" pt_clust_7="13000.00000" pt_clust_8="13000.00000" pt_clust_9="25.41914" pt_clust_10="13000.00000"></scales>
<clustering>
<clus scale="   25.419">  2  9  1 -1</clus>
<clus scale="   91.644">  5  6 -1 -1</clus>
<clus scale="   92.745">  7  8 -1 -1</clus>
<clus scale="  139.882">  1  7  2 -1</clus>
<clus scale="  175.197">  5 10 -1 -1</clus>
<clus scale="   25.419">  2  5  1 -1</clus>
</clustering>
</event>
<event>
10    2  0.4951045E-006  0.3050070E+03  0.7546771E-02  0.1123506E+00
          1   -1    0    0  503    0 -0.00000000000E+00  0.00000000000E+00  0.39041240766E+03  0.39041240766E+03  0.00000000000E+00 0. -1.
         21   -1    0    0  501  502  0.00000000000E+00 -0.00000000000E+00 -0.33916076040E+03  0.33916076040E+03  0.00000000000E+00 0.  1.
         23    2    1    2    0    0  0.36748779422E+02  0.72050861179E+02  0.96312353520E+02  0.14365482940E+03  0.69417873658E+02 0.  0.
         23    2    1    2    0    0 -0.41785683791E+02  0.11586696601E+03  0.54210206455E+02  0.15302293121E+03  0.72842802038E+02 0.  0.
        -11    1    3    3    0    0 -0.14176162401E+02  0.20467525207E+02  0.54637287378E+02  0.60042621033E+02  0.00000000000E+00 0. -1.
         11    1    3    3    0    0  0.50924941823E+02  0.51583335972E+02  0.41675066142E+02  0.83612208365E+02  0.00000000000E+00 0.  1.
        -13    1    4    4    0    0 -0.25285721450E+02  0.22923031066E+02  0.47361565960E+02  0.58377658335E+02  0.00000000000E+00 0.  1.
         13    1    4    4    0    0 -0.16499962341E+02  0.92943934948E+02  0.68486404957E+01  0.94645272874E+02  0.00000000000E+00 0. -1.
         21    1    1    2  503  502  0.11045924198E+03 -0.26681251154E+03 -0.81301700666E+02  0.30000021164E+03  0.00000000000E+00 0.  1.
          1    1    1    2  501    0 -0.10542233761E+03  0.78894684352E+02 -0.17969212052E+02  0.13289519581E+03  0.00000000000E+00 0. -1.
<scales pt_clust_5="13000.00000" pt_clust_6="13000.00000" pt_clust_7="13000.00000" pt_clust_8="13000.00000" pt_clust_9="268.69279" pt_clust_10="13000.00000"></scales>
<clustering>
<clus scale="   69.418">  5  6 -1 -1</clus>
<clus scale="   72.843">  7  8 -1 -1</clus>
<clus scale="  106.586">  1  5  2 -1</clus>
<clus scale="  135.658">  7 10 -1 -1</clus>
<clus scale="  268.693">  2  9  1 -1</clus>
<clus scale="  268.693">  2  5  1 -1</clus>
</clustering>
</event>
<event>
10    2  0.4951045E-006  0.3650938E+03  0.7546771E-02  0.1079875E+00
         21   -1    0    0  503  502  0.00000000000E+00  0.00000000000E+00  0.41669892453E+03  0.41669892453E+03  0.00000000000E+00 0. -1.
         -3   -1    0    0    0  501 -0.00000000000E+00 -0.00000000000E+00 -0.27123273368E+03  0.27123273368E+03  0.00000000000E+00 0.  1.
         23    2    1    2    0    0 -0.16849525843E+03  0.63960111890E+02  0.20120833542E+03  0.28464009657E+03  0.89742087723E+02 0.  0.
         23    2    1    2    0    0  0.18129900758E+03 -0.16836445754E+03 -0.68415873901E+02  0.27013898889E+03  0.84133351321E+02 0.  0.
        -13    1    4    4    0    0  0.66158900634E+02 -0.91772768085E+02  0.56323627709E+01  0.11327384784E+03  0.00000000000E+00 0. -1.
         13    1    4    4    0    0  0.11514010694E+03 -0.76591689456E+02 -0.74048236672E+02  0.15686514104E+03  0.00000000000E+00 0.  1.
        -13    1    3    3    0    0 -0.16896683672E+03  0.35320029089E+02  0.17515658344E+03  0.24592097326E+03  0.00000000000E+00 0. -1.
         13    1    3    3    0    0  0.47157829269E+00  0.28640082802E+02  0.26051751979E+02  0.38719123314E+02  0.00000000000E+00 0.  1.
         21    1    1    2  503  501  0.22335024605E+02  0.10753239251E+02  0.21397473811E+02  0.32746562629E+02  0.00000000000E+00 0.  1.
         -3    1    1    2    0  502 -0.35138773750E+02  0.93651106400E+02 -0.87237444854E+01  0.10040601012E+03  0.00000000000E+00 0.  1.
<scales pt_clust_5="13000.00000" pt_clust_6="13000.00000" pt_clust_7="13000.00000" pt_clust_8="13000.00000" pt_clust_9="24.78882" pt_clust_10="13000.00000"></scales>
<clustering>
<clus scale="   24.789">  1  9  2 -1</clus>
<clus scale="   84.133">  5  6 -1 -1</clus>
<clus scale="   89.742">  7  8 -1 -1</clus>
<clus scale="  100.330">  5 10 -1 -1</clus>
<clus scale="  192.195">  2  7  1 -1</clus>
<clus scale="   24.789">  1  5  2 -1</clus>
</clustering>
</event>
<event>
10    2  0.4951045E-006  0.8982781E+03  0.7546771E-02  0.1006178E+00
          1   -1    0    0  503    0 -0.00000000000E+00  0.00000000000E+00  0.83850704640E+03  0.83850704640E+03  0.00000000000E+00 0. -1.
         21   -1    0    0  501  502  0.00000000000E+00 -0.00000000000E+00 -0.42543191261E+03  0.42543191261E+03  0.00000000000E+00 0. -1.
         23    2    1    2    0    0  0.57020119951E+02  0.22458671460E+02 -0.14917877449E+03  0.18685709192E+03  0.94369380839E+02 0.  0.
         23    2    1    2    0    0  0.21168170333E+03 -0.22966374638E+03  0.62692881162E+03  0.70722475608E+03  0.97839362463E+02 0.  0.
        -11    1    3    3    0    0 -0.18554145359E+02  0.27864942363E+02 -0.26627181428E+02  0.42775204426E+02  0.00000000000E+00 0.  1.
         11    1    3    3    0    0  0.75574265310E+02 -0.54062709025E+01 -0.12255159306E+03  0.14408188749E+03  0.00000000000E+00 0. -1.
        -13    1    4    4    0    0  0.97796883257E+02 -0.15596912717E+03  0.28406026942E+03  0.33849791087E+03  0.00000000000E+00 0. -1.
         13    1    4    4    0    0  0.11388482007E+03 -0.73694619213E+02  0.34286854220E+03  0.36872684521E+03  0.00000000000E+00 0.  1.
         21    1    1    2  503  502 -0.11740453426E+02 -0.16615165767E+02  0.72147809187E+01  0.21585991842E+02  0.00000000000E+00 0. -1.
          1    1    1    2  501    0 -0.25696136986E+03  0.22382024069E+03 -0.71889684261E+02  0.34827111916E+03  0.00000000000E+00 0. -1.
<scales pt_clust_5="13000.00000" pt_clust_6="13000.00000" pt_clust_7="13000.00000" pt_clust_8="13000.00000" pt_clust_9="20.34459" pt_clust_10="13000.00000"></scales>
<clustering>
<clus scale="   20.345">  2  9  1 -1</clus>
<clus scale="   94.369">  5  6 -1 -1</clus>
<clus scale="   97.839">  7  8 -1 -1</clus>
<clus scale="  109.043">  1  5  2 -1</clus>
<clus scale="  334.582">  7 10 -1 -1</clus>
<clus scale="   20.345">  2  5  1 -1</clus>
</clustering>
</event>
<event>
10    2  0.4951045E-006  0.2991017E+03  0.7546771E-02  0.1113193E+00
         21   -1    0    0  501  502  0.00000000000E+00  0.00000000000E+00  0.73894903834E+02  0.73894903834E+02  0.00000000000E+00 0. -1.
          1   -1    0    0  503    0 -0.00000000000E+00 -0.00000000000E+00 -0.11182463503E+04  0.11182463503E+04  0.00000000000E+00 0. -1.
         23    2    1    2    0    0  0.11249950219E+03 -0.26410783110E+02 -0.66749952339E+03  0.68350203213E+03  0.90916152257E+02 0.  0.
         23    2    1    2    0    0 -0.17771907696E+03  0.65867797097E+02 -0.24754034326E+03  0.32511261869E+03  0.92191953446E+02 0.  0.
        -11    1    4    4    0    0 -0.16035293056E+03  0.84192372121E+02 -0.19112661669E+03  0.26330742767E+03  0.00000000000E+00 0. -1.
         11    1    4    4    0    0 -0.17366146402E+02 -0.18324575025E+02 -0.56413726573E+02  0.61805191016E+02  0.00000000000E+00 0.  1.
        -13    1    3    3    0    0  0.61249393660E+02  0.31350149872E+02 -0.35469033649E+03  0.36130258084E+03  0.00000000000E+00 0.  1.
         13    1    3    3    0    0  0.51250108527E+02 -0.57760932982E+02 -0.31280918691E+03  0.32219945130E+03  0.00000000000E+00 0. -1.
         21    1    1    2  503  502 -0.14873385688E+02 -0.29564531966E+02 -0.85539349110E+02  0.91718370016E+02  0.00000000000E+00 0. -1.
          1    1    1    2  501    0  0.80092960460E+02 -0.98924820203E+01 -0.43772230652E+02  0.91808233247E+02  0.00000000000E+00 0. -1.
<scales pt_clust_5="13000.00000" pt_clust_6="13000.00000" pt_clust_7="13000.00000" pt_clust_8="13000.00000" pt_clust_9="33.09502" pt_clust_10="13000.00000"></scales>
<clustering>
<clus scale="   33.095">  1  9  2 -1</clus>
<clus scale="   90.916">  7  8 -1 -1</clus>
<clus scale="   92.192">  5  6 -1 -1</clus>
<clus scale="   77.647">  5 10 -1 -1</clus>
<clus scale="  146.396">  2  7  1 -1</clus>
<clus scale="   33.095">  1  5  2 -1</clus>
</clustering>
</event>
<event>
10    2  0.4951045E-006  0.4343598E+03  0.7546771E-02  0.1063319E+00
         21   -1    0    0  503  502  0.00000000000E+00  0.00000000000E+00  0.12576335377E+03  0.12576335377E+03  0.00000000000E+00 0.  1.
         -3   -1    0    0    0  501 -0.00000000000E+00 -0.00000000000E+00 -0.10255709810E+04  0.10255709810E+04  0.00000000000E+00 0.  1.
         23    2    1    2    0    0  0.41646085150E+02  0.14959038880E+03 -0.24957789818E+03  0.30833757467E+03  0.93119556827E+02 0.  0.
         23    2    1    2    0    0 -0.10530365722E+03  0.83077822003E+02 -0.48847311089E+03  0.51381060673E+03  0.86049839008E+02 0.  0.
        -13    1    3    3    0    0  0.65297356784E+02  0.14169148021E+03 -0.21133972284E+03  0.26268745462E+03  0.00000000000E+00 0.  1.
         13    1    3    3    0    0 -0.23651271634E+02  0.78989085892E+01 -0.38238175341E+02  0.45650120046E+02  0.00000000000E+00 0. -1.
        -13    1    4    4    0    0 -0.37105702540E+02  0.47673699112E+02 -0.92703507883E+02  0.11065059928E+03  0.00000000000E+00 0.  1.
         13    1    4    4    0    0 -0.68197954683E+02  0.35404122891E+02 -0.39576960301E+03  0.40316000745E+03  0.00000000000E+00 0. -1.
         21    1    1    2  503  501  0.29906346384E+02 -0.15230239798E+02  0.23968563732E+02  0.41241263387E+02  0.00000000000E+00 0.  1.
         -3    1    1    2    0  502  0.33751225689E+02 -0.21743797100E+03 -0.18572518186E+03  0.28794488995E+03  0.00000000000E+00 0.  1.
<scales pt_clust_5="13000.00000" pt_clust_6="13000.00000" pt_clust_7="13000.00000" pt_clust_8="13000.00000" pt_clust_9="33.56113" pt_clust_10="13000.00000"></scales>
<clustering>
<clus scale="   33.561">  1  9  2 -1</clus>
<clus scale="   86.050">  7  8 -1 -1</clus>
<clus scale="   93.120">  5  6 -1 -1</clus>
<clus scale="  179.565">  2  5  1 -1</clus>
<clus scale="  187.151">  7 10 -1 -1</clus>
<clus scale="   33.561">  1  5  2 -1</clus>
</clustering>
</event>
<event>
10    2  0.4951045E-006  0.5182153E+03  0.7546771E-02  0.1061350E+00
          2   -1    0    0  503    0 -0.00000000000E+00  0.00000000000E+00  0.35700140703E+03  0.35700140703E+03  0.00000000000E+00 0. -1.
         21   -1    0    0  501  502  0.00000000000E+00 -0.00000000000E+00 -0.49725852075E+03  0.49725852075E+03  0.00000000000E+00 0. -1.
         23    2    1    2    0    0  0.65766624010E+02  0.26134022046E+02  0.18872209570E+02  0.11672808223E+03  0.90890312717E+02 0.  0.
         23    2    1    2    0    0  0.10478054475E+03  0.15390946698E+02  0.23937193770E+03  0.27777883341E+03  0.92985546909E+02 0.  0.
        -11    1    4    4    0    0  0.50971641400E+02  0.42821856311E+01  0.20865179538E+03  0.21483020518E+03  0.00000000000E+00 0. -1.
         11    1    4    4    0    0  0.53808903349E+02  0.11108761067E+02  0.30720142316E+02  0.62948628230E+02  0.00000000000E+00 0.  1.
        -11    1    3    3    0    0  0.19029689957E+02 -0.24240594814E+02 -0.20989744911E+02  0.37286792947E+02  0.00000000000E+00 0.  1.
         11    1    3    3    0    0  0.46736934052E+02  0.50374616860E+02  0.39861954481E+02  0.79441289286E+02  0.00000000000E+00 0. -1.
         21    1    1    2  503  502 -0.64899621619E+02  0.51464933217E+02 -0.19950057094E+03  0.21601175441E+03  0.00000000000E+00 0. -1.
          2    1    1    2  501    0 -0.10564754714E+03 -0.92989901961E+02 -0.19900069005E+03  0.24374125774E+03  0.00000000000E+00 0. -1.
<scales pt_clust_5="13000.00000" pt_clust_6="13000.00000" pt_clust_7="13000.00000" pt_clust_8="13000.00000" pt_clust_9="82.82874" pt_clust_10="13000.00000"></scales>
<clustering>
<clus scale="   82.829">  2  9  1 -1</clus>
<clus scale="   90.890">  7  8 -1 -1</clus>
<clus scale="   92.986">  5  6 -1 -1</clus>
<clus scale="  111.701">  1  7  2 -1</clus>
<clus scale="  155.496">  5 10 -1 -1</clus>
<clus scale="   82.829">  2  5  1 -1</clus>
</clustering>
</event>
<event>
10    2  0.4951045E-006  0.1749770E+03  0.7546771E-02  0.1200088E+00
         -1   -1    0    0    0  501 -0.00000000000E+00  0.00000000000E+00  0.55785001053E+03  0.55785001053E+03  0.00000000000E+00 0.  1.
         21   -1    0    0  503  502  0.00000000000E+00 -0.00000000000E+00 -0.21271991660E+03  0.21271991660E+03  0.00000000000E+00 0.  1.
         23    2    1    2    0    0  0.11900539437E+02 -0.23726240025E+02  0.27087997822E+03  0.28704700019E+03  0.91189146353E+02 0.  0.
         23    2    1    2    0    0  0.26716475082E+02 -0.24112967941E+02  0.20741477416E+03  0.22917323478E+03  0.90577468162E+02 0.  0.
        -11    1    4    4    0    0  0.45411092832E+02 -0.44288997597E+02  0.17769971349E+03  0.18868193034E+03  0.00000000000E+00 0.  1.
         11    1    4    4    0    0 -0.18694617750E+02  0.20176029655E+02  0.29715060664E+02  0.40491304446E+02  0.00000000000E+00 0. -1.
        -13    1    3    3    0    0  0.27057435037E+02  0.20698086605E+02  0.45549236158E+02  0.56879244848E+02  0.00000000000E+00 0. -1.
         13    1    3    3    0    0 -0.15156895599E+02 -0.44424326630E+02  0.22533074206E+03  0.23016775534E+03  0.00000000000E+00 0.  1.
         21    1    1    2  503  501 -0.40925635463E+02 -0.17415559628E+02 -0.17248619757E+03  0.17812831810E+03  0.00000000000E+00 0.  1.
         -1    1    1    2    0  502  0.23086209441E+01  0.65254767594E+02  0.39321539120E+02  0.76221374058E+02  0.00000000000E+00 0.  1.
<scales pt_clust_5="13000.00000" pt_clust_6="13000.00000" pt_clust_7="13000.00000" pt_clust_8="13000.00000" pt_clust_9="44.47707" pt_clust_10="13000.00000"></scales>
<clustering>
<clus scale="   44.477">  2  9  1 -1</clus>
<clus scale="   90.577">  5  6 -1 -1</clus>
<clus scale="   59.418">  5 10 -1 -1</clus>
<clus scale="   91.189">  7  8 -1 -1</clus>
<clus scale="   95.291">  1  7  2 -1</clus>
<clus scale="   44.477">  2  5  1 -1</clus>
</clustering>
</event>
<event>
10    2  0.4951045E-006  0.3803062E+03  0.7546771E-02  0.1061149E+00
         21   -1    0    0  503  502  0.00000000000E+00  0.00000000000E+00  0.68209429643E+03  0.68209429643E+03  0.00000000000E+00 0.  1.
         -1   -1    0    0    0  501 -0.00000000000E+00 -0.00000000000E+00 -0.30892439518E+03  0.30892439518E+03  0.00000000000E+00 0.  1.
         23    2    1    2    0    0 -0.58709426878E+02  0.26287995018E+03 -0.33397954269E+02  0.28614392638E+03  0.90610475340E+02 0.  0.
         23    2    1    2    0    0 -0.56842544398E+02 -0.32066635406E+02 -0.24514496035E+02  0.11490496071E+03  0.91339178453E+02 0.  0.
        -13    1    3    3    0    0 -0.68984967593E+02  0.24044272984E+03 -0.51686951716E+02  0.25542743209E+03  0.00000000000E+00 0.  1.
         13    1    3    3    0    0  0.10275540715E+02  0.22437220342E+02  0.18288997447E+02  0.30716494287E+02  0.00000000000E+00 0. -1.
        -13    1    4    4    0    0 -0.61889202590E+02 -0.29903314423E+01 -0.47027668477E+02  0.77786998153E+02  0.00000000000E+00 0.  1.
         13    1    4    4    0    0  0.50466581918E+01 -0.29076303963E+02  0.22513172442E+02  0.37117962558E+02  0.00000000000E+00 0. -1.
         21    1    1    2  503  501  0.37544248327E+02  0.74736005480E+01  0.30852149369E+03  0.31088733869E+03  0.00000000000E+00 0.  1.
         -1    1    1    2    0  502  0.78007722949E+02 -0.23828691532E+03  0.12256085786E+03  0.27908246583E+03  0.00000000000E+00 0.  1.
<scales pt_clust_5="13000.00000" pt_clust_6="13000.00000" pt_clust_7="13000.00000" pt_clust_8="13000.00000" pt_clust_9="38.28087" pt_clust_10="13000.00000"></scales>
<clustering>
<clus scale="   38.281">  1  9  2 -1</clus>
<clus scale="   90.610">  5  6 -1 -1</clus>
<clus scale="   91.339">  7  8 -1 -1</clus>
<clus scale="  254.028">  7 10 -1 -1</clus>
<clus scale="  284.199">  2  5  1 -1</clus>
<clus scale="   38.281">  1  5  2 -1</clus>
</clustering>
</event>
<event>
10    2  0.4951045E-006  0.2403443E+03  0.7546771E-02  0.1153338E+00
          2   -1    0    0  503    0 -0.00000000000E+00  0.00000000000E+00  0.61656552712E+03  0.61656552712E+03  0.00000000000E+00 0. -1.
         21   -1    0    0  501  502  0.00000000000E+00 -0.00000000000E+00 -0.12747403128E+03  0.12747403128E+03  0.00000000000E+00 0. -1.
         23    2    1    2    0    0 -0.12074074538E+02  0.12263369337E+02  0.29274635401E+03  0.31125419852E+03  0.10431958017E+03 0.  0.
         23    2    1    2    0    0  0.65154286179E+02  0.33364400098E+02  0.28471858267E+03  0.30795762969E+03  0.91733124677E+02 0.  0.
        -11    1    4    4    0    0  0.21433852374E+02  0.44499990564E+02  0.55307846519E+02  0.74152660602E+02  0.00000000000E+00 0.  1.
         11    1    4    4    0    0  0.43720433806E+02 -0.11135590466E+02  0.22941073615E+03  0.23380496909E+03  0.00000000000E+00 0. -1.
        -13    1    3    3    0    0 -0.55640688271E+02 -0.69626525989E+01  0.18813948081E+03  0.19631818296E+03  0.00000000000E+00 0.  1.
         13    1    3    3    0    0  0.43566613733E+02  0.19226021935E+02  0.10460687320E+03  0.11493601556E+03  0.00000000000E+00 0. -1.
         21    1    1    2  503  502 -0.16994084745E+02 -0.13809877198E+02 -0.69972130023E+02  0.73318555663E+02  0.00000000000E+00 0. -1.
          2    1    1    2  501    0 -0.36086126897E+02 -0.31817892236E+02 -0.18401310811E+02  0.51509174526E+02  0.00000000000E+00 0. -1.
<scales pt_clust_5="13000.00000" pt_clust_6="13000.00000" pt_clust_7="13000.00000" pt_clust_8="13000.00000" pt_clust_9="21.89775" pt_clust_10="13000.00000"></scales>
<clustering>
<clus scale="   21.898">  2  9  1 -1</clus>
<clus scale="   91.733">  5  6 -1 -1</clus>
<clus scale="   61.812">  5 10 -1 -1</clus>
<clus scale="  104.320">  7  8 -1 -1</clus>
<clus scale="  105.848">  1  7  2 -1</clus>
<clus scale="   21.898">  2  5  1 -1</clus>
</clustering>
</event>
<event>
10    2  0.4951045E-006  0.3540166E+03  0.7546771E-02  0.1076837E+00
          2   -1    0    0  503    0 -0.00000000000E+00  0.00000000000E+00  0.96298688158E+03  0.96298688158E+03  0.00000000000E+00 0. -1.
         21   -1    0    0  501  502  0.00000000000E+00 -0.00000000000E+00 -0.14957955809E+03  0.14957955809E+03  0.00000000000E+00 0. -1.
         23    2    1    2    0    0 -0.41215383185E+02  0.20025910335E+03  0.45508766684E+03  0.50755926641E+03  0.93323138193E+02 0.  0.
         23    2    1    2    0    0  0.58648581708E+02 -0.27641669046E+03  0.33619301681E+03  0.44876317512E+03  0.92286509796E+02 0.  0.
        -13    1    4    4    0    0 -0.52733092612E+01 -0.18712283600E+03  0.22063300122E+03  0.28934699716E+03  0.00000000000E+00 0. -1.
         13    1    4    4    0    0  0.63921890969E+02 -0.89293854464E+02  0.11556001559E+03  0.15941617795E+03  0.00000000000E+00 0.  1.
        -13    1    3    3    0    0  0.28471114050E+02  0.76449797927E+02  0.19069139097E+03  0.20740873301E+03  0.00000000000E+00 0.  1.
         13    1    3    3    0    0 -0.69686497235E+02  0.12380930543E+03  0.26439627586E+03  0.30015053340E+03  0.00000000000E+00 0. -1.
         21    1    1    2  503  502 -0.20077585043E+02  0.12169998347E+02 -0.52735862925E+02  0.57725986517E+02  0.00000000000E+00 0. -1.
          2    1    1    2  501    0  0.26443865209E+01  0.63987588759E+02  0.74862502769E+02  0.98518011633E+02  0.00000000000E+00 0. -1.
<scales pt_clust_5="13000.00000" pt_clust_6="13000.00000" pt_clust_7="13000.00000" pt_clust_8="13000.00000" pt_clust_9="23.47804" pt_clust_10="13000.00000"></scales>
<clustering>
<clus scale="   23.478">  2  9  1 -1</clus>
<clus scale="   92.287">  5  6 -1 -1</clus>
<clus scale="   65.513">  5 10 -1 -1</clus>
<clus scale="   93.323">  7  8 -1 -1</clus>
<clus scale="  228.845">  1  7  2 -1</clus>
<clus scale="   23.478">  2  5  1 -1</clus>
</clustering>
</event>
<event>
10    2  0.4951045E-006  0.4259278E+03  0.7546771E-02  0.1052996E+00
         21   -1    0    0  501  502  0.00000000000E+00  0.00000000000E+00  0.96865388338E+03  0.96865388338E+03  0.00000000000E+00 0. -1.
          3   -1    0    0  503    0 -0.00000000000E+00 -0.00000000000E+00 -0.34301551401E+03  0.34301551401E+03  0.00000000000E+00 0. -1.
         23    2    1    2    0    0  0.19214476058E+03  0.28040764418E+03  0.39913821373E+03  0.53209174880E+03  0.90896972169E+02 0.  0.
         23    2    1    2    0    0 -0.62593804424E+02  0.68740562103E+02 -0.11250140544E+03  0.17230079801E+03  0.91584657760E+02 0.  0.
        -11    1    4    4    0    0 -0.40640630402E+02  0.67642968674E+02 -0.26053853307E+02  0.83102559062E+02  0.00000000000E+00 0. -1.
         11    1    4    4    0    0 -0.21953174022E+02  0.10975934298E+01 -0.86447552133E+02  0.89198238944E+02  0.00000000000E+00 0.  1.
        -13    1    3    3    0    0  0.16019204535E+03  0.24684999265E+03  0.38306206263E+03  0.48304549899E+03  0.00000000000E+00 0. -1.
         13    1    3    3    0    0  0.31952715223E+02  0.33557651532E+02  0.16076151098E+02  0.49046249811E+02  0.00000000000E+00 0.  1.
         21    1    1    2  503  502 -0.91932951687E+02 -0.10359268812E+03  0.33090839105E+03  0.35872479132E+03  0.00000000000E+00 0. -1.
          3    1    1    2  501    0 -0.37618004466E+02 -0.24555551816E+03  0.80931700256E+01  0.24855205926E+03  0.00000000000E+00 0. -1.
<scales pt_clust_5="13000.00000" pt_clust_6="13000.00000" pt_clust_7="13000.00000" pt_clust_8="13000.00000" pt_clust_9="138.50311" pt_clust_10="13000.00000"></scales>
<clustering>
<clus scale="   90.897">  7  8 -1 -1</clus>
<clus scale="   91.585">  5  6 -1 -1</clus>
<clus scale="  138.503">  1  9  2 -1</clus>
<clus scale="  254.493">  2  7  1 -1</clus>
<clus scale="  164.446">  5 10 -1 -1</clus>
<clus scale="  138.503">  1  5  2 -1</clus>
</clustering>
</event>
<event>
10    2  0.4951045E-006  0.7014550E+03  0.7546771E-02  0.9987631E-01
          1   -1    0    0  502    0 -0.00000000000E+00  0.00000000000E+00  0.83810165262E+03  0.83810165262E+03  0.00000000000E+00 0. -1.
         21   -1    0    0  503  502  0.00000000000E+00 -0.00000000000E+00 -0.39026899490E+03  0.39026899490E+03  0.00000000000E+00 0. -1.
         23    2    1    2    0    0 -0.12945209600E+03 -0.24593273094E+03  0.27667487276E+03  0.40257739995E+03  0.90988045550E+02 0.  0.
         23    2    1    2    0    0  0.13926374455E+03  0.45522832794E+03  0.15949678804E+03  0.50995871552E+03  0.89394882603E+02 0.  0.
        -11    1    3    3    0    0 -0.10848112195E+03 -0.18247817357E+03  0.25611131025E+03  0.33265513807E+03  0.00000000000E+00 0.  1.
         11    1    3    3    0    0 -0.20970974051E+02 -0.63454557371E+02  0.20563562508E+02  0.69922261883E+02  0.00000000000E+00 0. -1.
        -11    1    4    4    0    0  0.20195900498E+02  0.97849801749E+02  0.72241229285E+02  0.12329336279E+03  0.00000000000E+00 0.  1.
         11    1    4    4    0    0  0.11906784405E+03  0.35737852619E+03  0.87255558755E+02  0.38666535273E+03  0.00000000000E+00 0. -1.
         21    1    1    2  503  501  0.51587543272E+02 -0.56712352112E+01 -0.70751880459E+02  0.87745462094E+02  0.00000000000E+00 0.  1.
          1    1    1    2  501    0 -0.61399191818E+02 -0.20362436180E+03  0.82412877390E+02  0.22808906995E+03  0.00000000000E+00 0. -1.
<scales pt_clust_5="13000.00000" pt_clust_6="13000.00000" pt_clust_7="13000.00000" pt_clust_8="13000.00000" pt_clust_9="51.89834" pt_clust_10="13000.00000"></scales>
<clustering>
<clus scale="   51.898">  2  9  1 -1</clus>
<clus scale="   89.395">  7  8 -1 -1</clus>
<clus scale="   90.988">  5  6 -1 -1</clus>
<clus scale="  210.803">  7 10 -1 -1</clus>
<clus scale="  288.948">  1  5  2 -1</clus>
<clus scale="   51.898">  2  5  1 -1</clus>
</clustering>
</event>
<event>
10    2  0.4951045E-006  0.3801045E+03  0.7546771E-02  0.1085876E+00
          1   -1    0    0  502    0 -0.00000000000E+00  0.00000000000E+00  0.69922738551E+03  0.69922738551E+03  0.00000000000E+00 0. -1.
         21   -1    0    0  503  502  0.00000000000E+00 -0.00000000000E+00 -0.13470184763E+03  0.13470184763E+03  0.00000000000E+00 0.  1.
         23    2    1    2    0    0 -0.16321841179E+02  0.12125715294E+03  0.27320135385E+03  0.31275124066E+03  0.90579573566E+02 0.  0.
         23    2    1    2    0    0  0.13853008510E+03 -0.13226368034E+03  0.24985442494E+03  0.32777890221E+03  0.91255188683E+02 0.  0.
        -11    1    4    4    0    0  0.90711491036E+02 -0.86746243168E+02  0.88889029589E+02  0.15380099119E+03  0.00000000000E+00 0.  1.
         11    1    4    4    0    0  0.47818594061E+02 -0.45517437173E+02  0.16096539535E+03  0.17397791102E+03  0.00000000000E+00 0. -1.
        -11    1    3    3    0    0  0.27525866752E+02  0.33590112530E+02  0.37123121936E+02  0.57132260435E+02  0.00000000000E+00 0.  1.
         11    1    3    3    0    0 -0.43847707931E+02  0.87667040415E+02  0.23607823191E+03  0.25561898022E+03  0.00000000000E+00 0. -1.
         21    1    1    2  503  501 -0.68969999953E+00 -0.51128896062E+02  0.13878471603E+01  0.51152378423E+02  0.00000000000E+00 0.  1.
          1    1    1    2  501    0 -0.12151854392E+03  0.62135423458E+02  0.40081911934E+02  0.14224671184E+03  0.00000000000E+00 0. -1.
<scales pt_clust_5="13000.00000" pt_clust_6="13000.00000" pt_clust_7="13000.00000" pt_clust_8="13000.00000" pt_clust_9="51.13355" pt_clust_10="13000.00000"></scales>
<clustering>
<clus scale="   51.134">  2  9  1 -1</clus>
<clus scale="   90.580">  7  8 -1 -1</clus>
<clus scale="   91.255">  5  6 -1 -1</clus>
<clus scale="  127.733">  5 10 -1 -1</clus>
<clus scale="  145.019">  1  7  2 -1</clus>
<clus scale="   51.134">  2  5  1 -1</clus>
</clustering>
</event>
<event>
10    2  0.4951045E-006  0.2859800E+03  0.7546771E-02  0.1117845E+00
          1   -1    0    0  502    0 -0.00000000000E+00  0.00000000000E+00  0.44812859337E+03  0.44812859337E+03  0.00000000000E+00 0. -1.
         21   -1    0    0  503  502  0.00000000000E+00 -0.00000000000E+00 -0.17757620165E+03  0.17757620165E+03  0.00000000000E+00 0. -1.
         23    2    1    2    0    0  0.10691838343E+03  0.50873363907E+02  0.14650094404E+03  0.20377751771E+03  0.77737444323E+02 0.  0.
         23    2    1    2    0    0 -0.11361523272E+03  0.46409754937E+02  0.56483706407E+02  0.16203231895E+03  0.89452651367E+02 0.  0.
        -11    1    4    4    0    0 -0.57516452624E+02 -0.19697530199E+02  0.45492046708E+01  0.60965812399E+02  0.00000000000E+00 0.  1.
         11    1    4    4    0    0 -0.56098780094E+02  0.66107285136E+02  0.51934501737E+02  0.10106650655E+03  0.00000000000E+00 0. -1.
        -13    1    3    3    0    0  0.77195896274E+01  0.31603683637E+02  0.69477851245E+02  0.76717381975E+02  0.00000000000E+00 0.  1.
         13    1    3    3    0    0  0.99198793806E+02  0.19269680269E+02  0.77023092791E+02  0.12706013574E+03  0.00000000000E+00 0. -1.
         21    1    1    2  503  501  0.16198426994E+02  0.43238434142E+02 -0.55964701521E+02  0.72553421976E+02  0.00000000000E+00 0.  1.
          1    1    1    2  501    0 -0.95015777098E+01 -0.14052155299E+03  0.12353244280E+03  0.18734153639E+03  0.00000000000E+00 0. -1.
<scales pt_clust_5="13000.00000" pt_clust_6="13000.00000" pt_clust_7="13000.00000" pt_clust_8="13000.00000" pt_clust_9="46.17306" pt_clust_10="13000.00000"></scales>
<clustering>
<clus scale="   46.173">  2  9  1 -1</clus>
<clus scale="   77.737">  7  8 -1 -1</clus>
<clus scale="   89.453">  5  6 -1 -1</clus>
<clus scale="  128.443">  5 10 -1 -1</clus>
<clus scale="  148.950">  1  7  2 -1</clus>
<clus scale="   46.173">  2  5  1 -1</clus>
</clustering>
</event>
<event>
10    2  0.4951045E-006  0.8384043E+03  0.7546771E-02  0.9965485E-01
          2   -1    0    0  503    0 -0.00000000000E+00  0.00000000000E+00  0.11663240993E+04  0.11663240993E+04  0.00000000000E+00 0.  1.
         21   -1    0    0  501  502  0.00000000000E+00 -0.00000000000E+00 -0.69600824606E+03  0.69600824606E+03  0.00000000000E+00 0. -1.
         23    2    1    2    0    0 -0.13104426633E+03  0.85519681221E+02  0.31267963375E+03  0.36154790160E+03  0.91989761250E+02 0.  0.
         23    2    1    2    0    0  0.58971883631E+02  0.36973657967E+03  0.56961610497E+03  0.68833352444E+03  0.95695937319E+02 0.  0.
        -11    1    4    4    0    0  0.19499309376E+02  0.16323637363E+03  0.33589440278E+03  0.37396709288E+03  0.00000000000E+00 0.  1.
         11    1    4    4    0    0  0.39472574254E+02  0.20650020604E+03  0.23372170220E+03  0.31436643156E+03  0.00000000000E+00 0. -1.
        -13    1    3    3    0    0 -0.11147700967E+03  0.71664571158E+02  0.31034749563E+03  0.33745889007E+03  0.00000000000E+00 0. -1.
         13    1    3    3    0    0 -0.19567256663E+02  0.13855110063E+02  0.23321381184E+01  0.24089011528E+02  0.00000000000E+00 0.  1.
         21    1    1    2  503  502  0.20882037328E+03 -0.50436549631E+03 -0.26886357086E+03  0.60850482488E+03  0.00000000000E+00 0. -1.
          2    1    1    2  501    0 -0.13674799058E+03  0.49109235427E+02 -0.14311631461E+03  0.20394609445E+03  0.00000000000E+00 0.  1.
<scales pt_clust_5="13000.00000" pt_clust_6="13000.00000" pt_clust_7="13000.00000" pt_clust_8="13000.00000" pt_clust_9="519.75172" pt_clust_10="13000.00000"></scales>
<clustering>
<clus scale="   91.990">  7  8 -1 -1</clus>
<clus scale="   95.696">  5  6 -1 -1</clus>
<clus scale="  145.299">  5 10 -1 -1</clus>
<clus scale="  181.517">  1  7  2 -1</clus>
<clus scale="  519.752">  2  9  1 -1</clus>
<clus scale="  519.752">  2  5  1 -1</clus>
</clustering>
</event>
<event>
10    2  0.4951045E-006  0.3531562E+03  0.7546771E-02  0.1107713E+00
         21   -1    0    0  503  502  0.00000000000E+00  0.00000000000E+00  0.22864036339E+03  0.22864036339E+03  0.00000000000E+00 0.  1.
         -1   -1    0    0    0  501 -0.00000000000E+00 -0.00000000000E+00 -0.40594178691E+03  0.40594178691E+03  0.00000000000E+00 0.  1.
         23    2    1    2    0    0 -0.20260609009E+02 -0.19279520304E+02 -0.54179484514E+02  0.11413232223E+03  0.96480973537E+02 0.  0.
         23    2    1    2    0    0  0.12140954187E+03  0.55194906104E+02 -0.27517684066E+03  0.31678695904E+03  0.82734087673E+02 0.  0.
        -11    1    4    4    0    0  0.91398222716E+02  0.63771333433E+02 -0.25826969394E+03  0.28128926906E+03  0.00000000000E+00 0.  1.
         11    1    4    4    0    0  0.30011319158E+02 -0.85764273293E+01 -0.16907146725E+02  0.35497689978E+02  0.00000000000E+00 0. -1.
        -13    1    3    3    0    0 -0.24017391553E+02 -0.50797387391E+02 -0.60982565471E+01  0.56519009153E+02  0.00000000000E+00 0.  1.
         13    1    3    3    0    0  0.37567825439E+01  0.31517867087E+02 -0.48081227967E+02  0.57613313076E+02  0.00000000000E+00 0. -1.
         21    1    1    2  503  501 -0.44860932824E+02  0.20111853301E+02  0.91208239698E+02  0.10361434710E+03  0.00000000000E+00 0.  1.
         -1    1    1    2    0  502 -0.56288000041E+02 -0.56027239102E+02  0.60846661954E+02  0.10004852193E+03  0.00000000000E+00 0.  1.
<scales pt_clust_5="13000.00000" pt_clust_6="13000.00000" pt_clust_7="13000.00000" pt_clust_8="13000.00000" pt_clust_9="49.16289" pt_clust_10="13000.00000"></scales>
<clustering>
<clus scale="   49.163">  1  9  2 -1</clus>
<clus scale="   82.734">  5  6 -1 -1</clus>
<clus scale="   94.499">  5 10 -1 -1</clus>
<clus scale="   96.481">  7  8 -1 -1</clus>
<clus scale="  102.250">  2  7  1 -1</clus>
<clus scale="   49.163">  1  5  2 -1</clus>
</clustering>
</event>
<event>
10    2  0.4951045E-006  0.6102353E+03  0.7546771E-02  0.1020913E+00
         21   -1    0    0  503  502  0.00000000000E+00  0.00000000000E+00  0.26015710093E+03  0.26015710093E+03  0.00000000000E+00 0. -1.
          2   -1    0    0  502    0 -0.00000000000E+00 -0.00000000000E+00 -0.12546177910E+04  0.12546177910E+04  0.00000000000E+00 0. -1.
         23    2    1    2    0    0  0.21138325438E+03 -0.13289317337E+02 -0.49551652939E+03  0.54658834137E+03  0.91447787510E+02 0.  0.
         23    2    1    2    0    0 -0.57269353978E+02  0.23033080714E+03 -0.61736610448E+03  0.66756168717E+03  0.90363928605E+02 0.  0.
        -13    1    4    4    0    0 -0.53700512273E+02  0.57080605227E+02 -0.15273365226E+03  0.17166685482E+03  0.00000000000E+00 0.  1.
         13    1    4    4    0    0 -0.35688417046E+01  0.17325020191E+03 -0.46463245221E+03  0.49589483234E+03  0.00000000000E+00 0. -1.
        -13    1    3    3    0    0  0.10457111571E+03  0.13217978744E+02 -0.14541937933E+03  0.17960130592E+03  0.00000000000E+00 0.  1.
         13    1    3    3    0    0  0.10681213867E+03 -0.26507296081E+02 -0.35009715005E+03  0.36698703545E+03  0.00000000000E+00 0. -1.
         21    1    1    2  503  501 -0.68536530881E+02 -0.76061204080E+02  0.83335894225E+02  0.13201300730E+03  0.00000000000E+00 0. -1.
          2    1    1    2  501    0 -0.85577369523E+02 -0.14098028572E+03  0.35086049581E+02  0.16861185608E+03  0.00000000000E+00 0. -1.
<scales pt_clust_5="13000.00000" pt_clust_6="13000.00000" pt_clust_7="13000.00000" pt_clust_8="13000.00000" pt_clust_9="102.38439" pt_clust_10="13000.00000"></scales>
<clustering>
<clus scale="   90.364">  5  6 -1 -1</clus>
<clus scale="   91.448">  7  8 -1 -1</clus>
<clus scale="  102.384">  1  9  2 -1</clus>
<clus scale="  221.365">  2  7  1 -1</clus>
<clus scale="  216.800">  5 10 -1 -1</clus>
<clus scale="  102.384">  1  5  2 -1</clus>
</clustering>
</event>
<event>
10    2  0.4951045E-006  0.6580989E+03  0.7546771E-02  0.1024687E+00
         21   -1    0    0  501  502  0.00000000000E+00  0.00000000000E+00  0.16695123227E+04  0.16695123227E+04  0.00000000000E+00 0.  1.
         -1   -1    0    0    0  501 -0.00000000000E+00 -0.00000000000E+00 -0.28789553321E+03  0.28789553321E+03  0.00000000000E+00 0.  1.
         23    2    1    2    0    0 -0.12776395621E+03 -0.10972779064E+02  0.19241504447E+03  0.24867894414E+03  0.91507581833E+02 0.  0.
         23    2    1    2    0    0 -0.28697729236E+03  0.52000392286E+02 -0.96789105062E+02  0.32074980662E+03  0.91936393559E+02 0.  0.
        -11    1    4    4    0    0 -0.12289991704E+03 -0.32216623128E+01 -0.11071201159E+01  0.12294712047E+03  0.00000000000E+00 0. -1.
         11    1    4    4    0    0 -0.16407737532E+03  0.55222054599E+02 -0.95681984946E+02  0.19780268615E+03  0.00000000000E+00 0.  1.
        -13    1    3    3    0    0 -0.13120270826E+03  0.14137161746E+02  0.15628202445E+03  0.20454359233E+03  0.00000000000E+00 0.  1.
         13    1    3    3    0    0  0.34387520565E+01 -0.25109940810E+02  0.36133020025E+02  0.44135351809E+02  0.00000000000E+00 0. -1.
         21    1    1    2  503  502  0.19780784417E+03 -0.60723411288E+02  0.10357360377E+04  0.10562028288E+04  0.00000000000E+00 0.  1.
         -1    1    1    2    0  503  0.21693340440E+03  0.19695798066E+02  0.25025481248E+03  0.33177627639E+03  0.00000000000E+00 0.  1.
<scales pt_clust_5="13000.00000" pt_clust_6="13000.00000" pt_clust_7="13000.00000" pt_clust_8="13000.00000" pt_clust_9="202.24257" pt_clust_10="13000.00000"></scales>
<clustering>
<clus scale="   91.508">  7  8 -1 -1</clus>
<clus scale="   91.936">  5  6 -1 -1</clus>
<clus scale="  157.536">  2  7  1 -1</clus>
<clus scale="  197.704">  5 10 -1 -1</clus>
<clus scale="  202.243">  1  9  2 -1</clus>
<clus scale="  202.243">  1  5  2 -1</clus>
</clustering>
</event>
<event>
10    2  0.5358718E-006  0.2986806E+03  0.7546771E-02  0.1121643E+00
         21   -1    0    0  503  502  0.00000000000E+00  0.00000000000E+00  0.31147304051E+03  0.31147304051E+03  0.00000000000E+00 0.  1.
          2   -1    0    0  502    0 -0.00000000000E+00 -0.00000000000E+00 -0.85224916579E+03  0.85224916579E+03  0.00000000000E+00 0. -1.
         23    2    1    2    0    0  0.51312178796E+02  0.74523109307E+02 -0.16334491734E+03  0.20620159421E+03  0.87469434206E+02 0.  0.
         23    2    1    2    0    0 -0.15364896756E+02 -0.84511023831E+02 -0.62556011569E+03  0.64050882557E+03  0.10746117476E+03 0.  0.
        -13    1    4    4    0    0 -0.50076240829E+02 -0.89448129948E+02 -0.46620510649E+03  0.47734243386E+03  0.00000000000E+00 0. -1.
         13    1    4    4    0    0  0.34711344073E+02  0.49371061171E+01 -0.15935500920E+03  0.16316639171E+03  0.00000000000E+00 0.  1.
        -13    1    3    3    0    0 -0.13364467349E+02  0.46249302351E+02 -0.34293035040E+02  0.59106845692E+02  0.00000000000E+00 0.  1.
         13    1    3    3    0    0  0.64676646145E+02  0.28273806956E+02 -0.12905188230E+03  0.14709474852E+03  0.00000000000E+00 0. -1.
         21    1    1    2  503  501  0.24477689314E+01 -0.33562108398E+02  0.25619508580E+03  0.25839568240E+03  0.00000000000E+00 0.  1.
          2    1    1    2  501    0 -0.38395050971E+02  0.43550022922E+02 -0.80661780495E+01  0.58616104135E+02  0.00000000000E+00 0. -1.
<scales pt_clust_5="13000.00000" pt_clust_6="13000.00000" pt_clust_7="13000.00000" pt_clust_8="13000.00000" pt_clust_9="33.65125" pt_clust_10="13000.00000"></scales>
<clustering>
<clus scale="   33.651">  1  9  2 -1</clus>
<clus scale="   87.469">  7  8 -1 -1</clus>
<clus scale="  107.461">  5  6 -1 -1</clus>
<clus scale="   46.538">  5 10 -1 -1</clus>
<clus scale="  118.893">  2  7  1 -1</clus>
<clus scale="   33.651">  1  5  2 -1</clus>
</clustering>
</event>
<event>
10    2  0.4951045E-006  0.2097754E+03  0.7546771E-02  0.1157427E+00
          2   -1    0    0  503    0 -0.00000000000E+00  0.00000000000E+00  0.23691814493E+03  0.23691814493E+03  0.00000000000E+00 0. -1.
         21   -1    0    0  501  502  0.00000000000E+00 -0.00000000000E+00 -0.31327743386E+03  0.31327743386E+03  0.00000000000E+00 0.  1.
         23    2    1    2    0    0 -0.49048464102E+02 -0.98741305680E+02  0.15711851178E+03  0.21251740402E+03  0.91224026396E+02 0.  0.
         23    2    1    2    0    0  0.30199966947E+02  0.14257578952E+03 -0.11624774229E+03  0.20661010144E+03  0.89074702734E+02 0.  0.
        -11    1    4    4    0    0 -0.23739781677E+02  0.61053055597E+02 -0.17814303714E+02  0.67885213770E+02  0.00000000000E+00 0.  1.
         11    1    4    4    0    0  0.53939748624E+02  0.81522733923E+02 -0.98433438579E+02  0.13872488767E+03  0.00000000000E+00 0. -1.
        -13    1    3    3    0    0 -0.14742663400E+02 -0.28004465497E+02  0.12266607256E+03  0.12668291743E+03  0.00000000000E+00 0. -1.
         13    1    3    3    0    0 -0.34305800702E+02 -0.70736840183E+02  0.34452439222E+02  0.85834486596E+02  0.00000000000E+00 0.  1.
         21    1    1    2  503  502  0.14734080652E+01 -0.23446112396E+02 -0.22155309001E+02  0.32291621742E+02  0.00000000000E+00 0. -1.
          2    1    1    2  501    0  0.17375089090E+02 -0.20388371443E+02 -0.95074749412E+02  0.98776451580E+02  0.00000000000E+00 0. -1.
<scales pt_clust_5="13000.00000" pt_clust_6="13000.00000" pt_clust_7="13000.00000" pt_clust_8="13000.00000" pt_clust_9="23.49236" pt_clust_10="13000.00000"></scales>
<clustering>
<clus scale="   23.492">  2  9  1 -1</clus>
<clus scale="   89.075">  5  6 -1 -1</clus>
<clus scale="   33.500">  5 10 -1 -1</clus>
<clus scale="   91.224">  7  8 -1 -1</clus>
<clus scale="  144.627">  1  7  2 -1</clus>
<clus scale="   23.492">  2  5  1 -1</clus>
</clustering>
</event>
<event>
10    2  0.4951045E-006  0.2426728E+03  0.7546771E-02  0.1153975E+00
         21   -1    0    0  503  502  0.00000000000E+00  0.00000000000E+00  0.61791854596E+02  0.61791854596E+02  0.00000000000E+00 0.  1.
         -1   -1    0    0    0  501 -0.00000000000E+00 -0.00000000000E+00 -0.60548714967E+03  0.60548714967E+03  0.00000000000E+00 0.  1.
         23    2    1    2    0    0 -0.32656620790E+02  0.26981100400E+02 -0.20273599947E+03  0.22587037520E+03  0.90117180660E+02 0.  0.
         23    2    1    2    0    0 -0.31128507327E+02  0.56424530222E+02 -0.13243097343E+03  0.17749053493E+03  0.99056628693E+02 0.  0.
        -11    1    3    3    0    0 -0.31243742590E+02 -0.28067475550E+02 -0.11338330730E+03  0.12091207140E+03  0.00000000000E+00 0.  1.
         11    1    3    3    0    0 -0.14128781999E+01  0.55048575949E+02 -0.89352692171E+02  0.10495830380E+03  0.00000000000E+00 0. -1.
        -11    1    4    4    0    0 -0.19232291750E+02  0.74153095219E+02 -0.48000494764E+02  0.90402489314E+02  0.00000000000E+00 0.  1.
         11    1    4    4    0    0 -0.11896215577E+02 -0.17728564997E+02 -0.84430478668E+02  0.87088045621E+02  0.00000000000E+00 0. -1.
         21    1    1    2  503  501 -0.58145093262E+01  0.19597824074E+02  0.80166214745E+00  0.20457905302E+02  0.00000000000E+00 0.  1.
         -1    1    1    2    0  502  0.69599637443E+02 -0.10300345470E+03 -0.20932998432E+03  0.24346018883E+03  0.00000000000E+00 0.  1.
<scales pt_clust_5="13000.00000" pt_clust_6="13000.00000" pt_clust_7="13000.00000" pt_clust_8="13000.00000" pt_clust_9="20.44219" pt_clust_10="13000.00000"></scales>
<clustering>
<clus scale="   20.442">  1  9  2 -1</clus>
<clus scale="   90.117">  5  6 -1 -1</clus>
<clus scale="   99.057">  7  8 -1 -1</clus>
<clus scale="  101.301">  2  5  1 -1</clus>
<clus scale="   93.518">  7 10 -1 -1</clus>
<clus scale="   20.442">  1  5  2 -1</clus>
</clustering>
</event>
<event>
10    2  0.4951045E-006  0.1120550E+03  0.7546771E-02  0.1265648E+00
          1   -1    0    0  502    0 -0.00000000000E+00  0.00000000000E+00  0.26938242838E+03  0.26938242838E+03  0.00000000000E+00 0. -1.
         21   -1    0    0  503  502  0.00000000000E+00 -0.00000000000E+00 -0.28121481643E+03  0.28121481643E+03  0.00000000000E+00 0. -1.
         23    2    1    2    0    0 -0.11724603526E+02  0.12995078773E+02  0.81419880983E+02  0.12396281118E+03  0.91821800992E+02 0.  0.
         23    2    1    2    0    0 -0.29998790239E-02 -0.25381987783E+02  0.12669569626E+03  0.15764267952E+03  0.90305977887E+02 0.  0.
        -13    1    3    3    0    0 -0.32030815631E+02 -0.31273933039E+02  0.38385265554E+02  0.58969997875E+02  0.00000000000E+00 0.  1.
         13    1    3    3    0    0  0.20306212105E+02  0.44269011812E+02  0.43034615429E+02  0.64992813310E+02  0.00000000000E+00 0. -1.
        -13    1    4    4    0    0  0.26575537015E+02 -0.34786489993E+01  0.11948613765E+03  0.12245528677E+03  0.00000000000E+00 0. -1.
         13    1    4    4    0    0 -0.26578536894E+02 -0.21903338784E+02  0.72095586103E+01  0.35187392752E+02  0.00000000000E+00 0.  1.
         21    1    1    2  503  501  0.32341235158E+02  0.14707802217E+02 -0.23851835907E+03  0.24114991717E+03  0.00000000000E+00 0. -1.
          1    1    1    2  501    0 -0.20613631753E+02 -0.23208932066E+01  0.18570393769E+02  0.27841836938E+02  0.00000000000E+00 0. -1.
<scales pt_clust_5="13000.00000" pt_clust_6="13000.00000" pt_clust_7="13000.00000" pt_clust_8="13000.00000" pt_clust_9="35.52851" pt_clust_10="13000.00000"></scales>
<clustering>
<clus scale="   35.529">  2  9  1 -1</clus>
<clus scale="   90.306">  7  8 -1 -1</clus>
<clus scale="   17.004">  7 10 -1 -1</clus>
<clus scale="   91.822">  5  6 -1 -1</clus>
<clus scale="   94.222">  1  5  2 -1</clus>
<clus scale="   35.529">  2  5  1 -1</clus>
</clustering>
</event>
<event>
10    2  0.8332492E-006  0.4160450E+03  0.7546771E-02  0.1046855E+00
          1   -1    0    0  503    0 -0.00000000000E+00  0.00000000000E+00  0.12028179413E+04  0.12028179413E+04  0.00000000000E+00 0. -1.
         21   -1    0    0  501  502  0.00000000000E+00 -0.00000000000E+00 -0.15497475919E+03  0.15497475919E+03  0.00000000000E+00 0. -1.
         23    2    1    2    0    0 -0.89284271802E+02  0.28292773687E+03  0.15094474336E+03  0.34555686530E+03  0.92765543847E+02 0.  0.
         23    2    1    2    0    0  0.25101023184E+02 -0.13561646888E+02  0.39725429612E+03  0.40866171933E+03  0.91539310836E+02 0.  0.
        -11    1    3    3    0    0 -0.37418867478E+02  0.84660191460E+02  0.96054802880E+02  0.13339432079E+03  0.00000000000E+00 0.  1.
         11    1    3    3    0    0 -0.51865404325E+02  0.19826754541E+03  0.54889940484E+02  0.21216254452E+03  0.00000000000E+00 0. -1.
        -11    1    4    4    0    0 -0.34737901514E+02 -0.81196962965E+01  0.15809586430E+03  0.16207082889E+03  0.00000000000E+00 0.  1.
         11    1    4    4    0    0  0.59838924698E+02 -0.54419505919E+01  0.23915843182E+03  0.24659089043E+03  0.00000000000E+00 0. -1.
         21    1    1    2  503  502 -0.22188095153E+02  0.16386506829E+02  0.85690850706E+01  0.28883531494E+02  0.00000000000E+00 0. -1.
          1    1    1    2  501    0  0.86371343772E+02 -0.28575259682E+03  0.49107505759E+03  0.57469058440E+03  0.00000000000E+00 0. -1.
<scales pt_clust_5="13000.00000" pt_clust_6="13000.00000" pt_clust_7="13000.00000" pt_clust_8="13000.00000" pt_clust_9="27.58313" pt_clust_10="13000.00000"></scales>
<clustering>
<clus scale="   27.583">  2  9  1 -1</clus>
<clus scale="   91.539">  7  8 -1 -1</clus>
<clus scale="   92.766">  5  6 -1 -1</clus>
<clus scale="  292.178">  7 10 -1 -1</clus>
<clus scale="  325.363">  1  5  2 -1</clus>
<clus scale="   27.583">  2  5  1 -1</clus>
</clustering>
</event>
<event>
10    2  0.4951045E-006  0.3239946E+03  0.7546771E-02  0.1105030E+00
          4   -1    0    0  502    0 -0.00000000000E+00  0.00000000000E+00  0.87298786113E+03  0.87298786113E+03  0.00000000000E+00 0. -1.
         21   -1    0    0  503  502  0.00000000000E+00 -0.00000000000E+00 -0.15472556354E+03  0.15472556354E+03  0.00000000000E+00 0. -1.
         23    2    1    2    0    0 -0.81334164229E+02  0.70475130106E+02  0.42176972485E+03  0.44479533407E+03  0.91494252140E+02 0.  0.
         23    2    1    2    0    0  0.61150471917E+02  0.90675092921E+02  0.17147717573E+03  0.22208155977E+03  0.89187693677E+02 0.  0.
        -11    1    4    4    0    0  0.44927373217E+01  0.83289977603E+02  0.11147688523E+03  0.13922823348E+03  0.00000000000E+00 0. -1.
         11    1    4    4    0    0  0.56657734595E+02  0.73851153178E+01  0.60000290502E+02  0.82853326295E+02  0.00000000000E+00 0.  1.
        -13    1    3    3    0    0 -0.52068474541E+02 -0.45369600479E+01  0.24555950061E+03  0.25106010911E+03  0.00000000000E+00 0.  1.
         13    1    3    3    0    0 -0.29265689688E+02  0.75012090153E+02  0.17621022424E+03  0.19373522495E+03  0.00000000000E+00 0. -1.
         21    1    1    2  503  501  0.14927738249E+02  0.23838961215E+02 -0.79909676124E+02  0.84715345595E+02  0.00000000000E+00 0. -1.
          4    1    1    2  501    0  0.52559540634E+01 -0.18498918424E+03  0.20492507314E+03  0.27612118524E+03  0.00000000000E+00 0. -1.
<scales pt_clust_5="13000.00000" pt_clust_6="13000.00000" pt_clust_7="13000.00000" pt_clust_8="13000.00000" pt_clust_9="28.12709" pt_clust_10="13000.00000"></scales>
<clustering>
<clus scale="   28.127">  2  9  1 -1</clus>
<clus scale="   89.188">  5  6 -1 -1</clus>
<clus scale="   91.494">  7  8 -1 -1</clus>
<clus scale="  141.850">  1  7  2 -1</clus>
<clus scale="  139.271">  5 10 -1 -1</clus>
<clus scale="   28.127">  2  5  1 -1</clus>
</clustering>
</event>
<event>
10    2  0.4951045E-006  0.2479372E+03  0.7546771E-02  0.1138452E+00
         21   -1    0    0  503  502  0.00000000000E+00  0.00000000000E+00  0.14608675699E+03  0.14608675699E+03  0.00000000000E+00 0.  1.
         -4   -1    0    0    0  501 -0.00000000000E+00 -0.00000000000E+00 -0.54851698275E+03  0.54851698275E+03  0.00000000000E+00 0.  1.
         23    2    1    2    0    0  0.11627238451E+03 -0.39036901264E+02 -0.50760573641E+02  0.16042056839E+03  0.90083160840E+02 0.  0.
         23    2    1    2    0    0 -0.52584704328E+02 -0.69034701751E+02 -0.35746929276E+03  0.37882550296E+03  0.90518093466E+02 0.  0.
        -11    1    4    4    0    0  0.24019284651E+02 -0.32679763275E+02 -0.12055679289E+03  0.12719604268E+03  0.00000000000E+00 0.  1.
         11    1    4    4    0    0 -0.76603988979E+02 -0.36354938476E+02 -0.23691249988E+03  0.25162946027E+03  0.00000000000E+00 0. -1.
        -13    1    3    3    0    0  0.93567422912E+02 -0.18961777349E+02  0.64406688505E+01  0.95686435015E+02  0.00000000000E+00 0. -1.
         13    1    3    3    0    0  0.22704961595E+02 -0.20075123916E+02 -0.57201242491E+02  0.64734133375E+02  0.00000000000E+00 0.  1.
         21    1    1    2  503  501 -0.21464913576E+02  0.41733091200E+02  0.47139982915E+02  0.66517451884E+02  0.00000000000E+00 0.  1.
         -4    1    1    2    0  502 -0.42222766604E+02  0.66338511815E+02 -0.41340342271E+02  0.88840216505E+02  0.00000000000E+00 0.  1.
<scales pt_clust_5="13000.00000" pt_clust_6="13000.00000" pt_clust_7="13000.00000" pt_clust_8="13000.00000" pt_clust_9="46.92966" pt_clust_10="13000.00000"></scales>
<clustering>
<clus scale="   46.930">  1  9  2 -1</clus>
<clus scale="   90.083">  7  8 -1 -1</clus>
<clus scale="   90.518">  5  6 -1 -1</clus>
<clus scale="   91.077">  5 10 -1 -1</clus>
<clus scale="  137.555">  2  7  1 -1</clus>
<clus scale="   46.930">  1  5  2 -1</clus>
</clustering>
</event>
<event>
10    2  0.4951045E-006  0.2029611E+03  0.7546771E-02  0.1174110E+00
          2   -1    0    0  503    0 -0.00000000000E+00  0.00000000000E+00  0.30480605109E+03  0.30480605109E+03  0.00000000000E+00 0. -1.
         21   -1    0    0  501  502  0.00000000000E+00 -0.00000000000E+00 -0.17352936268E+03  0.17352936268E+03  0.00000000000E+00 0.  1.
         23    2    1    2    0    0  0.36015884156E+02  0.57831944397E+02  0.31043552009E+02  0.11797264008E+03  0.91171069867E+02 0.  0.
         23    2    1    2    0    0 -0.67022823072E+02 -0.57528585178E+02  0.19200838833E+03  0.23456744735E+03  0.10175003312E+03 0.  0.
        -11    1    4    4    0    0 -0.58274796275E+02 -0.86428830688E+02  0.14205996513E+03  0.17620138577E+03  0.00000000000E+00 0.  1.
         11    1    4    4    0    0 -0.87480267971E+01  0.28900245510E+02  0.49948423202E+02  0.58366061575E+02  0.00000000000E+00 0. -1.
        -13    1    3    3    0    0 -0.23155370310E+02  0.41914727737E+02 -0.28102216543E+01  0.47967832151E+02  0.00000000000E+00 0.  1.
         13    1    3    3    0    0  0.59171254466E+02  0.15917216660E+02  0.33853773664E+02  0.70004807925E+02  0.00000000000E+00 0. -1.
         21    1    1    2  503  502  0.64733872510E-01 -0.21811339647E+02 -0.84687882096E+02  0.87451564318E+02  0.00000000000E+00 0.  1.
          2    1    1    2  501    0  0.30942205044E+02  0.21507980428E+02 -0.70873698471E+01  0.38343762027E+02  0.00000000000E+00 0. -1.
<scales pt_clust_5="13000.00000" pt_clust_6="13000.00000" pt_clust_7="13000.00000" pt_clust_8="13000.00000" pt_clust_9="21.81144" pt_clust_10="13000.00000"></scales>
<clustering>
<clus scale="   21.811">  2  9  1 -1</clus>
<clus scale="   91.171">  7  8 -1 -1</clus>
<clus scale="  101.750">  5  6 -1 -1</clus>
<clus scale="   34.777">  5 10 -1 -1</clus>
<clus scale="  108.719">  1  7  2 -1</clus>
<clus scale="   21.811">  2  5  1 -1</clus>
</clustering>
</event>
<event>
10    2  0.4951045E-006  0.3794752E+03  0.7546771E-02  0.1097528E+00
          2   -1    0    0  502    0 -0.00000000000E+00  0.00000000000E+00  0.11405364728E+04  0.11405364728E+04  0.00000000000E+00 0. -1.
         21   -1    0    0  503  502  0.00000000000E+00 -0.00000000000E+00 -0.67786878316E+02  0.67786878316E+02  0.00000000000E+00 0. -1.
         23    2    1    2    0    0 -0.90738628851E+01 -0.61032920752E+02  0.29973464038E+03  0.31781386365E+03  0.85775549415E+02 0.  0.
         23    2    1    2    0    0  0.37548581840E+02  0.16851661007E+03  0.72948830653E+03  0.75505307402E+03  0.90245284393E+02 0.  0.
        -11    1    3    3    0    0 -0.17978720463E+02  0.14925915006E+02  0.33730253643E+02  0.41033490457E+02  0.00000000000E+00 0. -1.
         11    1    3    3    0    0  0.89048575776E+01 -0.75958835758E+02  0.26600438674E+03  0.27678037319E+03  0.00000000000E+00 0.  1.
        -13    1    4    4    0    0 -0.25485807413E+02  0.31598240583E+02  0.22087369230E+03  0.22457329124E+03  0.00000000000E+00 0.  1.
         13    1    4    4    0    0  0.63034389252E+02  0.13691836949E+03  0.50861461423E+03  0.53047978278E+03  0.00000000000E+00 0. -1.
         21    1    1    2  503  501 -0.28257762081E+02 -0.10626092037E+02  0.25820812489E+01  0.30299869528E+02  0.00000000000E+00 0.  1.
          2    1    1    2  501    0 -0.21695687329E+00 -0.96857597281E+02  0.40944566347E+02  0.10515654395E+03  0.00000000000E+00 0. -1.
<scales pt_clust_5="13000.00000" pt_clust_6="13000.00000" pt_clust_7="13000.00000" pt_clust_8="13000.00000" pt_clust_9="30.18965" pt_clust_10="13000.00000"></scales>
<clustering>
<clus scale="   30.190">  2  9  1 -1</clus>
<clus scale="   85.776">  5  6 -1 -1</clus>
<clus scale="   90.245">  7  8 -1 -1</clus>
<clus scale="  104.581">  7 10 -1 -1</clus>
<clus scale="  107.209">  1  5  2 -1</clus>
<clus scale="   30.190">  2  5  1 -1</clus>
</clustering>
</event>
<event>
10    2  0.4951045E-006  0.1882292E+03  0.7546771E-02  0.1181441E+00
         21   -1    0    0  503  502  0.00000000000E+00  0.00000000000E+00  0.42724380207E+03  0.42724380207E+03  0.00000000000E+00 0. -1.
          3   -1    0    0  502    0 -0.00000000000E+00 -0.00000000000E+00 -0.49934163063E+03  0.49934163063E+03  0.00000000000E+00 0. -1.
         23    2    1    2    0    0  0.61738009283E+02  0.86456470746E+02  0.79536264510E+02  0.16107948338E+03  0.91292274977E+02 0.  0.
         23    2    1    2    0    0  0.40431645821E+00 -0.75994557996E+02 -0.39020421716E+03  0.40759554591E+03  0.89997009057E+02 0.  0.
        -11    1    4    4    0    0  0.41172259639E+02 -0.61107655459E+02 -0.22342038986E+03  0.23525724457E+03  0.00000000000E+00 0.  1.
         11    1    4    4    0    0 -0.40767943181E+02 -0.14886902537E+02 -0.16678382730E+03  0.17233830133E+03  0.00000000000E+00 0. -1.
        -13    1    3    3    0    0  0.56847925725E+02  0.30614821821E+02  0.82717451057E+02  0.10493393485E+03  0.00000000000E+00 0.  1.
         13    1    3    3    0    0  0.48900835584E+01  0.55841648925E+02 -0.31811865464E+01  0.56145548530E+02  0.00000000000E+00 0. -1.
         21    1    1    2  503  501 -0.20445324620E+02 -0.35982924956E+02  0.28648420082E+03  0.28945807901E+03  0.00000000000E+00 0. -1.
          3    1    1    2  501    0 -0.41697001121E+02  0.25521012205E+02 -0.47914076736E+02  0.68452324401E+02  0.00000000000E+00 0. -1.
<scales pt_clust_5="13000.00000" pt_clust_6="13000.00000" pt_clust_7="13000.00000" pt_clust_8="13000.00000" pt_clust_9="41.38577" pt_clust_10="13000.00000"></scales>
<clustering>
<clus scale="   41.386">  1  9  2 -1</clus>
<clus scale="   89.997">  5  6 -1 -1</clus>
<clus scale="   48.883">  5 10 -1 -1</clus>
<clus scale="   91.292">  7  8 -1 -1</clus>
<clus scale="  115.513">  2  7  1 -1</clus>
<clus scale="   41.386">  1  5  2 -1</clus>
</clustering>
</event>
<event>
10    2  0.4951046E-006  0.1777524E+03  0.7546771E-02  0.1191973E+00
         21   -1    0    0  503  502  0.00000000000E+00  0.00000000000E+00  0.11909365655E+03  0.11909365655E+03  0.00000000000E+00 0.  1.
          1   -1    0    0  502    0 -0.00000000000E+00 -0.00000000000E+00 -0.92637753381E+03  0.92637753381E+03  0.00000000000E+00 0. -1.
         23    2    1    2    0    0  0.26266193399E+02  0.41359540955E+02 -0.25847786387E+03  0.28097962595E+03  0.98682417604E+02 0.  0.
         23    2    1    2    0    0 -0.65373518101E+01 -0.51770456451E+02 -0.58928593893E+03  0.59856548938E+03  0.91103293731E+02 0.  0.
        -13    1    3    3    0    0  0.62858257505E+02  0.20663439782E+02 -0.13123536520E+03  0.14697230814E+03  0.00000000000E+00 0.  1.
         13    1    3    3    0    0 -0.36592064106E+02  0.20696101173E+02 -0.12724249867E+03  0.13400731781E+03  0.00000000000E+00 0. -1.
        -13    1    4    4    0    0 -0.41645797710E+02  0.86753162205E+00 -0.24409385163E+03  0.24762256255E+03  0.00000000000E+00 0. -1.
         13    1    4    4    0    0  0.35108445900E+02 -0.52637988073E+02 -0.34519208729E+03  0.35094292683E+03  0.00000000000E+00 0.  1.
         21    1    1    2  503  501  0.11190034305E+02 -0.18815931219E+02  0.94591154601E+02  0.97091413957E+02  0.00000000000E+00 0.  1.
          1    1    1    2  501    0 -0.30918875893E+02  0.29226846716E+02 -0.54111229061E+02  0.68834661080E+02  0.00000000000E+00 0. -1.
<scales pt_clust_5="13000.00000" pt_clust_6="13000.00000" pt_clust_7="13000.00000" pt_clust_8="13000.00000" pt_clust_9="21.89192" pt_clust_10="13000.00000"></scales>
<clustering>
<clus scale="   21.892">  1  9  2 -1</clus>
<clus scale="   91.103">  7  8 -1 -1</clus>
<clus scale="   35.930">  7 10 -1 -1</clus>
<clus scale="   98.682">  5  6 -1 -1</clus>
<clus scale="  108.546">  2  5  1 -1</clus>
<clus scale="   21.892">  1  5  2 -1</clus>
</clustering>
</event>
<event>
10    2  0.4951045E-006  0.2011221E+03  0.7546771E-02  0.1174649E+00
         21   -1    0    0  501  502  0.00000000000E+00  0.00000000000E+00  0.23722680422E+03  0.23722680422E+03  0.00000000000E+00 0.  1.
          3   -1    0    0  503    0 -0.00000000000E+00 -0.00000000000E+00 -0.22327070683E+03  0.22327070683E+03  0.00000000000E+00 0. -1.
         23    2    1    2    0    0  0.24851976435E+02  0.61112418868E+02 -0.13849749867E+02  0.11376230187E+03  0.91638950686E+02 0.  0.
         23    2    1    2    0    0 -0.16273144874E+01 -0.28961563023E+02 -0.13679572379E+03  0.16327775781E+03  0.84291967958E+02 0.  0.
        -11    1    3    3    0    0  0.53458173004E+02  0.64169556742E+02 -0.15501250704E+02  0.84945847732E+02  0.00000000000E+00 0.  1.
         11    1    3    3    0    0 -0.28606196569E+02 -0.30571378745E+01  0.16515008373E+01  0.28816454139E+02  0.00000000000E+00 0. -1.
        -11    1    4    4    0    0 -0.30341134279E+02 -0.29130179030E+02 -0.27453221597E+02  0.50227792463E+02  0.00000000000E+00 0.  1.
         11    1    4    4    0    0  0.28713819792E+02  0.16861600740E+00 -0.10934250220E+03  0.11304996535E+03  0.00000000000E+00 0. -1.
         21    1    1    2  503  502  0.15157881824E+02 -0.18821501120E+02  0.12282848592E+03  0.12518325462E+03  0.00000000000E+00 0.  1.
          3    1    1    2  501    0 -0.38382543772E+02 -0.13329354726E+02  0.41773085139E+02  0.58274196741E+02  0.00000000000E+00 0. -1.
<scales pt_clust_5="13000.00000" pt_clust_6="13000.00000" pt_clust_7="13000.00000" pt_clust_8="13000.00000" pt_clust_9="24.16630" pt_clust_10="13000.00000"></scales>
<clustering>
<clus scale="   24.166">  1  9  2 -1</clus>
<clus scale="   84.292">  7  8 -1 -1</clus>
<clus scale="   38.373">  7 10 -1 -1</clus>
<clus scale="   91.639">  5  6 -1 -1</clus>
<clus scale="  110.368">  2  5  1 -1</clus>
<clus scale="   24.166">  1  5  2 -1</clus>
</clustering>
</event>
<event>
10    2  0.4951045E-006  0.1470906E+03  0.7546771E-02  0.1220011E+00
          2   -1    0    0  503    0 -0.00000000000E+00  0.00000000000E+00  0.14771821670E+03  0.14771821670E+03  0.00000000000E+00 0. -1.
         21   -1    0    0  501  502  0.00000000000E+00 -0.00000000000E+00 -0.18387241883E+03  0.18387241883E+03  0.00000000000E+00 0. -1.
         23    2    1    2    0    0  0.59460067635E+02 -0.24229086041E+02  0.19383465682E+02  0.11090735562E+03  0.88329918689E+02 0.  0.
         23    2    1    2    0    0  0.13333085086E+02  0.40923464836E+02  0.23744792269E+02  0.10457520096E+03  0.92301984614E+02 0.  0.
        -11    1    4    4    0    0 -0.24391224802E+02  0.15727720688E+02 -0.24769650632E+02  0.38155322536E+02  0.00000000000E+00 0.  1.
         11    1    4    4    0    0  0.37724309888E+02  0.25195744148E+02  0.48514442902E+02  0.66419878423E+02  0.00000000000E+00 0. -1.
        -13    1    3    3    0    0 -0.83357304045E+01  0.18932946229E+02 -0.12807908497E+02  0.24330708464E+02  0.00000000000E+00 0.  1.
         13    1    3    3    0    0  0.67795798040E+02 -0.43162032270E+02  0.32191374179E+02  0.86576647158E+02  0.00000000000E+00 0. -1.
         21    1    1    2  503  502 -0.37726469316E+02 -0.26069626434E+02 -0.58326061630E+02  0.74194618233E+02  0.00000000000E+00 0. -1.
          2    1    1    2  501    0 -0.35066683406E+02  0.93752476396E+01 -0.20956398448E+02  0.41913460717E+02  0.00000000000E+00 0. -1.
<scales pt_clust_5="13000.00000" pt_clust_6="13000.00000" pt_clust_7="13000.00000" pt_clust_8="13000.00000" pt_clust_9="45.85752" pt_clust_10="13000.00000"></scales>
<clustering>
<clus scale="   45.858">  2  9  1 -1</clus>
<clus scale="   88.330">  7  8 -1 -1</clus>
<clus scale="   92.302">  5  6 -1 -1</clus>
<clus scale="   45.214">  5 10 -1 -1</clus>
<clus scale="  104.828">  1  7  2 -1</clus>
<clus scale="   45.858">  2  5  1 -1</clus>
</clustering>
</event>
<event>
10    2  0.4951045E-006  0.2756010E+03  0.7546771E-02  0.1101842E+00
         21   -1    0    0  501  502  0.00000000000E+00  0.00000000000E+00  0.13536007570E+04  0.13536007570E+04  0.00000000000E+00 0. -1.
          1   -1    0    0  503    0 -0.00000000000E+00 -0.00000000000E+00 -0.20198443032E+03  0.20198443032E+03  0.00000000000E+00 0. -1.
         23    2    1    2    0    0  0.32002570830E+03 -0.39967562381E+02  0.10493581697E+03  0.35183452187E+03  0.93606330335E+02 0.  0.
         23    2    1    2    0    0 -0.11112062165E+03  0.48045896224E+02  0.12578245820E+03  0.19676085734E+03  0.90760164669E+02 0.  0.
        -11    1    4    4    0    0 -0.86495350973E+02  0.60981363871E+02  0.13105397264E+03  0.16844974391E+03  0.00000000000E+00 0.  1.
         11    1    4    4    0    0 -0.24625270675E+02 -0.12935467647E+02 -0.52715144389E+01  0.28311113428E+02  0.00000000000E+00 0. -1.
        -11    1    3    3    0    0  0.99590495414E+02 -0.26059164953E+02  0.78347403527E+02  0.12936638858E+03  0.00000000000E+00 0. -1.
         11    1    3    3    0    0  0.22043521289E+03 -0.13908397428E+02  0.26588413447E+02  0.22246813329E+03  0.00000000000E+00 0.  1.
         21    1    1    2  503  502 -0.17930360288E+03 -0.56024314512E+02  0.93098344647E+03  0.94974664170E+03  0.00000000000E+00 0. -1.
          1    1    1    2  501    0 -0.29601483767E+02  0.47945980668E+02 -0.10085395008E+02  0.57243166369E+02  0.00000000000E+00 0. -1.
<scales pt_clust_5="13000.00000" pt_clust_6="13000.00000" pt_clust_7="13000.00000" pt_clust_8="13000.00000" pt_clust_9="187.85235" pt_clust_10="13000.00000"></scales>
<clustering>
<clus scale="   90.760">  5  6 -1 -1</clus>
<clus scale="   56.348">  5 10 -1 -1</clus>
<clus scale="   93.606">  7  8 -1 -1</clus>
<clus scale="  187.852">  1  9  2 -1</clus>
<clus scale="  250.206">  2  7  1 -1</clus>
<clus scale="  187.852">  1  5  2 -1</clus>
</clustering>
</event>
<event>
10    2  0.4951045E-006  0.2702208E+03  0.7546771E-02  0.1123912E+00
         -4   -1    0    0    0  501 -0.00000000000E+00  0.00000000000E+00  0.26535369362E+03  0.26535369362E+03  0.00000000000E+00 0.  1.
         21   -1    0    0  501  502  0.00000000000E+00 -0.00000000000E+00 -0.31265358968E+03  0.31265358968E+03  0.00000000000E+00 0. -1.
         23    2    1    2    0    0  0.12680892127E+03 -0.50153823887E+02 -0.16846477165E+03  0.23488645717E+03  0.90528227151E+02 0.  0.
         23    2    1    2    0    0 -0.53320699814E+00  0.93562473087E+02  0.72801589604E+02  0.14704363753E+03  0.86991604242E+02 0.  0.
        -13    1    4    4    0    0 -0.23444592588E+02  0.38395685645E+02  0.74787091446E+02  0.87275349583E+02  0.00000000000E+00 0.  1.
         13    1    4    4    0    0  0.22911385589E+02  0.55166787442E+02 -0.19855018426E+01  0.59768287945E+02  0.00000000000E+00 0. -1.
        -13    1    3    3    0    0  0.18723375225E+02 -0.49962002153E+02 -0.38205613156E+02  0.65623435719E+02  0.00000000000E+00 0.  1.
         13    1    3    3    0    0  0.10808554605E+03 -0.19182173414E+00 -0.13025915850E+03  0.16926302145E+03  0.00000000000E+00 0. -1.
         21    1    1    2  503  502 -0.10630658619E+02  0.35708873886E+02 -0.17602718824E+02  0.41206677698E+02  0.00000000000E+00 0.  1.
         -4    1    1    2    0  503 -0.11564505565E+03 -0.79117523087E+02  0.65966004812E+02  0.15487051090E+03  0.00000000000E+00 0.  1.
<scales pt_clust_5="13000.00000" pt_clust_6="13000.00000" pt_clust_7="13000.00000" pt_clust_8="13000.00000" pt_clust_9="37.25768" pt_clust_10="13000.00000"></scales>
<clustering>
<clus scale="   37.258">  2  9  1 -1</clus>
<clus scale="   86.992">  5  6 -1 -1</clus>
<clus scale="   90.528">  7  8 -1 -1</clus>
<clus scale="  138.444">  5 10 -1 -1</clus>
<clus scale="  151.740">  1  7  2 -1</clus>
<clus scale="   37.258">  2  5  1 -1</clus>
</clustering>
</event>
<event>
10    2  0.1516643E-005  0.4618479E+03  0.7546771E-02  0.1066948E+00
         21   -1    0    0  503  502  0.00000000000E+00  0.00000000000E+00  0.80311872868E+03  0.80311872868E+03  0.00000000000E+00 0. -1.
          1   -1    0    0  502    0 -0.00000000000E+00 -0.00000000000E+00 -0.10408149186E+04  0.10408149186E+04  0.00000000000E+00 0. -1.
         23    2    1    2    0    0 -0.19450698760E+02  0.94229047000E+02 -0.28729037983E+03  0.31746253562E+03  0.94811688083E+02 0.  0.
         23    2    1    2    0    0  0.17690861222E+02 -0.14019713419E+02 -0.35482401628E+03  0.36663629854E+03  0.89512982007E+02 0.  0.
        -11    1    4    4    0    0 -0.25964086476E+02  0.20727727227E+02 -0.18265920627E+03  0.18565602091E+03  0.00000000000E+00 0.  1.
         11    1    4    4    0    0  0.43654947698E+02 -0.34747440646E+02 -0.17216481000E+03  0.18098027764E+03  0.00000000000E+00 0. -1.
        -13    1    3    3    0    0 -0.48517399541E+02  0.17228480313E+02 -0.13249924182E+03  0.14215065133E+03  0.00000000000E+00 0.  1.
         13    1    3    3    0    0  0.29066700781E+02  0.77000566687E+02 -0.15479113801E+03  0.17531188429E+03  0.00000000000E+00 0. -1.
         21    1    1    2  503  501  0.36973896858E+02 -0.34149671516E+03  0.69023899057E+03  0.77098439648E+03  0.00000000000E+00 0. -1.
          1    1    1    2  501    0 -0.35214059320E+02  0.26128738158E+03 -0.28582078442E+03  0.38885041668E+03  0.00000000000E+00 0. -1.
<scales pt_clust_5="13000.00000" pt_clust_6="13000.00000" pt_clust_7="13000.00000" pt_clust_8="13000.00000" pt_clust_9="338.25651" pt_clust_10="13000.00000"></scales>
<clustering>
<clus scale="   89.513">  5  6 -1 -1</clus>
<clus scale="   94.812">  7  8 -1 -1</clus>
<clus scale="  135.080">  2  7  1 -1</clus>
<clus scale="  307.512">  5 10 -1 -1</clus>
<clus scale="  338.257">  1  9  2 -1</clus>
<clus scale="  338.257">  1  5  2 -1</clus>
</clustering>
</event>
<event>
10    2  0.4951045E-006  0.3114063E+03  0.7546771E-02  0.1084489E+00
         21   -1    0    0  501  502  0.00000000000E+00  0.00000000000E+00  0.24549368695E+03  0.24549368695E+03  0.00000000000E+00 0. -1.
          2   -1    0    0  503    0 -0.00000000000E+00 -0.00000000000E+00 -0.90551191254E+03  0.90551191254E+03  0.00000000000E+00 0. -1.
         23    2    1    2    0    0 -0.24426176254E+03 -0.24507246336E+02  0.12591049693E+03  0.29111329834E+03  0.92892870941E+02 0.  0.
         23    2    1    2    0    0  0.11386422367E+03  0.21123731813E+02 -0.55382290775E+03  0.57231707782E+03  0.86114754492E+02 0.  0.
        -13    1    4    4    0    0  0.93020895091E+02  0.41085211997E+02 -0.50862559048E+03  0.51869150066E+03  0.00000000000E+00 0. -1.
         13    1    4    4    0    0  0.20843328580E+02 -0.19961480184E+02 -0.45197317273E+02  0.53625577163E+02  0.00000000000E+00 0.  1.
        -13    1    3    3    0    0 -0.11183131953E+03  0.26927424581E+02  0.27438730164E+02  0.11825486939E+03  0.00000000000E+00 0.  1.
         13    1    3    3    0    0 -0.13243044301E+03 -0.51434670916E+02  0.98471766765E+02  0.17285842895E+03  0.00000000000E+00 0. -1.
         21    1    1    2  503  502 -0.11620925498E+02 -0.16843528931E+02 -0.90554454914E+01  0.22377476831E+02  0.00000000000E+00 0.  1.
          2    1    1    2  501    0  0.14201846437E+03  0.20227043453E+02 -0.22305036929E+03  0.26519774650E+03  0.00000000000E+00 0. -1.
<scales pt_clust_5="13000.00000" pt_clust_6="13000.00000" pt_clust_7="13000.00000" pt_clust_8="13000.00000" pt_clust_9="20.46339" pt_clust_10="13000.00000"></scales>
<clustering>
<clus scale="   20.463">  1  9  2 -1</clus>
<clus scale="   86.115">  5  6 -1 -1</clus>
<clus scale="   92.893">  7  8 -1 -1</clus>
<clus scale="  142.233">  5 10 -1 -1</clus>
<clus scale="  273.660">  2  7  1 -1</clus>
<clus scale="   20.463">  1  5  2 -1</clus>
</clustering>
</event>
<event>
10    2  0.4951045E-006  0.2102990E+03  0.7546771E-02  0.1170828E+00
          1   -1    0    0  502    0 -0.00000000000E+00  0.00000000000E+00  0.88636713008E+03  0.88636713008E+03  0.00000000000E+00 0. -1.
         21   -1    0    0  503  502  0.00000000000E+00 -0.00000000000E+00 -0.40461293021E+02  0.40461293021E+02  0.00000000000E+00 0. -1.
         23    2    1    2    0    0 -0.44287684828E+02 -0.17204851921E+02  0.35402409107E+03  0.36896767070E+03  0.92448250431E+02 0.  0.
         23    2    1    2    0    0 -0.60594113584E+02  0.62328674608E+01  0.24298799443E+03  0.26300595520E+03  0.80115365547E+02 0.  0.
        -13    1    3    3    0    0 -0.54114195245E+01 -0.51667741938E+02  0.18212101809E+03  0.18938559673E+03  0.00000000000E+00 0.  1.
         13    1    3    3    0    0 -0.38876265304E+02  0.34462890017E+02  0.17190307298E+03  0.17958207397E+03  0.00000000000E+00 0. -1.
        -13    1    4    4    0    0 -0.66058169911E+02 -0.20799915733E+02  0.20251489731E+03  0.21402944176E+03  0.00000000000E+00 0. -1.
         13    1    4    4    0    0  0.54640563272E+01  0.27032783193E+02  0.40473097123E+02  0.48976513447E+02  0.00000000000E+00 0.  1.
         21    1    1    2  503  501 -0.21335353876E+01 -0.23591925952E+02  0.22648793649E+01  0.23796231254E+02  0.00000000000E+00 0. -1.
          1    1    1    2  501    0  0.10701533380E+03  0.34563910412E+02  0.24662887219E+03  0.27105856593E+03  0.00000000000E+00 0. -1.
<scales pt_clust_5="13000.00000" pt_clust_6="13000.00000" pt_clust_7="13000.00000" pt_clust_8="13000.00000" pt_clust_9="23.68820" pt_clust_10="13000.00000"></scales>
<clustering>
<clus scale="   23.688">  2  9  1 -1</clus>
<clus scale="   80.115">  7  8 -1 -1</clus>
<clus scale="   92.448">  5  6 -1 -1</clus>
<clus scale="  105.316">  1  5  2 -1</clus>
<clus scale="   85.457">  7 10 -1 -1</clus>
<clus scale="   23.688">  2  5  1 -1</clus>
</clustering>
</event>
<event>
10    2  0.4951045E-006  0.1960300E+03  0.7546771E-02  0.1180813E+00
         21   -1    0    0  501  502  0.00000000000E+00  0.00000000000E+00  0.16949638568E+03  0.16949638568E+03  0.00000000000E+00 0. -1.
          3   -1    0    0  503    0 -0.00000000000E+00 -0.00000000000E+00 -0.17746706260E+03  0.17746706260E+03  0.00000000000E+00 0. -1.
         23    2    1    2    0    0  0.25120295368E+02 -0.25971086897E+02 -0.39197374254E-01  0.98351665210E+02  0.91474159843E+02 0.  0.
         23    2    1    2    0    0 -0.27987065846E+02 -0.54584701156E+02 -0.52074447094E+01  0.10704308238E+03  0.87569050183E+02 0.  0.
        -13    1    3    3    0    0  0.54945757746E+02 -0.16177584674E+02  0.20501611333E+02  0.60836392130E+02  0.00000000000E+00 0. -1.
         13    1    3    3    0    0 -0.29825462378E+02 -0.97935022228E+01 -0.20540808707E+02  0.37515273079E+02  0.00000000000E+00 0.  1.
        -13    1    4    4    0    0 -0.17506412874E+02 -0.12885582748E+02  0.39455760872E+02  0.45047417245E+02  0.00000000000E+00 0.  1.
         13    1    4    4    0    0 -0.10480652972E+02 -0.41699118407E+02 -0.44663205581E+02  0.61995665134E+02  0.00000000000E+00 0. -1.
         21    1    1    2  503  502  0.42951838203E+02 -0.85241572793E+01  0.12080987811E+01  0.43806177247E+02  0.00000000000E+00 0.  1.
          3    1    1    2  501    0 -0.40085067725E+02  0.89079945332E+02 -0.39321336195E+01  0.97762523442E+02  0.00000000000E+00 0. -1.
<scales pt_clust_5="13000.00000" pt_clust_6="13000.00000" pt_clust_7="13000.00000" pt_clust_8="13000.00000" pt_clust_9="43.78952" pt_clust_10="13000.00000"></scales>
<clustering>
<clus scale="   43.790">  1  9  2 -1</clus>
<clus scale="   87.569">  7  8 -1 -1</clus>
<clus scale="   90.297">  7 10 -1 -1</clus>
<clus scale="   91.474">  5  6 -1 -1</clus>
<clus scale="  103.717">  2  5  1 -1</clus>
<clus scale="   43.790">  1  5  2 -1</clus>
</clustering>
</event>
<event>
10    2  0.4951045E-006  0.4154963E+03  0.7546771E-02  0.1072088E+00
          1   -1    0    0  502    0 -0.00000000000E+00  0.00000000000E+00  0.10841961735E+04  0.10841961735E+04  0.00000000000E+00 0. -1.
         21   -1    0    0  503  502  0.00000000000E+00 -0.00000000000E+00 -0.10776207676E+03  0.10776207676E+03  0.00000000000E+00 0. -1.
         23    2    1    2    0    0  0.11762331007E+03 -0.54991251340E+02  0.31619765213E+03  0.35376626406E+03  0.91161031019E+02 0.  0.
         23    2    1    2    0    0 -0.13924710467E+03 -0.44006583833E+02  0.65881452497E+03  0.68148728413E+03  0.95194561522E+02 0.  0.
        -11    1    4    4    0    0 -0.13895373691E+02 -0.17355124001E+02  0.19870709182E+02  0.29818229701E+02  0.00000000000E+00 0.  1.
         11    1    4    4    0    0 -0.12535173098E+03 -0.26651459832E+02  0.63894381578E+03  0.65166905443E+03  0.00000000000E+00 0. -1.
        -13    1    3    3    0    0  0.37235744627E+02 -0.37325425631E+02  0.22423954114E+03  0.23035420528E+03  0.00000000000E+00 0. -1.
         13    1    3    3    0    0  0.80387565445E+02 -0.17665825708E+02  0.91958110985E+02  0.12341205878E+03  0.00000000000E+00 0.  1.
         21    1    1    2  503  501  0.40814515584E+01 -0.19604860907E+02 -0.26877294136E+02  0.33517126340E+02  0.00000000000E+00 0.  1.
          1    1    1    2  501    0  0.17542343044E+02  0.11860269608E+03  0.28299213791E+02  0.12318757575E+03  0.00000000000E+00 0. -1.
<scales pt_clust_5="13000.00000" pt_clust_6="13000.00000" pt_clust_7="13000.00000" pt_clust_8="13000.00000" pt_clust_9="20.02520" pt_clust_10="13000.00000"></scales>
<clustering>
<clus scale="   20.025">  2  9  1 -1</clus>
<clus scale="   91.161">  7  8 -1 -1</clus>
<clus scale="   95.195">  5  6 -1 -1</clus>
<clus scale="  108.478">  5 10 -1 -1</clus>
<clus scale="  161.083">  1  7  2 -1</clus>
<clus scale="   20.025">  2  5  1 -1</clus>
</clustering>
</event>
<event>
10    2  0.4951045E-006  0.6937685E+03  0.7546771E-02  0.1023875E+00
         21   -1    0    0  503  502  0.00000000000E+00  0.00000000000E+00  0.30213419590E+03  0.30213419590E+03  0.00000000000E+00 0.  1.
          1   -1    0    0  502    0 -0.00000000000E+00 -0.00000000000E+00 -0.92712515682E+03  0.92712515682E+03  0.00000000000E+00 0. -1.
         23    2    1    2    0    0  0.73377092494E+02 -0.69485248577E+02 -0.34395943148E+03  0.36991617910E+03  0.91200282798E+02 0.  0.
         23    2    1    2    0    0 -0.16609396459E+02  0.32610469956E+03  0.15380356724E+02  0.33915422786E+03  0.90381899624E+02 0.  0.
        -11    1    4    4    0    0 -0.31727773192E+02  0.30971965498E+03  0.29547407319E+02  0.31273945314E+03  0.00000000000E+00 0.  1.
         11    1    4    4    0    0  0.15118376734E+02  0.16385044576E+02 -0.14167050596E+02  0.26414774718E+02  0.00000000000E+00 0. -1.
        -13    1    3    3    0    0  0.92939240291E+01  0.22174179497E+02 -0.69675514861E+02  0.73707181681E+02  0.00000000000E+00 0.  1.
         13    1    3    3    0    0  0.64083168465E+02 -0.91659428074E+02 -0.27428391662E+03  0.29620899742E+03  0.00000000000E+00 0. -1.
         21    1    1    2  503  501  0.35128878966E+02 -0.20201213097E+02  0.66229065447E+02  0.77642876415E+02  0.00000000000E+00 0.  1.
          1    1    1    2  501    0 -0.91896575002E+02 -0.23641823788E+03 -0.36264095161E+03  0.44254606934E+03  0.00000000000E+00 0. -1.
<scales pt_clust_5="13000.00000" pt_clust_6="13000.00000" pt_clust_7="13000.00000" pt_clust_8="13000.00000" pt_clust_9="40.52317" pt_clust_10="13000.00000"></scales>
<clustering>
<clus scale="   40.523">  1  9  2 -1</clus>
<clus scale="   90.382">  5  6 -1 -1</clus>
<clus scale="   91.200">  7  8 -1 -1</clus>
<clus scale="  137.783">  2  7  1 -1</clus>
<clus scale="  292.941">  5 10 -1 -1</clus>
<clus scale="   40.523">  1  5  2 -1</clus>
</clustering>
</event>
<event>
10    2  0.4951045E-006  0.3517767E+03  0.7546771E-02  0.1079177E+00
         21   -1    0    0  501  502  0.00000000000E+00  0.00000000000E+00  0.26260840139E+03  0.26260840139E+03  0.00000000000E+00 0.  1.
          2   -1    0    0  503    0 -0.00000000000E+00 -0.00000000000E+00 -0.13865994758E+04  0.13865994758E+04  0.00000000000E+00 0. -1.
         23    2    1    2    0    0 -0.34640197833E+01 -0.18779215295E+03 -0.81782880710E+03  0.84662740821E+03  0.11249941541E+03 0.  0.
         23    2    1    2    0    0  0.47862283026E+02  0.39791708860E+02 -0.26639734203E+03  0.28914277523E+03  0.93604606713E+02 0.  0.
        -11    1    4    4    0    0  0.55682653123E+02  0.65247229443E+02 -0.20416199026E+03  0.22144949103E+03  0.00000000000E+00 0. -1.
         11    1    4    4    0    0 -0.78203700974E+01 -0.25455520583E+02 -0.62235351763E+02  0.67693284200E+02  0.00000000000E+00 0.  1.
        -11    1    3    3    0    0  0.33159939510E+02 -0.16183541913E+03 -0.72407749550E+03  0.74268331337E+03  0.00000000000E+00 0. -1.
         11    1    3    3    0    0 -0.36623959293E+02 -0.25956733817E+02 -0.93751311606E+02  0.10394409484E+03  0.00000000000E+00 0.  1.
         21    1    1    2  503  502  0.79250354646E+02  0.24229806002E+03  0.12751670096E+03  0.28504293997E+03  0.00000000000E+00 0.  1.
          2    1    1    2  501    0 -0.12364861789E+03 -0.94297615934E+02 -0.16728162628E+03  0.22839475381E+03  0.00000000000E+00 0. -1.
<scales pt_clust_5="13000.00000" pt_clust_6="13000.00000" pt_clust_7="13000.00000" pt_clust_8="13000.00000" pt_clust_9="229.55095" pt_clust_10="13000.00000"></scales>
<clustering>
<clus scale="   93.605">  5  6 -1 -1</clus>
<clus scale="  112.499">  7  8 -1 -1</clus>
<clus scale="  155.503">  5 10 -1 -1</clus>
<clus scale="  218.938">  2  7  1 -1</clus>
<clus scale="  229.551">  1  9  2 -1</clus>
<clus scale="  229.551">  1  5  2 -1</clus>
</clustering>
</event>
<event>
10    2  0.4951045E-006  0.1315060E+03  0.7546771E-02  0.1237658E+00
          2   -1    0    0  502    0 -0.00000000000E+00  0.00000000000E+00  0.15699323671E+03  0.15699323671E+03  0.00000000000E+00 0. -1.
         21   -1    0    0  503  502  0.00000000000E+00 -0.00000000000E+00 -0.19407548388E+03  0.19407548388E+03  0.00000000000E+00 0.  1.
         23    2    1    2    0    0 -0.23171893192E+02 -0.26799213812E+02 -0.53498814801E+02  0.11216813224E+03  0.92002348934E+02 0.  0.
         23    2    1    2    0    0  0.20649906583E+02  0.15019077101E+02  0.92506628024E+02  0.13060171833E+03  0.88585220460E+02 0.  0.
        -11    1    4    4    0    0 -0.30025143601E+02 -0.56800891861E+01  0.11117951248E+02  0.32517403054E+02  0.00000000000E+00 0.  1.
         11    1    4    4    0    0  0.50675050184E+02  0.20699166288E+02  0.81388676775E+02  0.98084315277E+02  0.00000000000E+00 0. -1.
        -13    1    3    3    0    0  0.74427399193E+01 -0.50026759206E+02 -0.57908163305E+01  0.50907804588E+02  0.00000000000E+00 0. -1.
         13    1    3    3    0    0 -0.30614633111E+02  0.23227545394E+02 -0.47707998470E+02  0.61260327649E+02  0.00000000000E+00 0.  1.
         21    1    1    2  503  501 -0.26054163813E+02  0.18460558616E+02 -0.71878014119E+02  0.78651513591E+02  0.00000000000E+00 0.  1.
          2    1    1    2  501    0  0.28576150422E+02 -0.66804219057E+01 -0.42120462778E+01  0.29647356436E+02  0.00000000000E+00 0. -1.
<scales pt_clust_5="13000.00000" pt_clust_6="13000.00000" pt_clust_7="13000.00000" pt_clust_8="13000.00000" pt_clust_9="31.93136" pt_clust_10="13000.00000"></scales>
<clustering>
<clus scale="   31.931">  2  9  1 -1</clus>
<clus scale="   88.585">  5  6 -1 -1</clus>
<clus scale="   25.191">  5 10 -1 -1</clus>
<clus scale="   92.002">  7  8 -1 -1</clus>
<clus scale="  101.819">  1  7  2 -1</clus>
<clus scale="   31.931">  2  5  1 -1</clus>
</clustering>
</event>
<event>
10    2  0.4951045E-006  0.1583000E+03  0.7546771E-02  0.1207738E+00
          1   -1    0    0  502    0 -0.00000000000E+00  0.00000000000E+00  0.36670852682E+03  0.36670852682E+03  0.00000000000E+00 0. -1.
         21   -1    0    0  503  502  0.00000000000E+00 -0.00000000000E+00 -0.14820266335E+03  0.14820266335E+03  0.00000000000E+00 0.  1.
         23    2    1    2    0    0 -0.43337689454E+02 -0.45125921426E+02  0.20741706773E+03  0.23397654005E+03  0.88366719941E+02 0.  0.
         23    2    1    2    0    0  0.98532582560E+01  0.14467980535E+02  0.91830836478E+02  0.13061961312E+03  0.91225937347E+02 0.  0.
        -13    1    4    4    0    0 -0.37816324665E+02 -0.67490591087E+01  0.25001687097E+02  0.45833487405E+02  0.00000000000E+00 0.  1.
         13    1    4    4    0    0  0.47669582921E+02  0.21217039643E+02  0.66829149381E+02  0.84786125717E+02  0.00000000000E+00 0. -1.
        -13    1    3    3    0    0 -0.68512945011E+02 -0.42821476095E+02  0.17594154748E+03  0.19360560575E+03  0.00000000000E+00 0.  1.
         13    1    3    3    0    0  0.25175255556E+02 -0.23044453307E+01  0.31475520257E+02  0.40370934297E+02  0.00000000000E+00 0. -1.
         21    1    1    2  503  501  0.21127385792E+02 -0.26570406920E+02 -0.85085107267E+02  0.91606923499E+02  0.00000000000E+00 0.  1.
          1    1    1    2  501    0  0.12357045407E+02  0.57228347812E+02  0.43430665276E+01  0.58708113505E+02  0.00000000000E+00 0. -1.
<scales pt_clust_5="13000.00000" pt_clust_6="13000.00000" pt_clust_7="13000.00000" pt_clust_8="13000.00000" pt_clust_9="33.94632" pt_clust_10="13000.00000"></scales>
<clustering>
<clus scale="   33.946">  2  9  1 -1</clus>
<clus scale="   88.367">  7  8 -1 -1</clus>
<clus scale="   91.226">  5  6 -1 -1</clus>
<clus scale="   50.214">  5 10 -1 -1</clus>
<clus scale="  109.113">  1  7  2 -1</clus>
<clus scale="   33.946">  2  5  1 -1</clus>
</clustering>
</event>
<event>
10    2  0.4951045E-006  0.1784254E+03  0.7546771E-02  0.1191066E+00
         21   -1    0    0  501  502  0.00000000000E+00  0.00000000000E+00  0.86919563973E+02  0.86919563973E+02  0.00000000000E+00 0.  1.
         -1   -1    0    0    0  501 -0.00000000000E+00 -0.00000000000E+00 -0.39890004343E+03  0.39890004343E+03  0.00000000000E+00 0.  1.
         23    2    1    2    0    0 -0.39557231859E+02 -0.53380048289E+02 -0.22209510995E+03  0.24903765521E+03  0.90990723163E+02 0.  0.
         23    2    1    2    0    0  0.12774672896E+02 -0.42286595974E+02 -0.89024674056E+02  0.13254085258E+03  0.87694563943E+02 0.  0.
        -13    1    4    4    0    0 -0.12200369361E+02 -0.53687321589E+02 -0.89505074475E+02  0.10508251933E+03  0.00000000000E+00 0.  1.
         13    1    4    4    0    0  0.24975042257E+02  0.11400725615E+02  0.48040041917E+00  0.27458333250E+02  0.00000000000E+00 0. -1.
        -13    1    3    3    0    0 -0.59654506119E+02 -0.65954141008E+02 -0.17759916427E+03  0.19862042182E+03  0.00000000000E+00 0.  1.
         13    1    3    3    0    0  0.20097274261E+02  0.12574092718E+02 -0.44495945685E+02  0.50417233391E+02  0.00000000000E+00 0. -1.
         21    1    1    2  503  502 -0.29121148908E+01  0.36315395962E+02  0.79623927853E+01  0.37291930707E+02  0.00000000000E+00 0.  1.
         -1    1    1    2    0  503  0.29694673853E+02  0.59351248302E+02 -0.88230882300E+01  0.66949168898E+02  0.00000000000E+00 0.  1.
<scales pt_clust_5="13000.00000" pt_clust_6="13000.00000" pt_clust_7="13000.00000" pt_clust_8="13000.00000" pt_clust_9="36.43197" pt_clust_10="13000.00000"></scales>
<clustering>
<clus scale="   36.432">  1  9  2 -1</clus>
<clus scale="   87.695">  5  6 -1 -1</clus>
<clus scale="   80.908">  5 10 -1 -1</clus>
<clus scale="   90.991">  7  8 -1 -1</clus>
<clus scale="  109.488">  2  7  1 -1</clus>
<clus scale="   36.432">  1  5  2 -1</clus>
</clustering>
</event>
<event>
10    2  0.4951045E-006  0.1771743E+03  0.7546771E-02  0.1188759E+00
         -1   -1    0    0    0  501 -0.00000000000E+00  0.00000000000E+00  0.16142502272E+03  0.16142502272E+03  0.00000000000E+00 0.  1.
         21   -1    0    0  501  502  0.00000000000E+00 -0.00000000000E+00 -0.26475899680E+03  0.26475899680E+03  0.00000000000E+00 0.  1.
         23    2    1    2    0    0 -0.39836344463E+02 -0.64664697067E+02  0.87810087023E+02  0.14604825974E+03  0.88606012228E+02 0.  0.
         23    2    1    2    0    0  0.50763829431E+01  0.35097157669E+02 -0.15342633675E+03  0.18252193398E+03  0.92287785949E+02 0.  0.
        -11    1    3    3    0    0 -0.33313812055E+02 -0.24686644262E+02  0.96134418841E+02  0.10469511433E+03  0.00000000000E+00 0.  1.
         11    1    3    3    0    0 -0.65225324077E+01 -0.39978052805E+02 -0.83243318180E+01  0.41353145410E+02  0.00000000000E+00 0. -1.
        -11    1    4    4    0    0 -0.95548303170E+01  0.49807591878E+02 -0.15361805843E+03  0.16177329467E+03  0.00000000000E+00 0.  1.
         11    1    4    4    0    0  0.14631213260E+02 -0.14710434208E+02  0.19172168486E+00  0.20748639311E+02  0.00000000000E+00 0. -1.
         21    1    1    2  503  502 -0.21820190700E+02 -0.44073396935E+00 -0.23379543553E+02  0.31983089678E+02  0.00000000000E+00 0.  1.
         -1    1    1    2    0  503  0.56580152220E+02  0.30008273367E+02 -0.14338180793E+02  0.65630736124E+02  0.00000000000E+00 0.  1.
<scales pt_clust_5="13000.00000" pt_clust_6="13000.00000" pt_clust_7="13000.00000" pt_clust_8="13000.00000" pt_clust_9="21.82464" pt_clust_10="13000.00000"></scales>
<clustering>
<clus scale="   21.825">  2  9  1 -1</clus>
<clus scale="   88.606">  5  6 -1 -1</clus>
<clus scale="   92.288">  7  8 -1 -1</clus>
<clus scale="   60.782">  7 10 -1 -1</clus>
<clus scale="  117.674">  1  5  2 -1</clus>
<clus scale="   21.825">  2  5  1 -1</clus>
</clustering>
</event>
<event>
10    2  0.4951045E-006  0.3979976E+03  0.7546771E-02  0.1046963E+00
         21   -1    0    0  503  502  0.00000000000E+00  0.00000000000E+00  0.43646671194E+03  0.43646671194E+03  0.00000000000E+00 0. -1.
          3   -1    0    0  502    0 -0.00000000000E+00 -0.00000000000E+00 -0.63571737190E+03  0.63571737190E+03  0.00000000000E+00 0. -1.
         23    2    1    2    0    0  0.34264544834E+03  0.54670349675E+02 -0.26774800397E+03  0.44754955549E+03  0.90646900589E+02 0.  0.
         23    2    1    2    0    0 -0.28326775207E+03  0.44798316641E+02 -0.45582271046E+02  0.30530493801E+03  0.94264803601E+02 0.  0.
        -11    1    3    3    0    0  0.34048792019E+02  0.34624019355E+02 -0.47147893343E+02  0.67683578517E+02  0.00000000000E+00 0.  1.
         11    1    3    3    0    0  0.30859665632E+03  0.20046330320E+02 -0.22060011063E+03  0.37986597697E+03  0.00000000000E+00 0. -1.
        -13    1    4    4    0    0 -0.47100628377E+02 -0.27108600256E+01  0.26166104853E+02  0.53948892471E+02  0.00000000000E+00 0. -1.
         13    1    4    4    0    0 -0.23616712370E+03  0.47509176666E+02 -0.71748375900E+02  0.25135604553E+03  0.00000000000E+00 0.  1.
         21    1    1    2  503  501  0.41282218643E+02 -0.50213537433E+02  0.17856970803E+03  0.19003358004E+03  0.00000000000E+00 0. -1.
          3    1    1    2  501    0 -0.10065991491E+03 -0.49255128883E+02 -0.64490092964E+02  0.12929601030E+03  0.00000000000E+00 0. -1.
<scales pt_clust_5="13000.00000" pt_clust_6="13000.00000" pt_clust_7="13000.00000" pt_clust_8="13000.00000" pt_clust_9="65.00478" pt_clust_10="13000.00000"></scales>
<clustering>
<clus scale="   65.005">  1  9  2 -1</clus>
<clus scale="   90.647">  5  6 -1 -1</clus>
<clus scale="   94.265">  7  8 -1 -1</clus>
<clus scale="  110.435">  7 10 -1 -1</clus>
<clus scale="  370.509">  2  5  1 -1</clus>
<clus scale="   65.005">  1  5  2 -1</clus>
</clustering>
</event>
<event>
10    2  0.4951045E-006  0.7361367E+03  0.7546771E-02  0.1002311E+00
         21   -1    0    0  503  502  0.00000000000E+00  0.00000000000E+00  0.14363988835E+03  0.14363988835E+03  0.00000000000E+00 0. -1.
          2   -1    0    0  502    0 -0.00000000000E+00 -0.00000000000E+00 -0.21596584641E+04  0.21596584641E+04  0.00000000000E+00 0. -1.
         23    2    1    2    0    0 -0.12925800271E+03  0.15287816057E+03 -0.35758596091E+03  0.41937501088E+03  0.89041097614E+02 0.  0.
         23    2    1    2    0    0  0.40298554914E+03 -0.29012036084E+02 -0.14292464598E+04  0.14884292324E+04  0.97144665070E+02 0.  0.
        -11    1    4    4    0    0  0.97678740562E+02  0.26647731729E+02 -0.44699750304E+03  0.45832085452E+03  0.00000000000E+00 0.  1.
         11    1    4    4    0    0  0.30530680858E+03 -0.55659767813E+02 -0.98224895673E+03  0.10301083778E+04  0.00000000000E+00 0. -1.
        -13    1    3    3    0    0 -0.72631587873E+02  0.56085263147E+02 -0.86911867588E+02  0.12639057333E+03  0.00000000000E+00 0.  1.
         13    1    3    3    0    0 -0.56626414840E+02  0.96792897428E+02 -0.27067409332E+03  0.29298443755E+03  0.00000000000E+00 0. -1.
         21    1    1    2  503  501 -0.10746072102E+03 -0.81137642236E+02 -0.16320318609E+03  0.21158072573E+03  0.00000000000E+00 0. -1.
          2    1    1    2  501    0 -0.16626682540E+03 -0.42728482255E+02 -0.65982968967E+02  0.18391338347E+03  0.00000000000E+00 0. -1.
<scales pt_clust_5="13000.00000" pt_clust_6="13000.00000" pt_clust_7="13000.00000" pt_clust_8="13000.00000" pt_clust_9="134.65186" pt_clust_10="13000.00000"></scales>
<clustering>
<clus scale="   89.041">  7  8 -1 -1</clus>
<clus scale="   97.145">  5  6 -1 -1</clus>
<clus scale="  134.652">  1  9  2 -1</clus>
<clus scale="  223.583">  2  7  1 -1</clus>
<clus scale="  258.686">  5 10 -1 -1</clus>
<clus scale="  134.652">  1  5  2 -1</clus>
</clustering>
</event>
<event>
10    2  0.4951045E-006  0.2218694E+03  0.7546771E-02  0.1145862E+00
         21   -1    0    0  503  502  0.00000000000E+00  0.00000000000E+00  0.79438374414E+02  0.79438374414E+02  0.00000000000E+00 0. -1.
          1   -1    0    0  502    0 -0.00000000000E+00 -0.00000000000E+00 -0.71618308830E+03  0.71618308830E+03  0.00000000000E+00 0. -1.
         23    2    1    2    0    0  0.64574793503E+02  0.12244083579E+03 -0.39903040849E+03  0.43220511249E+03  0.91729657898E+02 0.  0.
         23    2    1    2    0    0 -0.13384702208E+02 -0.13062225661E+02 -0.19577504667E+03  0.21635290435E+03  0.90171715805E+02 0.  0.
        -13    1    4    4    0    0  0.29049686844E+02 -0.33358252319E+02 -0.80550938161E+02  0.91897284737E+02  0.00000000000E+00 0. -1.
         13    1    4    4    0    0 -0.42434389053E+02  0.20296026658E+02 -0.11522410850E+03  0.12445561961E+03  0.00000000000E+00 0.  1.
        -13    1    3    3    0    0 -0.22475922805E+02  0.41340892804E+02 -0.11680161399E+03  0.12592399912E+03  0.00000000000E+00 0.  1.
         13    1    3    3    0    0  0.87050716308E+02  0.81099942983E+02 -0.28222879450E+03  0.30628111337E+03  0.00000000000E+00 0. -1.
         21    1    1    2  503  501  0.71269137205E+01 -0.29137121675E+02  0.14088036658E+02  0.33139667100E+02  0.00000000000E+00 0. -1.
          1    1    1    2  501    0 -0.58317005015E+02 -0.80241488450E+02 -0.56027295396E+02  0.11392377878E+03  0.00000000000E+00 0. -1.
<scales pt_clust_5="13000.00000" pt_clust_6="13000.00000" pt_clust_7="13000.00000" pt_clust_8="13000.00000" pt_clust_9="29.99608" pt_clust_10="13000.00000"></scales>
<clustering>
<clus scale="   29.996">  1  9  2 -1</clus>
<clus scale="   90.172">  5  6 -1 -1</clus>
<clus scale="   91.730">  7  8 -1 -1</clus>
<clus scale="  109.888">  5 10 -1 -1</clus>
<clus scale="  160.651">  2  7  1 -1</clus>
<clus scale="   29.996">  1  5  2 -1</clus>
</clustering>
</event>
<event>
10    2  0.4951045E-006  0.3797896E+03  0.7546771E-02  0.1079681E+00
         21   -1    0    0  501  502  0.00000000000E+00  0.00000000000E+00  0.17743462402E+03  0.17743462402E+03  0.00000000000E+00 0.  1.
          1   -1    0    0  503    0 -0.00000000000E+00 -0.00000000000E+00 -0.62472905632E+03  0.62472905632E+03  0.00000000000E+00 0. -1.
         23    2    1    2    0    0  0.70327171615E+02  0.11185374520E+03  0.21319368712E+02  0.16381272207E+03  0.94461214504E+02 0.  0.
         23    2    1    2    0    0 -0.82441864075E+02  0.53319028245E+02 -0.34119375691E+02  0.13573311182E+03  0.87291271744E+02 0.  0.
        -11    1    4    4    0    0  0.17389000277E+02  0.17416974567E+02 -0.11915029569E+02  0.27344035242E+02  0.00000000000E+00 0. -1.
         11    1    4    4    0    0 -0.99830864352E+02  0.35902053678E+02 -0.22204346123E+02  0.10838907658E+03  0.00000000000E+00 0.  1.
        -13    1    3    3    0    0  0.52091577562E+02  0.12791049308E+03  0.17438636182E+02  0.13920751677E+03  0.00000000000E+00 0.  1.
         13    1    3    3    0    0  0.18235594053E+02 -0.16056747877E+02  0.38807325299E+01  0.24605205299E+02  0.00000000000E+00 0. -1.
         21    1    1    2  503  502 -0.27285643139E+02  0.37359312597E+02 -0.74987619155E+02  0.88109974383E+02  0.00000000000E+00 0.  1.
          1    1    1    2  501    0  0.39400335600E+02 -0.20253208604E+03 -0.35950680617E+03  0.41450787206E+03  0.00000000000E+00 0. -1.
<scales pt_clust_5="13000.00000" pt_clust_6="13000.00000" pt_clust_7="13000.00000" pt_clust_8="13000.00000" pt_clust_9="46.26258" pt_clust_10="13000.00000"></scales>
<clustering>
<clus scale="   46.263">  1  9  2 -1</clus>
<clus scale="   87.291">  5  6 -1 -1</clus>
<clus scale="   94.461">  7  8 -1 -1</clus>
<clus scale="  171.629">  2  7  1 -1</clus>
<clus scale="  124.415">  5 10 -1 -1</clus>
<clus scale="   46.263">  1  5  2 -1</clus>
</clustering>
</event>
<event>
10    2  0.4951045E-006  0.5071367E+03  0.7546771E-02  0.1053160E+00
          1   -1    0    0  503    0 -0.00000000000E+00  0.00000000000E+00  0.26141367448E+04  0.26141367448E+04  0.00000000000E+00 0. -1.
         21   -1    0    0  501  502  0.00000000000E+00 -0.00000000000E+00 -0.45841748416E+02  0.45841748416E+02  0.00000000000E+00 0. -1.
         23    2    1    2    0    0 -0.68353402333E+02  0.10930541801E+03  0.44840134284E+03  0.47476495204E+03  0.87852907779E+02 0.  0.
         23    2    1    2    0    0  0.24398133270E+03 -0.13098834327E+03  0.15332117325E+04  0.15606464270E+04  0.90521913287E+02 0.  0.
        -11    1    4    4    0    0  0.24586337291E+02  0.54250139065E+01  0.61884970914E+02  0.66810690628E+02  0.00000000000E+00 0.  1.
         11    1    4    4    0    0  0.21939499540E+03 -0.13641335718E+03  0.14713267615E+04  0.14938357364E+04  0.00000000000E+00 0. -1.
        -13    1    3    3    0    0 -0.53479911897E+02  0.35270900114E+02  0.31522812354E+03  0.32167204920E+03  0.00000000000E+00 0. -1.
         13    1    3    3    0    0 -0.14873490436E+02  0.74034517897E+02  0.13317321930E+03  0.15309290283E+03  0.00000000000E+00 0.  1.
         21    1    1    2  503  502  0.88023754668E+01 -0.22786564681E+02  0.61912992138E+02  0.66557703831E+02  0.00000000000E+00 0.  1.
          1    1    1    2  501    0 -0.18443030583E+03  0.44469489945E+02  0.52476892891E+03  0.55800941031E+03  0.00000000000E+00 0. -1.
<scales pt_clust_5="13000.00000" pt_clust_6="13000.00000" pt_clust_7="13000.00000" pt_clust_8="13000.00000" pt_clust_9="24.42763" pt_clust_10="13000.00000"></scales>
<clustering>
<clus scale="   24.428">  2  9  1 -1</clus>
<clus scale="   87.853">  7  8 -1 -1</clus>
<clus scale="   90.522">  5  6 -1 -1</clus>
<clus scale="  150.065">  1  7  2 -1</clus>
<clus scale="  206.958">  5 10 -1 -1</clus>
<clus scale="   24.428">  2  5  1 -1</clus>
</clustering>
</event>
<event>
10    2  0.4951045E-006  0.5075065E+03  0.7546771E-02  0.1066574E+00
          2   -1    0    0  502    0 -0.00000000000E+00  0.00000000000E+00  0.15090008237E+04  0.15090008237E+04  0.00000000000E+00 0. -1.
         21   -1    0    0  503  502  0.00000000000E+00 -0.00000000000E+00 -0.78887346698E+02  0.78887346698E+02  0.00000000000E+00 0. -1.
         23    2    1    2    0    0 -0.20016977393E+02  0.44835783359E+02  0.38194204685E+03  0.39553654312E+03  0.90324431558E+02 0.  0.
         23    2    1    2    0    0 -0.16353470365E+03 -0.13734871637E+03  0.90717872608E+03  0.93641125631E+03  0.91019397406E+02 0.  0.
        -11    1    3    3    0    0  0.12575974548E+02 -0.18773799233E+02  0.37704150276E+02  0.43956951913E+02  0.00000000000E+00 0. -1.
         11    1    3    3    0    0 -0.32592951942E+02  0.63609582592E+02  0.34423789658E+03  0.35157959121E+03  0.00000000000E+00 0.  1.
        -13    1    4    4    0    0 -0.56229017655E+02 -0.68585254536E+02  0.21460796373E+03  0.23221157952E+03  0.00000000000E+00 0.  1.
         13    1    4    4    0    0 -0.10730568599E+03 -0.68763461833E+02  0.69257076234E+03  0.70419967678E+03  0.00000000000E+00 0. -1.
         21    1    1    2  503  501  0.22506492832E+02  0.10482790170E+02 -0.27980891926E+01  0.24985203871E+02  0.00000000000E+00 0. -1.
          2    1    1    2  501    0  0.16104518821E+03  0.82030142841E+02  0.14379079324E+03  0.23095516708E+03  0.00000000000E+00 0. -1.
<scales pt_clust_5="13000.00000" pt_clust_6="13000.00000" pt_clust_7="13000.00000" pt_clust_8="13000.00000" pt_clust_9="24.82803" pt_clust_10="13000.00000"></scales>
<clustering>
<clus scale="   24.828">  2  9  1 -1</clus>
<clus scale="   90.324">  5  6 -1 -1</clus>
<clus scale="   91.019">  7  8 -1 -1</clus>
<clus scale="  102.860">  1  5  2 -1</clus>
<clus scale="  198.665">  7 10 -1 -1</clus>
<clus scale="   24.828">  2  5  1 -1</clus>
</clustering>
</event>
<event>
10    2  0.5006527E-006  0.1596497E+03  0.7546771E-02  0.1206704E+00
          1   -1    0    0  503    0 -0.00000000000E+00  0.00000000000E+00  0.15584008145E+03  0.15584008145E+03  0.00000000000E+00 0. -1.
         21   -1    0    0  501  502  0.00000000000E+00 -0.00000000000E+00 -0.79391444403E+03  0.79391444403E+03  0.00000000000E+00 0.  1.
         23    2    1    2    0    0  0.39009412930E+02  0.16252378088E+02  0.17735435213E+02  0.10236148349E+03  0.91528430283E+02 0.  0.
         23    2    1    2    0    0 -0.74924408674E+02  0.15481993161E+02  0.44854803242E+02  0.12932367896E+03  0.94123862219E+02 0.  0.
        -13    1    4    4    0    0 -0.40871833260E+02 -0.19689579373E+02 -0.18725507500E+02  0.49079842309E+02  0.00000000000E+00 0.  1.
         13    1    4    4    0    0 -0.34052575414E+02  0.35171572534E+02  0.63580310741E+02  0.80243836653E+02  0.00000000000E+00 0. -1.
        -13    1    3    3    0    0  0.57069760056E+02 -0.19788284623E+02  0.12840041136E+02  0.61752735790E+02  0.00000000000E+00 0.  1.
         13    1    3    3    0    0 -0.18060347125E+02  0.36040662711E+02  0.48953940763E+01  0.40608747704E+02  0.00000000000E+00 0. -1.
         21    1    1    2  503  502  0.61751530805E+02 -0.54352733477E+02 -0.65883318265E+03  0.66394927046E+03  0.00000000000E+00 0.  1.
          1    1    1    2  501    0 -0.25836535061E+02  0.22618362229E+02 -0.41831418385E+02  0.54120092553E+02  0.00000000000E+00 0. -1.
<scales pt_clust_5="13000.00000" pt_clust_6="13000.00000" pt_clust_7="13000.00000" pt_clust_8="13000.00000" pt_clust_9="82.26464" pt_clust_10="13000.00000"></scales>
<clustering>
<clus scale="   82.265">  2  9  1 -1</clus>
<clus scale="   91.528">  7  8 -1 -1</clus>
<clus scale="   94.124">  5  6 -1 -1</clus>
<clus scale="    4.558">  5 10 -1 -1</clus>
<clus scale="  108.754">  1  7  2 -1</clus>
<clus scale="   82.265">  2  5  1 -1</clus>
</clustering>
</event>
<event>
10    2  0.4951045E-006  0.1987037E+03  0.7546771E-02  0.1184304E+00
          1   -1    0    0  503    0 -0.00000000000E+00  0.00000000000E+00  0.12415379682E+03  0.12415379682E+03  0.00000000000E+00 0. -1.
         21   -1    0    0  501  502  0.00000000000E+00 -0.00000000000E+00 -0.41862518739E+03  0.41862518739E+03  0.00000000000E+00 0.  1.
         23    2    1    2    0    0 -0.29052619531E+02  0.83109380296E+01 -0.28367307511E+02  0.94962729339E+02  0.85440560834E+02 0.  0.
         23    2    1    2    0    0 -0.48871724322E+02  0.27876378889E+02 -0.46142740104E+02  0.11601845629E+03  0.90363664137E+02 0.  0.
        -11    1    4    4    0    0 -0.36470388443E+02  0.44014441790E+02 -0.66186588619E+02  0.87452986411E+02  0.00000000000E+00 0.  1.
         11    1    4    4    0    0 -0.12401335879E+02 -0.16138062901E+02  0.20043848515E+02  0.28565469874E+02  0.00000000000E+00 0. -1.
        -13    1    3    3    0    0 -0.44946137446E+02 -0.16436545048E+02  0.76473273131E+01  0.48464387951E+02  0.00000000000E+00 0.  1.
         13    1    3    3    0    0  0.15893517914E+02  0.24747483078E+02 -0.36014634824E+02  0.46498341388E+02  0.00000000000E+00 0. -1.
         21    1    1    2  503  502 -0.10898001213E+02 -0.55564543546E+02 -0.23315664940E+03  0.23993375771E+03  0.00000000000E+00 0.  1.
          1    1    1    2  501    0  0.88822345066E+02  0.19377226628E+02  0.13195306447E+02  0.91864040882E+02  0.00000000000E+00 0. -1.
<scales pt_clust_5="13000.00000" pt_clust_6="13000.00000" pt_clust_7="13000.00000" pt_clust_8="13000.00000" pt_clust_9="56.62318" pt_clust_10="13000.00000"></scales>
<clustering>
<clus scale="   56.623">  2  9  1 -1</clus>
<clus scale="   85.441">  7  8 -1 -1</clus>
<clus scale="   90.364">  5  6 -1 -1</clus>
<clus scale="   86.782">  5 10 -1 -1</clus>
<clus scale="   92.101">  1  7  2 -1</clus>
<clus scale="   56.623">  2  5  1 -1</clus>
</clustering>
</event>
<event>
10    2  0.4951045E-006  0.2390380E+03  0.7546771E-02  0.1124746E+00
         21   -1    0    0  501  502  0.00000000000E+00  0.00000000000E+00  0.20949532527E+03  0.20949532527E+03  0.00000000000E+00 0. -1.
          2   -1    0    0  503    0 -0.00000000000E+00 -0.00000000000E+00 -0.39859967196E+03  0.39859967196E+03  0.00000000000E+00 0. -1.
         23    2    1    2    0    0  0.21478850813E+03 -0.23940934120E+02  0.87148655352E+01  0.23195102487E+03  0.83773847406E+02 0.  0.
         23    2    1    2    0    0 -0.11430172317E+03  0.68360526911E+02 -0.13141441213E+03  0.20789024269E+03  0.90612138987E+02 0.  0.
        -13    1    3    3    0    0  0.10950611490E+03 -0.53160068423E+02 -0.50102078150E+01  0.12183055552E+03  0.00000000000E+00 0.  1.
         13    1    3    3    0    0  0.10528239322E+03  0.29219134304E+02  0.13725073350E+02  0.11012046936E+03  0.00000000000E+00 0. -1.
        -13    1    4    4    0    0 -0.11002012459E+03  0.88043722893E+02 -0.11629699464E+03  0.18270499697E+03  0.00000000000E+00 0. -1.
         13    1    4    4    0    0 -0.42815985806E+01 -0.19683195982E+02 -0.15117417493E+02  0.25185245723E+02  0.00000000000E+00 0.  1.
         21    1    1    2  503  502 -0.32067317513E+02 -0.32147974145E+02  0.26230322549E+02  0.52438868362E+02  0.00000000000E+00 0.  1.
          2    1    1    2  501    0 -0.68419467439E+02 -0.12271618647E+02 -0.92635122647E+02  0.11581486129E+03  0.00000000000E+00 0. -1.
<scales pt_clust_5="13000.00000" pt_clust_6="13000.00000" pt_clust_7="13000.00000" pt_clust_8="13000.00000" pt_clust_9="45.40710" pt_clust_10="13000.00000"></scales>
<clustering>
<clus scale="   45.407">  1  9  2 -1</clus>
<clus scale="   83.774">  5  6 -1 -1</clus>
<clus scale="   90.612">  7  8 -1 -1</clus>
<clus scale="   72.069">  7 10 -1 -1</clus>
<clus scale="  214.717">  2  5  1 -1</clus>
<clus scale="   45.407">  1  5  2 -1</clus>
</clustering>
</event>
<event>
10    2  0.4951045E-006  0.4202767E+03  0.7546771E-02  0.1079142E+00
         21   -1    0    0  501  502  0.00000000000E+00  0.00000000000E+00  0.19770898127E+03  0.19770898127E+03  0.00000000000E+00 0.  1.
         -3   -1    0    0    0  501 -0.00000000000E+00 -0.00000000000E+00 -0.53545702463E+03  0.53545702463E+03  0.00000000000E+00 0.  1.
         23    2    1    2    0    0 -0.15392705405E+02  0.89356965537E+02 -0.18353965161E+03  0.22471143949E+03  0.92665121025E+02 0.  0.
         23    2    1    2    0    0 -0.16734991248E+02  0.37631468427E+02 -0.29228543447E+03  0.30915305179E+03  0.91916521279E+02 0.  0.
        -11    1    4    4    0    0 -0.83992102894E+00 -0.30076346681E+02 -0.68685746624E+02  0.74986824751E+02  0.00000000000E+00 0. -1.
         11    1    4    4    0    0 -0.15895070219E+02  0.67707815107E+02 -0.22359968784E+03  0.23416622704E+03  0.00000000000E+00 0.  1.
        -13    1    3    3    0    0  0.38030658903E+02  0.40111769785E+02 -0.97678017483E+02  0.11223315104E+03  0.00000000000E+00 0. -1.
         13    1    3    3    0    0 -0.53423364308E+02  0.49245195751E+02 -0.85861634126E+02  0.11247828845E+03  0.00000000000E+00 0.  1.
         21    1    1    2  503  502  0.18864924764E+02 -0.93562676945E+01  0.41458378877E+02  0.46499702264E+02  0.00000000000E+00 0. -1.
         -3    1    1    2    0  503  0.13262771889E+02 -0.11763216627E+03  0.96618663832E+02  0.15280181236E+03  0.00000000000E+00 0.  1.
<scales pt_clust_5="13000.00000" pt_clust_6="13000.00000" pt_clust_7="13000.00000" pt_clust_8="13000.00000" pt_clust_9="21.05766" pt_clust_10="13000.00000"></scales>
<clustering>
<clus scale="   21.058">  1  9  2 -1</clus>
<clus scale="   91.917">  5  6 -1 -1</clus>
<clus scale="   92.665">  7  8 -1 -1</clus>
<clus scale="  128.439">  5 10 -1 -1</clus>
<clus scale="  128.510">  2  7  1 -1</clus>
<clus scale="   21.058">  1  5  2 -1</clus>
</clustering>
</event>
<event>
10    2  0.4951045E-006  0.8498307E+03  0.7546771E-02  0.9868783E-01
         21   -1    0    0  503  502  0.00000000000E+00  0.00000000000E+00  0.11053020760E+04  0.11053020760E+04  0.00000000000E+00 0. -1.
          1   -1    0    0  502    0 -0.00000000000E+00 -0.00000000000E+00 -0.30723456859E+03  0.30723456859E+03  0.00000000000E+00 0. -1.
         23    2    1    2    0    0 -0.74658704635E+02 -0.20783345623E+03  0.12952295972E+03  0.27549449101E+03  0.10174649761E+03 0.  0.
         23    2    1    2    0    0 -0.22450385315E+03  0.25426027782E+03  0.73917835585E+03  0.81864600743E+03  0.93522054988E+02 0.  0.
        -11    1    3    3    0    0 -0.18034975077E+02 -0.51081541829E+02  0.88648292047E+02  0.10388986440E+03  0.00000000000E+00 0.  1.
         11    1    3    3    0    0 -0.56623729558E+02 -0.15675191440E+03  0.40874667677E+02  0.17160462661E+03  0.00000000000E+00 0. -1.
        -11    1    4    4    0    0 -0.84955969198E+02  0.13339346120E+03  0.25036141187E+03  0.29612863547E+03  0.00000000000E+00 0.  1.
         11    1    4    4    0    0 -0.13954788395E+03  0.12086681662E+03  0.48881694399E+03  0.52251737196E+03  0.00000000000E+00 0. -1.
         21    1    1    2  503  501  0.57698727392E+02  0.14752490758E+02 -0.27181348752E+00  0.59555461620E+02  0.00000000000E+00 0. -1.
          1    1    1    2  501    0  0.24146383039E+03 -0.61179312352E+02 -0.70361994727E+02  0.25884068449E+03  0.00000000000E+00 0. -1.
<scales pt_clust_5="13000.00000" pt_clust_6="13000.00000" pt_clust_7="13000.00000" pt_clust_8="13000.00000" pt_clust_9="59.55487" pt_clust_10="13000.00000"></scales>
<clustering>
<clus scale="   59.555">  1  9  2 -1</clus>
<clus scale="   93.522">  7  8 -1 -1</clus>
<clus scale="  101.746">  5  6 -1 -1</clus>
<clus scale="  237.635">  2  5  1 -1</clus>
<clus scale="  292.497">  7 10 -1 -1</clus>
<clus scale="   59.555">  1  5  2 -1</clus>
</clustering>
</event>
<event>
10    2  0.4951045E-006  0.2217914E+03  0.7546771E-02  0.1148458E+00
          1   -1    0    0  502    0 -0.00000000000E+00  0.00000000000E+00  0.66396262698E+03  0.66396262698E+03  0.00000000000E+00 0. -1.
         21   -1    0    0  503  502  0.00000000000E+00 -0.00000000000E+00 -0.51190233659E+03  0.51190233659E+03  0.00000000000E+00 0.  1.
         23    2    1    2    0    0 -0.10009166350E+03  0.70523362498E+02  0.59172901477E+03  0.61118607978E+03  0.91724105002E+02 0.  0.
         23    2    1    2    0    0 -0.18014489098E+02 -0.11244745114E+03 -0.85279979825E+02  0.16761528592E+03  0.88618609951E+02 0.  0.
        -11    1    3    3    0    0 -0.61949205186E+02  0.66881965457E+02  0.53511433585E+03  0.54282433047E+03  0.00000000000E+00 0. -1.
         11    1    3    3    0    0 -0.38142458316E+02  0.36413970406E+01  0.56614678921E+02  0.68361749305E+02  0.00000000000E+00 0.  1.
        -11    1    4    4    0    0  0.94162390054E+01 -0.26977487844E+02 -0.71244308410E+02  0.76760679310E+02  0.00000000000E+00 0.  1.
         11    1    4    4    0    0 -0.27430728104E+02 -0.85469963296E+02 -0.14035671415E+02  0.90854606610E+02  0.00000000000E+00 0. -1.
         21    1    1    2  503  501  0.63104312567E+02  0.11688939632E+02 -0.31821284569E+03  0.32462008677E+03  0.00000000000E+00 0.  1.
          1    1    1    2  501    0  0.55001840033E+02  0.30235149011E+02 -0.36175898860E+02  0.72443511104E+02  0.00000000000E+00 0. -1.
<scales pt_clust_5="13000.00000" pt_clust_6="13000.00000" pt_clust_7="13000.00000" pt_clust_8="13000.00000" pt_clust_9="64.17777" pt_clust_10="13000.00000"></scales>
<clustering>
<clus scale="   64.178">  2  9  1 -1</clus>
<clus scale="   88.619">  7  8 -1 -1</clus>
<clus scale="   80.342">  7 10 -1 -1</clus>
<clus scale="   91.724">  5  6 -1 -1</clus>
<clus scale="  151.179">  1  5  2 -1</clus>
<clus scale="   64.178">  2  5  1 -1</clus>
</clustering>
</event>
<event>
10    2  0.4951045E-006  0.1492851E+03  0.7546771E-02  0.1217605E+00
         -2   -1    0    0    0  501 -0.00000000000E+00  0.00000000000E+00  0.23782170423E+03  0.23782170423E+03  0.00000000000E+00 0.  1.
         21   -1    0    0  501  502  0.00000000000E+00 -0.00000000000E+00 -0.15651421339E+03  0.15651421339E+03  0.00000000000E+00 0.  1.
         23    2    1    2    0    0 -0.34069357699E+02 -0.56194627835E+02  0.12297229759E+03  0.16627401416E+03  0.90588655365E+02 0.  0.
         23    2    1    2    0    0 -0.12539679386E+02 -0.13543596454E+02  0.40796965564E+02  0.10168515875E+03  0.91295161680E+02 0.  0.
        -13    1    4    4    0    0 -0.12211978538E+02 -0.39329536434E+02  0.57672302354E+02  0.70866348253E+02  0.00000000000E+00 0.  1.
         13    1    4    4    0    0 -0.32770084809E+00  0.25785939980E+02 -0.16875336790E+02  0.30818810494E+02  0.00000000000E+00 0. -1.
        -13    1    3    3    0    0 -0.55037463679E+02 -0.12804096280E+02  0.36471900994E+02  0.67255236613E+02  0.00000000000E+00 0. -1.
         13    1    3    3    0    0  0.20968105980E+02 -0.43390531555E+02  0.86500396592E+02  0.99018777551E+02  0.00000000000E+00 0.  1.
         21    1    1    2  503  502  0.23913795631E+02  0.35103948946E+02 -0.72117484219E+02  0.83696406035E+02  0.00000000000E+00 0.  1.
         -2    1    1    2    0  503  0.22695241455E+02  0.34634275344E+02 -0.10344288090E+02  0.42680338675E+02  0.00000000000E+00 0.  1.
<scales pt_clust_5="13000.00000" pt_clust_6="13000.00000" pt_clust_7="13000.00000" pt_clust_8="13000.00000" pt_clust_9="42.47537" pt_clust_10="13000.00000"></scales>
<clustering>
<clus scale="   42.475">  2  9  1 -1</clus>
<clus scale="   90.589">  7  8 -1 -1</clus>
<clus scale="   91.295">  5  6 -1 -1</clus>
<clus scale="   55.732">  5 10 -1 -1</clus>
<clus scale="  105.481">  1  7  2 -1</clus>
<clus scale="   42.475">  2  5  1 -1</clus>
</clustering>
</event>
<event>
10    2  0.4951045E-006  0.3416965E+03  0.7546771E-02  0.1112740E+00
         -3   -1    0    0    0  501 -0.00000000000E+00  0.00000000000E+00  0.32072939557E+03  0.32072939557E+03  0.00000000000E+00 0.  1.
         21   -1    0    0  503  502  0.00000000000E+00 -0.00000000000E+00 -0.39017613517E+03  0.39017613517E+03  0.00000000000E+00 0.  1.
         23    2    1    2    0    0  0.32150393787E+01  0.38498943583E+02  0.95095113185E+02  0.13750651242E+03  0.91501121700E+02 0.  0.
         23    2    1    2    0    0 -0.45587566344E+02  0.29292678643E+02  0.12729777486E+03  0.16411166953E+03  0.88270206558E+02 0.  0.
        -11    1    3    3    0    0  0.46576841468E+02  0.19168564519E+02  0.37090950939E+02  0.62550576883E+02  0.00000000000E+00 0.  1.
         11    1    3    3    0    0 -0.43361802089E+02  0.19330379065E+02  0.58004162245E+02  0.74955935542E+02  0.00000000000E+00 0. -1.
        -13    1    4    4    0    0  0.91515018231E+01  0.37747931404E+02  0.88023687754E+02  0.96212400016E+02  0.00000000000E+00 0. -1.
         13    1    4    4    0    0 -0.54739068167E+02 -0.84552527613E+01  0.39274087101E+02  0.67899269515E+02  0.00000000000E+00 0.  1.
         21    1    1    2  503  501  0.90178918072E+02 -0.15836237870E+03 -0.16130673619E+03  0.24337367029E+03  0.00000000000E+00 0.  1.
         -3    1    1    2    0  502 -0.47806391107E+02  0.90570756474E+02 -0.13053289146E+03  0.16591367849E+03  0.00000000000E+00 0.  1.
<scales pt_clust_5="13000.00000" pt_clust_6="13000.00000" pt_clust_7="13000.00000" pt_clust_8="13000.00000" pt_clust_9="175.89735" pt_clust_10="13000.00000"></scales>
<clustering>
<clus scale="   88.270">  7  8 -1 -1</clus>
<clus scale="   91.501">  5  6 -1 -1</clus>
<clus scale="   99.323">  1  5  2 -1</clus>
<clus scale="  105.245">  7 10 -1 -1</clus>
<clus scale="  175.897">  2  9  1 -1</clus>
<clus scale="  175.897">  2  5  1 -1</clus>
</clustering>
</event>
<event>
10    2  0.4951045E-006  0.2524554E+03  0.7546771E-02  0.1130640E+00
         21   -1    0    0  501  502  0.00000000000E+00  0.00000000000E+00  0.62660126163E+02  0.62660126163E+02  0.00000000000E+00 0. -1.
          1   -1    0    0  503    0 -0.00000000000E+00 -0.00000000000E+00 -0.81315566997E+03  0.81315566997E+03  0.00000000000E+00 0. -1.
         23    2    1    2    0    0  0.88395886895E+02  0.10740965899E+03 -0.21501281836E+03  0.26912294882E+03  0.82740448725E+02 0.  0.
         23    2    1    2    0    0 -0.48034271763E+02 -0.51630455262E+02 -0.44287489926E+03  0.45776984519E+03  0.91880681293E+02 0.  0.
        -13    1    3    3    0    0 -0.62012022659E+01  0.46107141674E+02 -0.42288963124E+02  0.62870341378E+02  0.00000000000E+00 0.  1.
         13    1    3    3    0    0  0.94597089161E+02  0.61302517321E+02 -0.17272385523E+03  0.20625260744E+03  0.00000000000E+00 0. -1.
        -13    1    4    4    0    0 -0.20774947315E+02  0.18494654146E+02 -0.45446494976E+02  0.53282591655E+02  0.00000000000E+00 0.  1.
         13    1    4    4    0    0 -0.27259324448E+02 -0.70125109408E+02 -0.39742840428E+03  0.40448725353E+03  0.00000000000E+00 0. -1.
         21    1    1    2  503  502  0.16510921833E+02 -0.29842231226E+02 -0.77416206729E+02  0.84595734932E+02  0.00000000000E+00 0. -1.
          1    1    1    2  501    0 -0.56872536965E+02 -0.25936972507E+02 -0.15191619464E+02  0.64327267202E+02  0.00000000000E+00 0. -1.
<scales pt_clust_5="13000.00000" pt_clust_6="13000.00000" pt_clust_7="13000.00000" pt_clust_8="13000.00000" pt_clust_9="34.10529" pt_clust_10="13000.00000"></scales>
<clustering>
<clus scale="   34.105">  1  9  2 -1</clus>
<clus scale="   82.740">  5  6 -1 -1</clus>
<clus scale="   91.881">  7  8 -1 -1</clus>
<clus scale="   63.017">  7 10 -1 -1</clus>
<clus scale="  157.612">  2  5  1 -1</clus>
<clus scale="   34.105">  1  5  2 -1</clus>
</clustering>
</event>
<event>
10    2  0.4951045E-006  0.1486129E+03  0.7546771E-02  0.1220456E+00
          2   -1    0    0  503    0 -0.00000000000E+00  0.00000000000E+00  0.29228529205E+03  0.29228529205E+03  0.00000000000E+00 0. -1.
         21   -1    0    0  501  502  0.00000000000E+00 -0.00000000000E+00 -0.21704641084E+03  0.21704641084E+03  0.00000000000E+00 0. -1.
         23    2    1    2    0    0  0.87065887297E+01 -0.37187492151E+02  0.23194132370E+03  0.25256449650E+03  0.92376041218E+02 0.  0.
         23    2    1    2    0    0 -0.65626773989E+01  0.25129511650E+01 -0.78524528126E+02  0.11982417016E+03  0.90234952096E+02 0.  0.
        -11    1    4    4    0    0  0.37855790169E+02  0.18122003784E+02 -0.47770732448E+02  0.63588605497E+02  0.00000000000E+00 0.  1.
         11    1    4    4    0    0 -0.44418467568E+02 -0.15609052619E+02 -0.30753795678E+02  0.56235564667E+02  0.00000000000E+00 0. -1.
        -13    1    3    3    0    0 -0.14514547503E+02 -0.58088319027E+02  0.19600661391E+03  0.20494759719E+03  0.00000000000E+00 0. -1.
         13    1    3    3    0    0  0.23221136233E+02  0.20900826876E+02  0.35934709789E+02  0.47616899308E+02  0.00000000000E+00 0.  1.
         21    1    1    2  503  502  0.76933818486E+01 -0.34998615801E+02 -0.63496238682E+01  0.36392429920E+02  0.00000000000E+00 0. -1.
          2    1    1    2  501    0 -0.98372931793E+01  0.69673156787E+02 -0.71828290492E+02  0.10055060631E+03  0.00000000000E+00 0. -1.
<scales pt_clust_5="13000.00000" pt_clust_6="13000.00000" pt_clust_7="13000.00000" pt_clust_8="13000.00000" pt_clust_9="35.83422" pt_clust_10="13000.00000"></scales>
<clustering>
<clus scale="   35.834">  2  9  1 -1</clus>
<clus scale="   90.235">  5  6 -1 -1</clus>
<clus scale="   54.639">  5 10 -1 -1</clus>
<clus scale="   92.376">  7  8 -1 -1</clus>
<clus scale="  100.697">  1  7  2 -1</clus>
<clus scale="   35.834">  2  5  1 -1</clus>
</clustering>
</event>
<event>
10    2  0.4951045E-006  0.4459947E+03  0.7546771E-02  0.1065957E+00
         21   -1    0    0  503  502  0.00000000000E+00  0.00000000000E+00  0.37491997672E+03  0.37491997672E+03  0.00000000000E+00 0. -1.
          1   -1    0    0  502    0 -0.00000000000E+00 -0.00000000000E+00 -0.41034301685E+03  0.41034301685E+03  0.00000000000E+00 0. -1.
         23    2    1    2    0    0 -0.48558310122E+02  0.11252913073E+03 -0.21292714428E+03  0.26201536237E+03  0.91067923021E+02 0.  0.
         23    2    1    2    0    0 -0.51293654872E+02 -0.11148321074E+03 -0.10600448284E+03  0.18752976560E+03  0.94185547174E+02 0.  0.
        -13    1    4    4    0    0  0.52925177864E+01 -0.47756421595E+02  0.41825789392E+01  0.48230493619E+02  0.00000000000E+00 0.  1.
         13    1    4    4    0    0 -0.56586172658E+02 -0.63726789146E+02 -0.11018706178E+03  0.13929927198E+03  0.00000000000E+00 0. -1.
        -13    1    3    3    0    0  0.53757768346E+01  0.55196159896E+02 -0.30409517249E+02  0.63247559503E+02  0.00000000000E+00 0.  1.
         13    1    3    3    0    0 -0.53934086957E+02  0.57332970833E+02 -0.18251762703E+03  0.19876780287E+03  0.00000000000E+00 0. -1.
         21    1    1    2  503  501 -0.34332835365E+02  0.12659596565E+02  0.25570397612E+02  0.44641395626E+02  0.00000000000E+00 0. -1.
          1    1    1    2  501    0  0.13418480036E+03 -0.13705516553E+02  0.25793818938E+03  0.29107646997E+03  0.00000000000E+00 0. -1.
<scales pt_clust_5="13000.00000" pt_clust_6="13000.00000" pt_clust_7="13000.00000" pt_clust_8="13000.00000" pt_clust_9="36.59247" pt_clust_10="13000.00000"></scales>
<clustering>
<clus scale="   36.592">  1  9  2 -1</clus>
<clus scale="   91.068">  7  8 -1 -1</clus>
<clus scale="   94.186">  5  6 -1 -1</clus>
<clus scale="  106.507">  5 10 -1 -1</clus>
<clus scale="  154.168">  2  7  1 -1</clus>
<clus scale="   36.592">  1  5  2 -1</clus>
</clustering>
</event>
<event>
10    2  0.4951045E-006  0.2456899E+03  0.7546771E-02  0.1149346E+00
          1   -1    0    0  503    0 -0.00000000000E+00  0.00000000000E+00  0.60918367574E+03  0.60918367574E+03  0.00000000000E+00 0. -1.
         21   -1    0    0  501  502  0.00000000000E+00 -0.00000000000E+00 -0.62306009887E+02  0.62306009887E+02  0.00000000000E+00 0. -1.
         23    2    1    2    0    0  0.54294692247E+02  0.11143539460E+02  0.11461432858E+03  0.15744816475E+03  0.92635782454E+02 0.  0.
         23    2    1    2    0    0 -0.80610578513E+02  0.53536968498E+01  0.42136176149E+03  0.44158645627E+03  0.10452816305E+03 0.  0.
        -11    1    4    4    0    0 -0.22480662725E+02  0.40052863475E+02  0.69735128568E+02  0.83502097132E+02  0.00000000000E+00 0.  1.
         11    1    4    4    0    0 -0.58129915789E+02 -0.34699166626E+02  0.35162663292E+03  0.35808435913E+03  0.00000000000E+00 0. -1.
        -11    1    3    3    0    0  0.36538327012E+02  0.36539030293E+02  0.11541051262E+03  0.12645052984E+03  0.00000000000E+00 0. -1.
         11    1    3    3    0    0  0.17756365234E+02 -0.25395490833E+02 -0.79618403623E+00  0.30997634910E+02  0.00000000000E+00 0.  1.
         21    1    1    2  503  502 -0.16221501021E+01  0.22478776532E+02  0.95613115812E+01  0.24481532723E+02  0.00000000000E+00 0. -1.
          1    1    1    2  501    0  0.27938036369E+02 -0.38976012842E+02  0.13402641980E+01  0.47973531883E+02  0.00000000000E+00 0. -1.
<scales pt_clust_5="13000.00000" pt_clust_6="13000.00000" pt_clust_7="13000.00000" pt_clust_8="13000.00000" pt_clust_9="22.53723" pt_clust_10="13000.00000"></scales>
<clustering>
<clus scale="   22.537">  2  9  1 -1</clus>
<clus scale="   92.636">  7  8 -1 -1</clus>
<clus scale="  104.528">  5  6 -1 -1</clus>
<clus scale="   40.100">  5 10 -1 -1</clus>
<clus scale="  108.893">  1  7  2 -1</clus>
<clus scale="   22.537">  2  5  1 -1</clus>
</clustering>
</event>
<event>
10    2  0.4951045E-006  0.2676013E+03  0.7546771E-02  0.1137753E+00
         21   -1    0    0  501  502  0.00000000000E+00  0.00000000000E+00  0.27958268882E+03  0.27958268882E+03  0.00000000000E+00 0. -1.
          1   -1    0    0  503    0 -0.00000000000E+00 -0.00000000000E+00 -0.42352711200E+03  0.42352711200E+03  0.00000000000E+00 0. -1.
         23    2    1    2    0    0 -0.57933422742E+02  0.16688973339E+02 -0.60364799152E+02  0.12521284193E+03  0.91649023485E+02 0.  0.
         23    2    1    2    0    0  0.14799410103E+03  0.12595390911E+02 -0.24601025304E+03  0.30216318842E+03  0.93384420669E+02 0.  0.
        -11    1    4    4    0    0  0.12652606816E+03 -0.25624205530E+02 -0.15964160899E+03  0.20530681711E+03  0.00000000000E+00 0. -1.
         11    1    4    4    0    0  0.21468032873E+02  0.38219596441E+02 -0.86368644054E+02  0.96856371310E+02  0.00000000000E+00 0.  1.
        -13    1    3    3    0    0 -0.57700737324E+02 -0.23965475093E+02 -0.56736088832E+02  0.84396106901E+02  0.00000000000E+00 0. -1.
         13    1    3    3    0    0 -0.23268541838E+00  0.40654448432E+02 -0.36287103205E+01  0.40816735029E+02  0.00000000000E+00 0.  1.
         21    1    1    2  503  502 -0.14121681896E+02 -0.45622312352E+02  0.18798888193E+03  0.19396040063E+03  0.00000000000E+00 0. -1.
          1    1    1    2  501    0 -0.75938996396E+02  0.16337948101E+02 -0.25558252917E+02  0.81773369834E+02  0.00000000000E+00 0. -1.
<scales pt_clust_5="13000.00000" pt_clust_6="13000.00000" pt_clust_7="13000.00000" pt_clust_8="13000.00000" pt_clust_9="47.75790" pt_clust_10="13000.00000"></scales>
<clustering>
<clus scale="   47.758">  1  9  2 -1</clus>
<clus scale="   91.649">  7  8 -1 -1</clus>
<clus scale="   93.384">  5  6 -1 -1</clus>
<clus scale="   80.440">  5 10 -1 -1</clus>
<clus scale="  111.271">  2  7  1 -1</clus>
<clus scale="   47.758">  1  5  2 -1</clus>
</clustering>
</event>
<event>
10    2  0.4951045E-006  0.2512472E+03  0.7546771E-02  0.1148983E+00
          1   -1    0    0  502    0 -0.00000000000E+00  0.00000000000E+00  0.38800430642E+03  0.38800430642E+03  0.00000000000E+00 0. -1.
         21   -1    0    0  503  502  0.00000000000E+00 -0.00000000000E+00 -0.14120690755E+03  0.14120690755E+03  0.00000000000E+00 0. -1.
         23    2    1    2    0    0 -0.54139587843E+02 -0.83628526439E+00  0.17437816069E+03  0.20330156263E+03  0.89397919981E+02 0.  0.
         23    2    1    2    0    0 -0.59643642218E+02 -0.27652622705E+02  0.13900408223E+03  0.17905820853E+03  0.91747891342E+02 0.  0.
        -11    1    4    4    0    0 -0.43598470331E+02  0.29333745982E+02  0.78005296771E+02  0.94053822851E+02  0.00000000000E+00 0.  1.
         11    1    4    4    0    0 -0.16045171886E+02 -0.56986368687E+02  0.60998785456E+02  0.85004385676E+02  0.00000000000E+00 0. -1.
        -13    1    3    3    0    0  0.80199553740E+01  0.32715372653E+02  0.50595914702E+02  0.60782907767E+02  0.00000000000E+00 0.  1.
         13    1    3    3    0    0 -0.62159543217E+02 -0.33551657918E+02  0.12378224599E+03  0.14251865486E+03  0.00000000000E+00 0. -1.
         21    1    1    2  503  501  0.22965026760E+02  0.78241591985E+01 -0.45182989140E+02  0.51284621758E+02  0.00000000000E+00 0.  1.
          1    1    1    2  501    0  0.90818203300E+02  0.20664748771E+02 -0.21401854907E+02  0.95566821052E+02  0.00000000000E+00 0. -1.
<scales pt_clust_5="13000.00000" pt_clust_6="13000.00000" pt_clust_7="13000.00000" pt_clust_8="13000.00000" pt_clust_9="24.26128" pt_clust_10="13000.00000"></scales>
<clustering>
<clus scale="   24.261">  2  9  1 -1</clus>
<clus scale="   89.398">  7  8 -1 -1</clus>
<clus scale="   91.748">  5  6 -1 -1</clus>
<clus scale="  102.709">  1  7  2 -1</clus>
<clus scale="   95.813">  5 10 -1 -1</clus>
<clus scale="   24.261">  2  5  1 -1</clus>
</clustering>
</event>
<event>
10    2  0.4951045E-006  0.2418214E+03  0.7546771E-02  0.1147481E+00
         21   -1    0    0  501  502  0.00000000000E+00  0.00000000000E+00  0.29652655279E+03  0.29652655279E+03  0.00000000000E+00 0.  1.
          2   -1    0    0  503    0 -0.00000000000E+00 -0.00000000000E+00 -0.15889537541E+03  0.15889537541E+03  0.00000000000E+00 0. -1.
         23    2    1    2    0    0  0.16371327405E+02 -0.77046313571E+02  0.38651185664E+01  0.12029736629E+03  0.90842514267E+02 0.  0.
         23    2    1    2    0    0 -0.63428069107E+01 -0.32449518904E+02 -0.36132522649E+02  0.10526113481E+03  0.93172661395E+02 0.  0.
        -11    1    3    3    0    0  0.40743552118E+02 -0.59145690876E+02 -0.27335585282E+02  0.76847147059E+02  0.00000000000E+00 0. -1.
         11    1    3    3    0    0 -0.24372224714E+02 -0.17900622695E+02  0.31200703849E+02  0.43450219229E+02  0.00000000000E+00 0.  1.
        -11    1    4    4    0    0  0.41371372686E+02 -0.18267608691E+02 -0.31820041916E+02  0.55297477996E+02  0.00000000000E+00 0.  1.
         11    1    4    4    0    0 -0.47714179597E+02 -0.14181910213E+02 -0.43124807330E+01  0.49963656811E+02  0.00000000000E+00 0. -1.
         21    1    1    2  503  502 -0.31399671156E+02 -0.25613880341E+00  0.81459972600E+02  0.87302531990E+02  0.00000000000E+00 0.  1.
          2    1    1    2  501    0  0.21371150662E+02  0.10975197128E+03  0.88438608854E+02  0.14256089512E+03  0.00000000000E+00 0. -1.
<scales pt_clust_5="13000.00000" pt_clust_6="13000.00000" pt_clust_7="13000.00000" pt_clust_8="13000.00000" pt_clust_9="31.40072" pt_clust_10="13000.00000"></scales>
<clustering>
<clus scale="   31.401">  1  9  2 -1</clus>
<clus scale="   90.843">  5  6 -1 -1</clus>
<clus scale="   93.173">  7  8 -1 -1</clus>
<clus scale="  109.696">  7 10 -1 -1</clus>
<clus scale="  119.380">  2  5  1 -1</clus>
<clus scale="   31.401">  1  5  2 -1</clus>
</clustering>
</event>
<event>
10    2  0.4951045E-006  0.2201092E+03  0.7546771E-02  0.1167378E+00
         21   -1    0    0  501  502  0.00000000000E+00  0.00000000000E+00  0.12959000517E+03  0.12959000517E+03  0.00000000000E+00 0. -1.
          1   -1    0    0  503    0 -0.00000000000E+00 -0.00000000000E+00 -0.35949464105E+03  0.35949464105E+03  0.00000000000E+00 0. -1.
         23    2    1    2    0    0  0.13983581809E+02 -0.33391209711E+02 -0.19646716559E+03  0.21979433731E+03  0.91649823315E+02 0.  0.
         23    2    1    2    0    0  0.14756458515E+01  0.88810504819E+02 -0.77844545195E+02  0.15070234706E+03  0.93605239678E+02 0.  0.
        -11    1    4    4    0    0 -0.45224154252E+02  0.46449595004E+02 -0.29368333269E+02  0.71170836744E+02  0.00000000000E+00 0.  1.
         11    1    4    4    0    0  0.46699800103E+02  0.42360909815E+02 -0.48476211926E+02  0.79531510314E+02  0.00000000000E+00 0. -1.
        -11    1    3    3    0    0  0.40414072863E+02 -0.36528210853E+02 -0.18097883356E+03  0.18899985627E+03  0.00000000000E+00 0.  1.
         11    1    3    3    0    0 -0.26430491054E+02  0.31370011418E+01 -0.15488332027E+02  0.30794481040E+02  0.00000000000E+00 0. -1.
         21    1    1    2  503  502  0.36852312533E+02 -0.52010444154E+01  0.11480693772E+02  0.38948044001E+02  0.00000000000E+00 0. -1.
          1    1    1    2  501    0 -0.52311540194E+02 -0.50218250692E+02  0.32926381128E+02  0.79639917844E+02  0.00000000000E+00 0. -1.
<scales pt_clust_5="13000.00000" pt_clust_6="13000.00000" pt_clust_7="13000.00000" pt_clust_8="13000.00000" pt_clust_9="37.21752" pt_clust_10="13000.00000"></scales>
<clustering>
<clus scale="   37.218">  1  9  2 -1</clus>
<clus scale="   91.650">  7  8 -1 -1</clus>
<clus scale="   93.605">  5  6 -1 -1</clus>
<clus scale="   62.159">  5 10 -1 -1</clus>
<clus scale="   99.406">  2  7  1 -1</clus>
<clus scale="   37.218">  1  5  2 -1</clus>
</clustering>
</event>
<event>
10    2  0.4951045E-006  0.2206403E+03  0.7546771E-02  0.1164350E+00
         21   -1    0    0  501  502  0.00000000000E+00  0.00000000000E+00  0.92555082056E+02  0.92555082056E+02  0.00000000000E+00 0. -1.
          1   -1    0    0  503    0 -0.00000000000E+00 -0.00000000000E+00 -0.72006644968E+03  0.72006644968E+03  0.00000000000E+00 0. -1.
         23    2    1    2    0    0 -0.26150610441E+02  0.51457064419E+02 -0.38771279519E+03  0.40272504907E+03  0.92382734817E+02 0.  0.
         23    2    1    2    0    0 -0.43969006825E+02 -0.37025086592E+02 -0.11142652116E+03  0.15448631920E+03  0.90255318988E+02 0.  0.
        -11    1    3    3    0    0  0.32684877457E+02  0.33917814857E+02 -0.18634612710E+03  0.19220717589E+03  0.00000000000E+00 0.  1.
         11    1    3    3    0    0 -0.58835487899E+02  0.17539249562E+02 -0.20136666809E+03  0.21051787318E+03  0.00000000000E+00 0. -1.
        -11    1    4    4    0    0 -0.69212184568E+02 -0.35485461672E+02 -0.10012609558E+03  0.12678635376E+03  0.00000000000E+00 0. -1.
         11    1    4    4    0    0  0.25243177743E+02 -0.15396249200E+01 -0.11300425573E+02  0.27699965444E+02  0.00000000000E+00 0.  1.
         21    1    1    2  503  502 -0.32389462924E+02 -0.68137954204E+02  0.87848646153E+01  0.75954143784E+02  0.00000000000E+00 0. -1.
          1    1    1    2  501    0  0.10250908019E+03  0.53705976377E+02 -0.13715691589E+03  0.17945601967E+03  0.00000000000E+00 0. -1.
<scales pt_clust_5="13000.00000" pt_clust_6="13000.00000" pt_clust_7="13000.00000" pt_clust_8="13000.00000" pt_clust_9="75.44440" pt_clust_10="13000.00000"></scales>
<clustering>
<clus scale="   75.444">  1  9  2 -1</clus>
<clus scale="   90.255">  7  8 -1 -1</clus>
<clus scale="   92.307">  7 10 -1 -1</clus>
<clus scale="   92.383">  5  6 -1 -1</clus>
<clus scale="  105.821">  2  5  1 -1</clus>
<clus scale="   75.444">  1  5  2 -1</clus>
</clustering>
</event>
<event>
10    2  0.4951045E-006  0.3336891E+03  0.7546771E-02  0.1120849E+00
         21   -1    0    0  501  502  0.00000000000E+00  0.00000000000E+00  0.23389626027E+03  0.23389626027E+03  0.00000000000E+00 0.  1.
         -1   -1    0    0    0  501 -0.00000000000E+00 -0.00000000000E+00 -0.52890433127E+03  0.52890433127E+03  0.00000000000E+00 0.  1.
         23    2    1    2    0    0 -0.51506000605E+02  0.37358745349E+02 -0.30897440356E+03  0.32098036719E+03  0.59284653273E+02 0.  0.
         23    2    1    2    0    0  0.16894362415E+03  0.10071930801E+03  0.24682418416E+02  0.21803854668E+03  0.90803408026E+02 0.  0.
        -11    1    4    4    0    0  0.12159480361E+03  0.58696878679E+02  0.57472277337E+02  0.14674359439E+03  0.00000000000E+00 0.  1.
         11    1    4    4    0    0  0.47348820548E+02  0.42022429330E+02 -0.32789858920E+02  0.71294952290E+02  0.00000000000E+00 0. -1.
        -13    1    3    3    0    0 -0.47557243454E+02 -0.10456138803E+01 -0.19174619593E+03  0.19755856946E+03  0.00000000000E+00 0. -1.
         13    1    3    3    0    0 -0.39487571508E+01  0.38404359229E+02 -0.11722820763E+03  0.12342179773E+03  0.00000000000E+00 0.  1.
         21    1    1    2  503  502 -0.69377544545E+01 -0.10807261953E+03 -0.14233018842E+02  0.10922638122E+03  0.00000000000E+00 0.  1.
         -1    1    1    2    0  503 -0.11049986910E+03 -0.30005433830E+02  0.35169329832E+01  0.11455529646E+03  0.00000000000E+00 0.  1.
<scales pt_clust_5="13000.00000" pt_clust_6="13000.00000" pt_clust_7="13000.00000" pt_clust_8="13000.00000" pt_clust_9="99.70505" pt_clust_10="13000.00000"></scales>
<clustering>
<clus scale="   59.285">  7  8 -1 -1</clus>
<clus scale="   86.967">  2  7  1 -1</clus>
<clus scale="   90.803">  5  6 -1 -1</clus>
<clus scale="   99.705">  1  9  2 -1</clus>
<clus scale="  144.793">  5 10 -1 -1</clus>
<clus scale="   99.705">  1  5  2 -1</clus>
</clustering>
</event>
<event>
10    2  0.4951045E-006  0.3596173E+03  0.7546771E-02  0.1113681E+00
         21   -1    0    0  503  502  0.00000000000E+00  0.00000000000E+00  0.20679393356E+03  0.20679393356E+03  0.00000000000E+00 0. -1.
          1   -1    0    0  502    0 -0.00000000000E+00 -0.00000000000E+00 -0.31538861162E+03  0.31538861162E+03  0.00000000000E+00 0. -1.
         23    2    1    2    0    0  0.14982462845E+01  0.19776523617E+01 -0.90861950838E+02  0.12313549332E+03  0.83068042917E+02 0.  0.
         23    2    1    2    0    0 -0.88398278463E+02  0.10418160070E+03  0.55685433096E+02  0.18001214703E+03  0.10312828933E+03 0.  0.
        -11    1    3    3    0    0 -0.11004667639E+01  0.42393416643E+02 -0.50719877500E+02  0.66112924420E+02  0.00000000000E+00 0.  1.
         11    1    3    3    0    0  0.25987130485E+01 -0.40415764281E+02 -0.40142073337E+02  0.57022568898E+02  0.00000000000E+00 0. -1.
        -13    1    4    4    0    0  0.13346853863E+02  0.37280663352E+02  0.41596299482E+02  0.57430292517E+02  0.00000000000E+00 0.  1.
         13    1    4    4    0    0 -0.10174513233E+03  0.66900937348E+02  0.14089133614E+02  0.12258185451E+03  0.00000000000E+00 0. -1.
         21    1    1    2  503  501  0.49101185217E+01  0.24006288387E+02  0.26112543697E+02  0.35808882758E+02  0.00000000000E+00 0. -1.
          1    1    1    2  501    0  0.81989913657E+02 -0.13016554145E+03 -0.99530704020E+02  0.18322602207E+03  0.00000000000E+00 0. -1.
<scales pt_clust_5="13000.00000" pt_clust_6="13000.00000" pt_clust_7="13000.00000" pt_clust_8="13000.00000" pt_clust_9="24.50329" pt_clust_10="13000.00000"></scales>
<clustering>
<clus scale="   24.503">  1  9  2 -1</clus>
<clus scale="   83.068">  5  6 -1 -1</clus>
<clus scale="   83.196">  2  5  1 -1</clus>
<clus scale="  103.128">  7  8 -1 -1</clus>
<clus scale="  148.143">  7 10 -1 -1</clus>
<clus scale="   24.503">  1  5  2 -1</clus>
</clustering>
</event>
<event>
10    2  0.4951045E-006  0.3339402E+03  0.7546771E-02  0.1116790E+00
          1   -1    0    0  502    0 -0.00000000000E+00  0.00000000000E+00  0.45125964025E+03  0.45125964025E+03  0.00000000000E+00 0. -1.
         21   -1    0    0  503  502  0.00000000000E+00 -0.00000000000E+00 -0.16204909444E+03  0.16204909444E+03  0.00000000000E+00 0.  1.
         23    2    1    2    0    0  0.16427165140E+02  0.97684894146E+01  0.63383348584E+01  0.93219247646E+02  0.91018561309E+02 0.  0.
         23    2    1    2    0    0  0.48296544910E+02 -0.66154959663E+02  0.31962229342E+03  0.34285550351E+03  0.93179670014E+02 0.  0.
        -11    1    3    3    0    0  0.35131900675E+02  0.40379314551E+02  0.16368378927E+02  0.55970200262E+02  0.00000000000E+00 0.  1.
         11    1    3    3    0    0 -0.18704735534E+02 -0.30610825137E+02 -0.10030044069E+02  0.37249047384E+02  0.00000000000E+00 0. -1.
        -13    1    4    4    0    0  0.68799619410E+02 -0.21302201138E+02  0.15329683694E+03  0.16937264129E+03  0.00000000000E+00 0.  1.
         13    1    4    4    0    0 -0.20503074500E+02 -0.44852758525E+02  0.16632545648E+03  0.17348286222E+03  0.00000000000E+00 0. -1.
         21    1    1    2  503  501  0.36848961209E+02 -0.12253025644E+02 -0.38427755313E+02  0.54632178778E+02  0.00000000000E+00 0.  1.
          1    1    1    2  501    0 -0.10157267126E+03  0.68639495892E+02  0.16776728504E+01  0.12260180476E+03  0.00000000000E+00 0. -1.
<scales pt_clust_5="13000.00000" pt_clust_6="13000.00000" pt_clust_7="13000.00000" pt_clust_8="13000.00000" pt_clust_9="38.83275" pt_clust_10="13000.00000"></scales>
<clustering>
<clus scale="   38.833">  2  9  1 -1</clus>
<clus scale="   91.019">  5  6 -1 -1</clus>
<clus scale="   93.180">  7  8 -1 -1</clus>
<clus scale="   96.063">  1  5  2 -1</clus>
<clus scale="  100.550">  7 10 -1 -1</clus>
<clus scale="   38.833">  2  5  1 -1</clus>
</clustering>
</event>
<event>
10    2  0.4951045E-006  0.1799658E+03  0.7546771E-02  0.1193604E+00
         21   -1    0    0  503  502  0.00000000000E+00  0.00000000000E+00  0.21362677769E+03  0.21362677769E+03  0.00000000000E+00 0. -1.
         -4   -1    0    0    0  501 -0.00000000000E+00 -0.00000000000E+00 -0.32942908734E+03  0.32942908734E+03  0.00000000000E+00 0.  1.
         23    2    1    2    0    0  0.15891797417E+02  0.45913404694E+02 -0.12463710657E+03  0.15808997585E+03  0.84246318458E+02 0.  0.
         23    2    1    2    0    0  0.59654323324E+01 -0.96181054582E+02 -0.15413799683E+03  0.20305160045E+03  0.90471259166E+02 0.  0.
        -11    1    3    3    0    0  0.40585433661E+02  0.55426748605E+02 -0.74109221489E+02  0.10105186092E+03  0.00000000000E+00 0.  1.
         11    1    3    3    0    0 -0.24693636245E+02 -0.95133439110E+01 -0.50527885084E+02  0.57038114927E+02  0.00000000000E+00 0. -1.
        -11    1    4    4    0    0 -0.20569796826E+02 -0.17307447010E+02 -0.10052900294E+03  0.10406125454E+03  0.00000000000E+00 0.  1.
         11    1    4    4    0    0  0.26535229159E+02 -0.78873607572E+02 -0.53608993884E+02  0.98990345909E+02  0.00000000000E+00 0. -1.
         21    1    1    2  503  501 -0.38979321622E+02  0.37123318738E+02  0.14182077405E+03  0.15169265065E+03  0.00000000000E+00 0. -1.
         -4    1    1    2    0  502  0.17122091873E+02  0.13144331150E+02  0.21152019696E+02  0.30221638088E+02  0.00000000000E+00 0.  1.
<scales pt_clust_5="13000.00000" pt_clust_6="13000.00000" pt_clust_7="13000.00000" pt_clust_8="13000.00000" pt_clust_9="53.82869" pt_clust_10="13000.00000"></scales>
<clustering>
<clus scale="   53.829">  1  9  2 -1</clus>
<clus scale="   84.246">  5  6 -1 -1</clus>
<clus scale="   90.471">  7  8 -1 -1</clus>
<clus scale="   27.489">  7 10 -1 -1</clus>
<clus scale="  100.906">  2  5  1 -1</clus>
<clus scale="   53.829">  1  5  2 -1</clus>
</clustering>
</event>
<event>
10    2  0.4951045E-006  0.4342879E+03  0.7546771E-02  0.1079843E+00
         21   -1    0    0  501  502  0.00000000000E+00  0.00000000000E+00  0.71226644588E+02  0.71226644588E+02  0.00000000000E+00 0. -1.
          2   -1    0    0  503    0 -0.00000000000E+00 -0.00000000000E+00 -0.15303170706E+04  0.15303170706E+04  0.00000000000E+00 0. -1.
         23    2    1    2    0    0 -0.64243505662E+02 -0.40442727128E+02 -0.47668927011E+03  0.49090929043E+03  0.89422754358E+02 0.  0.
         23    2    1    2    0    0  0.97984019702E+02  0.18816174706E+03 -0.46448957888E+03  0.51959949966E+03  0.96059148362E+02 0.  0.
        -11    1    4    4    0    0  0.31026677814E+02  0.75222404764E+02 -0.83366404920E+02  0.11649473114E+03  0.00000000000E+00 0. -1.
         11    1    4    4    0    0  0.66957341887E+02  0.11293934229E+03 -0.38112317396E+03  0.40310476852E+03  0.00000000000E+00 0.  1.
        -13    1    3    3    0    0 -0.16068860308E+02 -0.60479861941E+02 -0.30968801102E+03  0.31594728380E+03  0.00000000000E+00 0.  1.
         13    1    3    3    0    0 -0.48174645354E+02  0.20037134812E+02 -0.16700125908E+03  0.17496200662E+03  0.00000000000E+00 0. -1.
         21    1    1    2  503  502  0.16739655574E+02  0.40464527253E+02 -0.71457239994E+01  0.44369532407E+02  0.00000000000E+00 0. -1.
          2    1    1    2  501    0 -0.50480169614E+02 -0.18818354718E+03 -0.51076585303E+03  0.54666539270E+03  0.00000000000E+00 0. -1.
<scales pt_clust_5="13000.00000" pt_clust_6="13000.00000" pt_clust_7="13000.00000" pt_clust_8="13000.00000" pt_clust_9="43.79034" pt_clust_10="13000.00000"></scales>
<clustering>
<clus scale="   43.790">  1  9  2 -1</clus>
<clus scale="   89.423">  7  8 -1 -1</clus>
<clus scale="   96.059">  5  6 -1 -1</clus>
<clus scale="  114.286">  2  7  1 -1</clus>
<clus scale="  202.858">  5 10 -1 -1</clus>
<clus scale="   43.790">  1  5  2 -1</clus>
</clustering>
</event>
<event>
10    2  0.4951045E-006  0.2599833E+03  0.7546771E-02  0.1129180E+00
         21   -1    0    0  503  502  0.00000000000E+00  0.00000000000E+00  0.40833805507E+03  0.40833805507E+03  0.00000000000E+00 0.  1.
         -3   -1    0    0    0  501 -0.00000000000E+00 -0.00000000000E+00 -0.15177465956E+03  0.15177465956E+03  0.00000000000E+00 0.  1.
         23    2    1    2    0    0  0.12189974614E+03  0.26953627055E+02  0.14989585384E+02  0.15462987268E+03  0.89998131850E+02 0.  0.
         23    2    1    2    0    0  0.32957442621E+02  0.11468056153E+02  0.46423072225E+02  0.11443685634E+03  0.98605188089E+02 0.  0.
        -13    1    4    4    0    0  0.19931648373E+02  0.48914153108E+02 -0.73857708465E+00  0.52824336033E+02  0.00000000000E+00 0.  1.
         13    1    4    4    0    0  0.13025794248E+02 -0.37446096956E+02  0.47161649310E+02  0.61612520307E+02  0.00000000000E+00 0. -1.
        -13    1    3    3    0    0  0.97179902021E+02  0.29509074064E+02 -0.27666621909E+02  0.10526234263E+03  0.00000000000E+00 0.  1.
         13    1    3    3    0    0  0.24719844115E+02 -0.25554470092E+01  0.42656207293E+02  0.49367530049E+02  0.00000000000E+00 0. -1.
         21    1    1    2  503  501 -0.37949065901E+02  0.54577677056E+02  0.56831772754E+02  0.87456874115E+02  0.00000000000E+00 0.  1.
         -3    1    1    2    0  502 -0.11690812286E+03 -0.92999360264E+02  0.13831896515E+03  0.20358911149E+03  0.00000000000E+00 0.  1.
<scales pt_clust_5="13000.00000" pt_clust_6="13000.00000" pt_clust_7="13000.00000" pt_clust_8="13000.00000" pt_clust_9="66.47446" pt_clust_10="13000.00000"></scales>
<clustering>
<clus scale="   66.474">  1  9  2 -1</clus>
<clus scale="   89.998">  7  8 -1 -1</clus>
<clus scale="   98.605">  5  6 -1 -1</clus>
<clus scale="  149.583">  2  7  1 -1</clus>
<clus scale="   94.181">  5 10 -1 -1</clus>
<clus scale="   66.474">  1  5  2 -1</clus>
</clustering>
</event>
<event>
10    2  0.4951045E-006  0.1447562E+03  0.7546771E-02  0.1227724E+00
         21   -1    0    0  503  502  0.00000000000E+00  0.00000000000E+00  0.78318195787E+02  0.78318195787E+02  0.00000000000E+00 0.  1.
          1   -1    0    0  502    0 -0.00000000000E+00 -0.00000000000E+00 -0.84551980201E+03  0.84551980201E+03  0.00000000000E+00 0. -1.
         23    2    1    2    0    0 -0.30807435688E+02 -0.58982444286E+01 -0.52569727178E+03  0.53424893222E+03  0.89891115482E+02 0.  0.
         23    2    1    2    0    0  0.12612753936E+02  0.39130404915E+02 -0.25445564789E+03  0.27331099928E+03  0.90889798313E+02 0.  0.
        -11    1    3    3    0    0  0.31351965578E+02 -0.99033408417E+01 -0.18899861153E+03  0.19183716289E+03  0.00000000000E+00 0. -1.
         11    1    3    3    0    0 -0.62159401266E+02  0.40050964131E+01 -0.33669866025E+03  0.34241176933E+03  0.00000000000E+00 0.  1.
        -13    1    4    4    0    0 -0.30361356824E+02  0.28901672916E+02 -0.55730588119E+02  0.69735336363E+02  0.00000000000E+00 0.  1.
         13    1    4    4    0    0  0.42974110761E+02  0.10228731999E+02 -0.19872505977E+03  0.20357566292E+03  0.00000000000E+00 0. -1.
         21    1    1    2  503  501  0.50330923462E+02 -0.47898711782E+02  0.31604889218E+02  0.76330580172E+02  0.00000000000E+00 0.  1.
          1    1    1    2  501    0 -0.32136241711E+02  0.14666551296E+02 -0.18653575777E+02  0.39947486122E+02  0.00000000000E+00 0. -1.
<scales pt_clust_5="13000.00000" pt_clust_6="13000.00000" pt_clust_7="13000.00000" pt_clust_8="13000.00000" pt_clust_9="69.48013" pt_clust_10="13000.00000"></scales>
<clustering>
<clus scale="   69.480">  1  9  2 -1</clus>
<clus scale="   89.891">  5  6 -1 -1</clus>
<clus scale="   90.890">  7  8 -1 -1</clus>
<clus scale="   11.917">  7 10 -1 -1</clus>
<clus scale="   93.637">  2  5  1 -1</clus>
<clus scale="   69.480">  1  5  2 -1</clus>
</clustering>
</event>
<event>
10    2  0.4951045E-006  0.2232183E+03  0.7546771E-02  0.1134920E+00
         21   -1    0    0  503  502  0.00000000000E+00  0.00000000000E+00  0.12780465974E+03  0.12780465974E+03  0.00000000000E+00 0.  1.
         -1   -1    0    0    0  501 -0.00000000000E+00 -0.00000000000E+00 -0.58798941993E+03  0.58798941993E+03  0.00000000000E+00 0.  1.
         23    2    1    2    0    0  0.75992120763E+02  0.15456935834E+03 -0.11697297727E+03  0.22571146869E+03  0.87157906860E+02 0.  0.
         23    2    1    2    0    0 -0.11802232454E+03 -0.11438951043E+03 -0.31630312258E+03  0.36812455522E+03  0.91944513756E+02 0.  0.
        -11    1    3    3    0    0  0.53297269345E+02  0.30148830730E+02 -0.14480269794E+02  0.62922405607E+02  0.00000000000E+00 0. -1.
         11    1    3    3    0    0  0.22694851418E+02  0.12442052761E+03 -0.10249270748E+03  0.16278906308E+03  0.00000000000E+00 0.  1.
        -11    1    4    4    0    0 -0.13222748543E+03 -0.91493238842E+02 -0.25996577310E+03  0.30567519337E+03  0.00000000000E+00 0.  1.
         11    1    4    4    0    0  0.14205160886E+02 -0.22896271592E+02 -0.56337349483E+02  0.62449361850E+02  0.00000000000E+00 0. -1.
         21    1    1    2  503  501  0.40824475254E+02  0.20534099373E+01  0.30269450826E+02  0.50863483222E+02  0.00000000000E+00 0.  1.
         -1    1    1    2    0  502  0.12057285254E+01 -0.42233257845E+02 -0.57178111160E+02  0.71094572545E+02  0.00000000000E+00 0.  1.
<scales pt_clust_5="13000.00000" pt_clust_6="13000.00000" pt_clust_7="13000.00000" pt_clust_8="13000.00000" pt_clust_9="40.87608" pt_clust_10="13000.00000"></scales>
<clustering>
<clus scale="   40.876">  1  9  2 -1</clus>
<clus scale="   87.158">  5  6 -1 -1</clus>
<clus scale="   91.945">  7  8 -1 -1</clus>
<clus scale="   42.305">  7 10 -1 -1</clus>
<clus scale="  205.364">  2  5  1 -1</clus>
<clus scale="   40.876">  1  5  2 -1</clus>
</clustering>
</event>
<event>
10    2  0.4951045E-006  0.2422741E+03  0.7546771E-02  0.1139451E+00
         21   -1    0    0  503  502  0.00000000000E+00  0.00000000000E+00  0.53481201309E+03  0.53481201309E+03  0.00000000000E+00 0.  1.
          2   -1    0    0  502    0 -0.00000000000E+00 -0.00000000000E+00 -0.10837240148E+04  0.10837240148E+04  0.00000000000E+00 0. -1.
         23    2    1    2    0    0 -0.11434733799E+03 -0.74753753075E+01 -0.35241507459E+02  0.14816359823E+03  0.87059135358E+02 0.  0.
         23    2    1    2    0    0  0.13639404463E+03  0.12636378877E+03 -0.57431837619E+03  0.61059167597E+03  0.91703080710E+02 0.  0.
        -11    1    4    4    0    0  0.50653779115E+02 -0.44620134300E+01 -0.13525167091E+03  0.14449473827E+03  0.00000000000E+00 0.  1.
         11    1    4    4    0    0  0.85740265516E+02  0.13082580220E+03 -0.43906670528E+03  0.46609693770E+03  0.00000000000E+00 0. -1.
        -13    1    3    3    0    0 -0.55829313525E+02 -0.39054960098E+02  0.83650470661E+01  0.68645292405E+02  0.00000000000E+00 0.  1.
         13    1    3    3    0    0 -0.58518024469E+02  0.31579584791E+02 -0.43606554525E+02  0.79518305822E+02  0.00000000000E+00 0. -1.
         21    1    1    2  503  501 -0.13641467133E+03 -0.12932879291E+03  0.43197372382E+03  0.47110104787E+03  0.00000000000E+00 0.  1.
          2    1    1    2  501    0  0.11436796470E+03  0.10440379443E+02 -0.37132584186E+03  0.38867970581E+03  0.00000000000E+00 0. -1.
<scales pt_clust_5="13000.00000" pt_clust_6="13000.00000" pt_clust_7="13000.00000" pt_clust_8="13000.00000" pt_clust_9="189.71921" pt_clust_10="13000.00000"></scales>
<clustering>
<clus scale="   87.059">  7  8 -1 -1</clus>
<clus scale="   91.703">  5  6 -1 -1</clus>
<clus scale="  114.844">  5 10 -1 -1</clus>
<clus scale="  143.911">  2  7  1 -1</clus>
<clus scale="  189.719">  1  9  2 -1</clus>
<clus scale="  189.719">  1  5  2 -1</clus>
</clustering>
</event>
<event>
10    2  0.4951045E-006  0.2151181E+03  0.7546771E-02  0.1171291E+00
         21   -1    0    0  501  502  0.00000000000E+00  0.00000000000E+00  0.24956414691E+03  0.24956414691E+03  0.00000000000E+00 0. -1.
          3   -1    0    0  503    0 -0.00000000000E+00 -0.00000000000E+00 -0.17011448717E+03  0.17011448717E+03  0.00000000000E+00 0. -1.
         23    2    1    2    0    0  0.12979874415E+02  0.30484555253E+02  0.86186713493E+02  0.13193501797E+03  0.94238602147E+02 0.  0.
         23    2    1    2    0    0 -0.15659889625E+02  0.41525341322E+02 -0.11545059911E+03  0.15449488412E+03  0.92575602984E+02 0.  0.
        -13    1    3    3    0    0 -0.39638600337E+02  0.16245642378E+02  0.52877399911E+02  0.68052619011E+02  0.00000000000E+00 0.  1.
         13    1    3    3    0    0  0.52618474752E+02  0.14238912875E+02  0.33309313582E+02  0.63882398956E+02  0.00000000000E+00 0. -1.
        -13    1    4    4    0    0  0.79161430462E+01 -0.27356108740E+02 -0.21747923757E+02  0.35832864717E+02  0.00000000000E+00 0.  1.
         13    1    4    4    0    0 -0.23576032671E+02  0.68881450062E+02 -0.93702675356E+02  0.11866201940E+03  0.00000000000E+00 0. -1.
         21    1    1    2  503  502  0.95035436668E+01 -0.25041701131E+02  0.57455982331E+02  0.63392381588E+02  0.00000000000E+00 0. -1.
          3    1    1    2  501    0 -0.68235284569E+01 -0.46968195444E+02  0.51257563037E+02  0.69856350408E+02  0.00000000000E+00 0. -1.
<scales pt_clust_5="13000.00000" pt_clust_6="13000.00000" pt_clust_7="13000.00000" pt_clust_8="13000.00000" pt_clust_9="26.78440" pt_clust_10="13000.00000"></scales>
<clustering>
<clus scale="   26.784">  1  9  2 -1</clus>
<clus scale="   92.576">  7  8 -1 -1</clus>
<clus scale="   55.116">  7 10 -1 -1</clus>
<clus scale="   94.239">  5  6 -1 -1</clus>
<clus scale="   97.361">  2  5  1 -1</clus>
<clus scale="   26.784">  1  5  2 -1</clus>
</clustering>
</event>
<event>
10    2  0.4951045E-006  0.5951188E+03  0.7546771E-02  0.1030425E+00
          2   -1    0    0  502    0 -0.00000000000E+00  0.00000000000E+00  0.14068886271E+04  0.14068886271E+04  0.00000000000E+00 0. -1.
         21   -1    0    0  503  502  0.00000000000E+00 -0.00000000000E+00 -0.12232244389E+03  0.12232244389E+03  0.00000000000E+00 0. -1.
         23    2    1    2    0    0  0.60329840296E+01  0.16760908043E+03  0.30830684704E+03  0.36232599936E+03  0.89987872172E+02 0.  0.
         23    2    1    2    0    0  0.67246479473E+01 -0.29821019532E+03  0.24778530697E+03  0.39848417969E+03  0.91747161429E+02 0.  0.
        -13    1    3    3    0    0 -0.29696448511E+02  0.29417968276E+02  0.37274751879E+02  0.56006276785E+02  0.00000000000E+00 0. -1.
         13    1    3    3    0    0  0.35729432541E+02  0.13819111216E+03  0.27103209517E+03  0.30631972258E+03  0.00000000000E+00 0.  1.
        -13    1    4    4    0    0  0.28932549881E+01 -0.19933582966E+02  0.58605542822E+02  0.61970382472E+02  0.00000000000E+00 0.  1.
         13    1    4    4    0    0  0.38313929591E+01 -0.27827661235E+03  0.18917976415E+03  0.33651379722E+03  0.00000000000E+00 0. -1.
         21    1    1    2  503  501 -0.46489898277E+01 -0.52672901058E+02  0.93056111183E+02  0.10703031085E+03  0.00000000000E+00 0.  1.
          2    1    1    2  501    0 -0.81086421492E+01  0.18327401594E+03  0.63541791806E+03  0.66137058113E+03  0.00000000000E+00 0. -1.
<scales pt_clust_5="13000.00000" pt_clust_6="13000.00000" pt_clust_7="13000.00000" pt_clust_8="13000.00000" pt_clust_9="52.87769" pt_clust_10="13000.00000"></scales>
<clustering>
<clus scale="   52.878">  2  9  1 -1</clus>
<clus scale="   89.988">  5  6 -1 -1</clus>
<clus scale="   91.747">  7  8 -1 -1</clus>
<clus scale="  177.558">  7 10 -1 -1</clus>
<clus scale="  179.534">  1  5  2 -1</clus>
<clus scale="   52.878">  2  5  1 -1</clus>
</clustering>
</event>
<event>
10    2  0.4951045E-006  0.3775395E+03  0.7546771E-02  0.1070971E+00
          2   -1    0    0  502    0 -0.00000000000E+00  0.00000000000E+00  0.99794041070E+03  0.99794041070E+03  0.00000000000E+00 0. -1.
         21   -1    0    0  503  502  0.00000000000E+00 -0.00000000000E+00 -0.11314037766E+03  0.11314037766E+03  0.00000000000E+00 0. -1.
         23    2    1    2    0    0  0.39461397836E+02 -0.21616166258E+03  0.42726610154E+03  0.48864008769E+03  0.89049129582E+02 0.  0.
         23    2    1    2    0    0 -0.13840507192E+03  0.37960575339E+02  0.13536596247E+03  0.21794636290E+03  0.92626692102E+02 0.  0.
        -11    1    4    4    0    0 -0.71736569549E+02  0.28062665986E+02  0.12821426932E+02  0.78089932907E+02  0.00000000000E+00 0. -1.
         11    1    4    4    0    0 -0.66668502373E+02  0.98979093528E+01  0.12254453554E+03  0.13985642999E+03  0.00000000000E+00 0.  1.
        -11    1    3    3    0    0  0.52976396108E+02 -0.13609354057E+03  0.33666662818E+03  0.36697734107E+03  0.00000000000E+00 0. -1.
         11    1    3    3    0    0 -0.13514998272E+02 -0.80068122014E+02  0.90599473364E+02  0.12166274662E+03  0.00000000000E+00 0.  1.
         21    1    1    2  503  501 -0.19498797635E+02  0.50505780934E+02  0.24077987110E+02  0.59251890099E+02  0.00000000000E+00 0.  1.
          2    1    1    2  501    0  0.11844247172E+03  0.12769530631E+03  0.29808998192E+03  0.34524244768E+03  0.00000000000E+00 0. -1.
<scales pt_clust_5="13000.00000" pt_clust_6="13000.00000" pt_clust_7="13000.00000" pt_clust_8="13000.00000" pt_clust_9="54.13905" pt_clust_10="13000.00000"></scales>
<clustering>
<clus scale="   54.139">  2  9  1 -1</clus>
<clus scale="   89.049">  7  8 -1 -1</clus>
<clus scale="   92.627">  5  6 -1 -1</clus>
<clus scale="  180.433">  5 10 -1 -1</clus>
<clus scale="  221.379">  1  7  2 -1</clus>
<clus scale="   54.139">  2  5  1 -1</clus>
</clustering>
</event>
<event>
10    2  0.4951045E-006  0.2441140E+03  0.7546771E-02  0.1144649E+00
         -1   -1    0    0    0  501 -0.00000000000E+00  0.00000000000E+00  0.44725251788E+03  0.44725251788E+03  0.00000000000E+00 0.  1.
         21   -1    0    0  501  502  0.00000000000E+00 -0.00000000000E+00 -0.46605276406E+03  0.46605276406E+03  0.00000000000E+00 0. -1.
         23    2    1    2    0    0 -0.11486419778E+03 -0.44835394772E+02 -0.14337512641E+02  0.15320307826E+03  0.89786537762E+02 0.  0.
         23    2    1    2    0    0  0.99477547730E+02  0.81784635256E+02  0.31112291855E+03  0.34860995952E+03  0.90260314448E+02 0.  0.
        -11    1    4    4    0    0  0.13983535353E+02 -0.17830753065E+02  0.76201625629E+02  0.79499451346E+02  0.00000000000E+00 0. -1.
         11    1    4    4    0    0  0.85494012377E+02  0.99615388321E+02  0.23492129292E+03  0.26911050818E+03  0.00000000000E+00 0.  1.
        -13    1    3    3    0    0 -0.85653433498E+02  0.88939844901E+01  0.11373438062E+02  0.86861779417E+02  0.00000000000E+00 0.  1.
         13    1    3    3    0    0 -0.29210764278E+02 -0.53729379262E+02 -0.25710950703E+02  0.66341298839E+02  0.00000000000E+00 0. -1.
         21    1    1    2  503  502  0.58680756394E+02  0.34624835154E+01 -0.34173380285E+03  0.34675266686E+03  0.00000000000E+00 0. -1.
         -1    1    1    2    0  503 -0.43294106348E+02 -0.40411723999E+02  0.26148150758E+02  0.64739577301E+02  0.00000000000E+00 0.  1.
<scales pt_clust_5="13000.00000" pt_clust_6="13000.00000" pt_clust_7="13000.00000" pt_clust_8="13000.00000" pt_clust_9="58.78282" pt_clust_10="13000.00000"></scales>
<clustering>
<clus scale="   58.783">  2  9  1 -1</clus>
<clus scale="   89.787">  7  8 -1 -1</clus>
<clus scale="   90.260">  5  6 -1 -1</clus>
<clus scale="   52.393">  5 10 -1 -1</clus>
<clus scale="  124.159">  1  7  2 -1</clus>
<clus scale="   58.783">  2  5  1 -1</clus>
</clustering>
</event>
<event>
10    2  0.4951045E-006  0.2592479E+03  0.7546771E-02  0.1124820E+00
         21   -1    0    0  501  502  0.00000000000E+00  0.00000000000E+00  0.20285941734E+03  0.20285941734E+03  0.00000000000E+00 0. -1.
         -1   -1    0    0    0  501 -0.00000000000E+00 -0.00000000000E+00 -0.89807593368E+03  0.89807593368E+03  0.00000000000E+00 0.  1.
         23    2    1    2    0    0 -0.30445039734E+02 -0.15151707825E+03 -0.39258987539E+03  0.43127890059E+03  0.89388782211E+02 0.  0.
         23    2    1    2    0    0  0.33570328097E+02  0.12248874511E+03 -0.34279182314E+03  0.37699482705E+03  0.92132545838E+02 0.  0.
        -11    1    3    3    0    0 -0.54075496633E+01 -0.11236664893E+03 -0.16973861816E+03  0.20363374937E+03  0.00000000000E+00 0. -1.
         11    1    3    3    0    0 -0.25037490070E+02 -0.39150429317E+02 -0.22285125723E+03  0.22764515122E+03  0.00000000000E+00 0.  1.
        -13    1    4    4    0    0 -0.24749938689E+02  0.65706944192E+02 -0.11116615361E+03  0.13148336658E+03  0.00000000000E+00 0.  1.
         13    1    4    4    0    0  0.58320266786E+02  0.56781800919E+02 -0.23162566953E+03  0.24551146046E+03  0.00000000000E+00 0. -1.
         21    1    1    2  503  502  0.86213102542E+02  0.25956668530E+02  0.13504336407E+03  0.16230575427E+03  0.00000000000E+00 0. -1.
         -1    1    1    2    0  503 -0.89338390906E+02  0.30716646102E+01 -0.94878181879E+02  0.13035586910E+03  0.00000000000E+00 0.  1.
<scales pt_clust_5="13000.00000" pt_clust_6="13000.00000" pt_clust_7="13000.00000" pt_clust_8="13000.00000" pt_clust_9="90.03581" pt_clust_10="13000.00000"></scales>
<clustering>
<clus scale="   89.389">  5  6 -1 -1</clus>
<clus scale="   90.036">  1  9  2 -1</clus>
<clus scale="   92.133">  7  8 -1 -1</clus>
<clus scale="   62.200">  7 10 -1 -1</clus>
<clus scale="  168.005">  2  5  1 -1</clus>
<clus scale="   90.036">  1  5  2 -1</clus>
</clustering>
</event>
<event>
10    2  0.4951045E-006  0.3503148E+03  0.7546771E-02  0.1064755E+00
         21   -1    0    0  503  502  0.00000000000E+00  0.00000000000E+00  0.21488073220E+03  0.21488073220E+03  0.00000000000E+00 0.  1.
          2   -1    0    0  502    0 -0.00000000000E+00 -0.00000000000E+00 -0.15296741516E+04  0.15296741516E+04  0.00000000000E+00 0. -1.
         23    2    1    2    0    0 -0.97168074997E+02  0.30934306111E+03 -0.83008808867E+03  0.89571279681E+03  0.90113346192E+02 0.  0.
         23    2    1    2    0    0  0.47556041144E+02 -0.19832189414E+03 -0.47115234871E+03  0.52140810395E+03  0.91042432023E+02 0.  0.
        -11    1    4    4    0    0  0.43220711120E+02 -0.33064208790E+02 -0.16102045323E+03  0.16996722664E+03  0.00000000000E+00 0.  1.
         11    1    4    4    0    0  0.43353300231E+01 -0.16525768535E+03 -0.31013189548E+03  0.35144087731E+03  0.00000000000E+00 0. -1.
        -13    1    3    3    0    0  0.10824296080E+02  0.51550017450E+02 -0.85839137100E+02  0.10071210028E+03  0.00000000000E+00 0.  1.
         13    1    3    3    0    0 -0.10799237108E+03  0.25779304366E+03 -0.74424895157E+03  0.79500069653E+03  0.00000000000E+00 0. -1.
         21    1    1    2  503  501 -0.27109715829E+02 -0.28808087502E+02  0.13525198179E+03  0.14091820740E+03  0.00000000000E+00 0.  1.
          2    1    1    2  501    0  0.76721749683E+02 -0.82213079458E+02 -0.14880496381E+03  0.18651577564E+03  0.00000000000E+00 0. -1.
<scales pt_clust_5="13000.00000" pt_clust_6="13000.00000" pt_clust_7="13000.00000" pt_clust_8="13000.00000" pt_clust_9="39.55809" pt_clust_10="13000.00000"></scales>
<clustering>
<clus scale="   39.558">  1  9  2 -1</clus>
<clus scale="   90.113">  7  8 -1 -1</clus>
<clus scale="   91.042">  5  6 -1 -1</clus>
<clus scale="  113.496">  5 10 -1 -1</clus>
<clus scale="  328.902">  2  7  1 -1</clus>
<clus scale="   39.558">  1  5  2 -1</clus>
</clustering>
</event>
<event>
10    2  0.4951045E-006  0.1834461E+03  0.7546771E-02  0.1191961E+00
         21   -1    0    0  503  502  0.00000000000E+00  0.00000000000E+00  0.99820066526E+02  0.99820066526E+02  0.00000000000E+00 0. -1.
          2   -1    0    0  502    0 -0.00000000000E+00 -0.00000000000E+00 -0.66372349106E+03  0.66372349106E+03  0.00000000000E+00 0. -1.
         23    2    1    2    0    0 -0.21116952717E+02  0.38942720748E+02 -0.36459509646E+03  0.37842128898E+03  0.91162637062E+02 0.  0.
         23    2    1    2    0    0 -0.41301911515E+02 -0.39342164958E+02 -0.24939792242E+03  0.27180949283E+03  0.91800995890E+02 0.  0.
        -11    1    3    3    0    0  0.13993077013E+02 -0.22008574667E+02 -0.54099069054E+02  0.60057412829E+02  0.00000000000E+00 0. -1.
         11    1    3    3    0    0 -0.35110029729E+02  0.60951295416E+02 -0.31049602741E+03  0.31836387615E+03  0.00000000000E+00 0.  1.
        -11    1    4    4    0    0  0.78045429828E+01 -0.33248245759E+02 -0.25800592946E+02  0.42802188421E+02  0.00000000000E+00 0.  1.
         11    1    4    4    0    0 -0.49106454497E+02 -0.60939191990E+01 -0.22359732948E+03  0.22900730441E+03  0.00000000000E+00 0. -1.
         21    1    1    2  503  501  0.26174659958E+02 -0.22556718781E+02  0.60038770387E+02  0.69271728257E+02  0.00000000000E+00 0. -1.
          2    1    1    2  501    0  0.36244204274E+02  0.22956162991E+02 -0.99491760334E+01  0.44041047518E+02  0.00000000000E+00 0. -1.
<scales pt_clust_5="13000.00000" pt_clust_6="13000.00000" pt_clust_7="13000.00000" pt_clust_8="13000.00000" pt_clust_9="34.55312" pt_clust_10="13000.00000"></scales>
<clustering>
<clus scale="   34.553">  1  9  2 -1</clus>
<clus scale="   91.163">  5  6 -1 -1</clus>
<clus scale="   91.801">  7  8 -1 -1</clus>
<clus scale="   50.387">  7 10 -1 -1</clus>
<clus scale="   98.775">  2  5  1 -1</clus>
<clus scale="   34.553">  1  5  2 -1</clus>
</clustering>
</event>
<event>
10    2  0.4951045E-006  0.1736269E+03  0.7546771E-02  0.1197769E+00
         21   -1    0    0  501  502  0.00000000000E+00  0.00000000000E+00  0.63891458365E+03  0.63891458365E+03  0.00000000000E+00 0.  1.
          3   -1    0    0  503    0 -0.00000000000E+00 -0.00000000000E+00 -0.37359593119E+02  0.37359593119E+02  0.00000000000E+00 0. -1.
         23    2    1    2    0    0 -0.19700800300E+02 -0.48230397586E+02  0.14230213570E+03  0.17697657217E+03  0.91413984091E+02 0.  0.
         23    2    1    2    0    0  0.14771874634E+02  0.69815314776E+02  0.20240225089E+03  0.23134121711E+03  0.86369561253E+02 0.  0.
        -11    1    3    3    0    0 -0.43726220209E+02  0.53604923897E+01  0.80195747674E+02  0.91499044571E+02  0.00000000000E+00 0.  1.
         11    1    3    3    0    0  0.24025419910E+02 -0.53590889975E+02  0.62106388024E+02  0.85477527594E+02  0.00000000000E+00 0. -1.
        -13    1    4    4    0    0  0.33735654972E+02  0.82551780881E+02  0.16254714651E+03  0.18540352149E+03  0.00000000000E+00 0.  1.
         13    1    4    4    0    0 -0.18963780337E+02 -0.12736466106E+02  0.39855104376E+02  0.45937695614E+02  0.00000000000E+00 0. -1.
         21    1    1    2  503  502 -0.47820385352E+01  0.24539247741E+02  0.51262213598E+02  0.57033824308E+02  0.00000000000E+00 0.  1.
          3    1    1    2  501    0  0.97109642005E+01 -0.46124164931E+02  0.20558839035E+03  0.21092256319E+03  0.00000000000E+00 0. -1.
<scales pt_clust_5="13000.00000" pt_clust_6="13000.00000" pt_clust_7="13000.00000" pt_clust_8="13000.00000" pt_clust_9="25.00085" pt_clust_10="13000.00000"></scales>
<clustering>
<clus scale="   25.001">  1  9  2 -1</clus>
<clus scale="   86.370">  7  8 -1 -1</clus>
<clus scale="   38.233">  7 10 -1 -1</clus>
<clus scale="   91.414">  5  6 -1 -1</clus>
<clus scale="  102.580">  2  5  1 -1</clus>
<clus scale="   25.001">  1  5  2 -1</clus>
</clustering>
</event>
<event>
10    2  0.4951045E-006  0.1467696E+03  0.7546771E-02  0.1216965E+00
         21   -1    0    0  501  502  0.00000000000E+00  0.00000000000E+00  0.54352442272E+03  0.54352442272E+03  0.00000000000E+00 0.  1.
          2   -1    0    0  503    0 -0.00000000000E+00 -0.00000000000E+00 -0.13555852204E+03  0.13555852204E+03  0.00000000000E+00 0. -1.
         23    2    1    2    0    0 -0.27844204712E+02  0.47398628495E+02  0.34438617240E+03  0.36026435099E+03  0.90369448022E+02 0.  0.
         23    2    1    2    0    0  0.28803360115E+02 -0.31927740481E+02 -0.52778975603E+02  0.11397252404E+03  0.91406245976E+02 0.  0.
        -11    1    4    4    0    0 -0.11290257986E+00 -0.22865740848E+02 -0.73689149542E+02  0.77155334305E+02  0.00000000000E+00 0. -1.
         11    1    4    4    0    0  0.28916262695E+02 -0.90619996328E+01  0.20910173939E+02  0.36817189731E+02  0.00000000000E+00 0.  1.
        -13    1    3    3    0    0  0.24922400084E+02 -0.11934428426E+01  0.37051424560E+02  0.44669434669E+02  0.00000000000E+00 0.  1.
         13    1    3    3    0    0 -0.52766604796E+02  0.48592071337E+02  0.30733474784E+03  0.31559491632E+03  0.00000000000E+00 0. -1.
         21    1    1    2  503  502  0.27006148264E+02  0.21917545066E+02  0.14563895811E+03  0.14973448816E+03  0.00000000000E+00 0.  1.
          2    1    1    2  501    0 -0.27965303666E+02 -0.37388433080E+02 -0.29280254218E+02  0.55111581581E+02  0.00000000000E+00 0. -1.
<scales pt_clust_5="13000.00000" pt_clust_6="13000.00000" pt_clust_7="13000.00000" pt_clust_8="13000.00000" pt_clust_9="34.78090" pt_clust_10="13000.00000"></scales>
<clustering>
<clus scale="   34.781">  1  9  2 -1</clus>
<clus scale="   90.369">  7  8 -1 -1</clus>
<clus scale="   91.406">  5  6 -1 -1</clus>
<clus scale="   45.590">  5 10 -1 -1</clus>
<clus scale="  112.506">  2  7  1 -1</clus>
<clus scale="   34.781">  1  5  2 -1</clus>
</clustering>
</event>
<event>
10    2  0.4951045E-006  0.1717352E+03  0.7546771E-02  0.1184155E+00
         21   -1    0    0  503  502  0.00000000000E+00  0.00000000000E+00  0.54388401113E+02  0.54388401113E+02  0.00000000000E+00 0.  1.
          1   -1    0    0  502    0 -0.00000000000E+00 -0.00000000000E+00 -0.64086469941E+03  0.64086469941E+03  0.00000000000E+00 0. -1.
         23    2    1    2    0    0 -0.41910219853E+02 -0.86807808307E+02 -0.19090546331E+03  0.23248967621E+03  0.91183833602E+02 0.  0.
         23    2    1    2    0    0  0.99342690793E+01  0.81963772473E+02 -0.23734934898E+03  0.26792444979E+03  0.92908813558E+02 0.  0.
        -11    1    4    4    0    0  0.38907549500E+02  0.22338939982E+01 -0.64010108412E+02  0.74940520878E+02  0.00000000000E+00 0.  1.
         11    1    4    4    0    0 -0.28973280420E+02  0.79729878475E+02 -0.17333924056E+03  0.19298392891E+03  0.00000000000E+00 0. -1.
        -13    1    3    3    0    0 -0.19654899682E+01 -0.72297803773E+02 -0.57252223792E+02  0.92242358547E+02  0.00000000000E+00 0.  1.
         13    1    3    3    0    0 -0.39944729884E+02 -0.14510004533E+02 -0.13365323952E+03  0.14024731766E+03  0.00000000000E+00 0. -1.
         21    1    1    2  503  501 -0.12237717312E+02 -0.24135073339E+02  0.99197173685E+00  0.27078543129E+02  0.00000000000E+00 0. -1.
          1    1    1    2  501    0  0.44213668085E+02  0.28979109173E+02 -0.15921345774E+03  0.16776043139E+03  0.00000000000E+00 0. -1.
<scales pt_clust_5="13000.00000" pt_clust_6="13000.00000" pt_clust_7="13000.00000" pt_clust_8="13000.00000" pt_clust_9="27.06037" pt_clust_10="13000.00000"></scales>
<clustering>
<clus scale="   27.060">  1  9  2 -1</clus>
<clus scale="   91.184">  7  8 -1 -1</clus>
<clus scale="   92.909">  5  6 -1 -1</clus>
<clus scale="   50.400">  5 10 -1 -1</clus>
<clus scale="  143.138">  2  7  1 -1</clus>
<clus scale="   27.060">  1  5  2 -1</clus>
</clustering>
</event>
<event>
10    2  0.4951045E-006  0.5544755E+03  0.7546771E-02  0.1062755E+00
          1   -1    0    0  502    0 -0.00000000000E+00  0.00000000000E+00  0.20250286442E+03  0.20250286442E+03  0.00000000000E+00 0. -1.
         21   -1    0    0  503  502  0.00000000000E+00 -0.00000000000E+00 -0.61509469663E+03  0.61509469663E+03  0.00000000000E+00 0. -1.
         23    2    1    2    0    0 -0.81672101851E+01 -0.12569568623E+02 -0.13631537882E+02  0.88031803516E+02  0.85668443594E+02 0.  0.
         23    2    1    2    0    0  0.15834642894E+03  0.25167843793E+03 -0.17107719430E+03  0.35527597043E+03  0.92401196324E+02 0.  0.
        -11    1    4    4    0    0  0.69092381795E+02  0.40871059266E+02 -0.26574193431E+02  0.84559969632E+02  0.00000000000E+00 0.  1.
         11    1    4    4    0    0  0.89254047146E+02  0.21080737866E+03 -0.14450300087E+03  0.27071600080E+03  0.00000000000E+00 0. -1.
        -11    1    3    3    0    0 -0.46943914688E+02 -0.39752598999E+01 -0.49035569629E+01  0.47366429973E+02  0.00000000000E+00 0.  1.
         11    1    3    3    0    0  0.38776704503E+02 -0.85943087230E+01 -0.87279809187E+01  0.40665373544E+02  0.00000000000E+00 0. -1.
         21    1    1    2  503  501 -0.37847495999E+02 -0.21050514050E+02 -0.70852467677E+02  0.83039925765E+02  0.00000000000E+00 0.  1.
          1    1    1    2  501    0 -0.11233172276E+03 -0.21805835525E+03 -0.15703063235E+03  0.29124986134E+03  0.00000000000E+00 0. -1.
<scales pt_clust_5="13000.00000" pt_clust_6="13000.00000" pt_clust_7="13000.00000" pt_clust_8="13000.00000" pt_clust_9="43.30770" pt_clust_10="13000.00000"></scales>
<clustering>
<clus scale="   43.308">  2  9  1 -1</clus>
<clus scale="   85.668">  7  8 -1 -1</clus>
<clus scale="   87.686">  1  7  2 -1</clus>
<clus scale="   92.401">  5  6 -1 -1</clus>
<clus scale="  269.362">  5 10 -1 -1</clus>
<clus scale="   43.308">  2  5  1 -1</clus>
</clustering>
</event>
<event>
10    2  0.4951045E-006  0.1596980E+03  0.7546771E-02  0.1212023E+00
         21   -1    0    0  501  502  0.00000000000E+00  0.00000000000E+00  0.26766018256E+03  0.26766018256E+03  0.00000000000E+00 0.  1.
          1   -1    0    0  503    0 -0.00000000000E+00 -0.00000000000E+00 -0.14977114618E+03  0.14977114618E+03  0.00000000000E+00 0. -1.
         23    2    1    2    0    0  0.19475484451E+02 -0.16219646273E+02 -0.10267906113E+02  0.95095939244E+02  0.91079286036E+02 0.  0.
         23    2    1    2    0    0  0.96408643495E+01 -0.16083631227E+02 -0.85449348825E+01  0.94557152502E+02  0.92284395855E+02 0.  0.
        -13    1    4    4    0    0  0.39732142136E+02 -0.17307388270E+02 -0.34032391360E+02  0.55103470572E+02  0.00000000000E+00 0. -1.
         13    1    4    4    0    0 -0.30091277786E+02  0.12237570422E+01  0.25487456478E+02  0.39453681930E+02  0.00000000000E+00 0.  1.
        -13    1    3    3    0    0  0.27772077714E+02 -0.47530232319E+02  0.11279022922E+02  0.56192772160E+02  0.00000000000E+00 0.  1.
         13    1    3    3    0    0 -0.82965932632E+01  0.31310586046E+02 -0.21546929035E+02  0.38903167084E+02  0.00000000000E+00 0. -1.
         21    1    1    2  503  502 -0.10466592265E+02 -0.35504839862E+02  0.15146239729E+03  0.15591985442E+03  0.00000000000E+00 0.  1.
          1    1    1    2  501    0 -0.18649756535E+02  0.67808117362E+02 -0.14760519912E+02  0.71858382581E+02  0.00000000000E+00 0. -1.
<scales pt_clust_5="13000.00000" pt_clust_6="13000.00000" pt_clust_7="13000.00000" pt_clust_8="13000.00000" pt_clust_9="37.01545" pt_clust_10="13000.00000"></scales>
<clustering>
<clus scale="   37.015">  1  9  2 -1</clus>
<clus scale="   91.079">  7  8 -1 -1</clus>
<clus scale="   92.284">  5  6 -1 -1</clus>
<clus scale="   62.637">  5 10 -1 -1</clus>
<clus scale="   96.977">  2  7  1 -1</clus>
<clus scale="   37.015">  1  5  2 -1</clus>
</clustering>
</event>
<event>
10    2  0.4951045E-006  0.4850991E+03  0.7546771E-02  0.1066180E+00
          1   -1    0    0  503    0 -0.00000000000E+00  0.00000000000E+00  0.58375269400E+03  0.58375269400E+03  0.00000000000E+00 0. -1.
         21   -1    0    0  501  502  0.00000000000E+00 -0.00000000000E+00 -0.21415232294E+03  0.21415232294E+03  0.00000000000E+00 0. -1.
         23    2    1    2    0    0 -0.22211075971E+02 -0.70889507877E+02  0.18763086149E+03  0.22222129029E+03  0.93050026614E+02 0.  0.
         23    2    1    2    0    0  0.68305223433E+01  0.69880217130E+01  0.30608067257E+03  0.31956364234E+03  0.91323901038E+02 0.  0.
        -13    1    3    3    0    0 -0.24505935763E+02  0.17833251568E+02  0.48800162282E+02  0.57445814363E+02  0.00000000000E+00 0.  1.
         13    1    3    3    0    0  0.22948597917E+01 -0.88722759445E+02  0.13883069921E+03  0.16477547593E+03  0.00000000000E+00 0. -1.
        -13    1    4    4    0    0  0.30011746222E-01  0.47443781937E+02  0.12051453504E+03  0.12951705101E+03  0.00000000000E+00 0.  1.
         13    1    4    4    0    0  0.68005105971E+01 -0.40455760224E+02  0.18556613753E+03  0.19004659133E+03  0.00000000000E+00 0. -1.
         21    1    1    2  503  502  0.51438609566E+02 -0.14544816164E+02  0.42616844313E+02  0.68364300995E+02  0.00000000000E+00 0.  1.
          1    1    1    2  501    0 -0.36058055938E+02  0.78446302329E+02 -0.16672800731E+03  0.18775578332E+03  0.00000000000E+00 0. -1.
<scales pt_clust_5="13000.00000" pt_clust_6="13000.00000" pt_clust_7="13000.00000" pt_clust_8="13000.00000" pt_clust_9="53.45545" pt_clust_10="13000.00000"></scales>
<clustering>
<clus scale="   53.455">  2  9  1 -1</clus>
<clus scale="   91.324">  7  8 -1 -1</clus>
<clus scale="   66.285">  7 10 -1 -1</clus>
<clus scale="   93.050">  5  6 -1 -1</clus>
<clus scale="  119.075">  1  5  2 -1</clus>
<clus scale="   53.455">  2  5  1 -1</clus>
</clustering>
</event>
<event>
10    2  0.4951045E-006  0.2381690E+03  0.7546771E-02  0.1150933E+00
         21   -1    0    0  503  502  0.00000000000E+00  0.00000000000E+00  0.31311319374E+02  0.31311319374E+02  0.00000000000E+00 0. -1.
         -1   -1    0    0    0  501 -0.00000000000E+00 -0.00000000000E+00 -0.12440195263E+04  0.12440195263E+04  0.00000000000E+00 0.  1.
         23    2    1    2    0    0 -0.64546863444E+02 -0.55933303395E+02 -0.33084637590E+03  0.35328943084E+03  0.89773411892E+02 0.  0.
         23    2    1    2    0    0  0.80018248665E+02 -0.55331261243E+02 -0.50983383103E+03  0.52696849252E+03  0.91108661777E+02 0.  0.
        -11    1    3    3    0    0 -0.21151461877E+02  0.23845757613E+02 -0.10925015393E+03  0.11380509931E+03  0.00000000000E+00 0.  1.
         11    1    3    3    0    0 -0.43395401567E+02 -0.79779061008E+02 -0.22159622198E+03  0.23948433153E+03  0.00000000000E+00 0. -1.
        -13    1    4    4    0    0  0.56550373973E+02 -0.80436711501E+02 -0.35489296028E+03  0.36826216559E+03  0.00000000000E+00 0. -1.
         13    1    4    4    0    0  0.23467874692E+02  0.25105450258E+02 -0.15494087075E+03  0.15870632692E+03  0.00000000000E+00 0.  1.
         21    1    1    2  503  501  0.24834940336E+02  0.21350549964E+02 -0.67997983889E+02  0.75474141653E+02  0.00000000000E+00 0. -1.
         -1    1    1    2    0  502 -0.40306325557E+02  0.89914014674E+02 -0.30403001613E+03  0.31959878070E+03  0.00000000000E+00 0.  1.
<scales pt_clust_5="13000.00000" pt_clust_6="13000.00000" pt_clust_7="13000.00000" pt_clust_8="13000.00000" pt_clust_9="32.75088" pt_clust_10="13000.00000"></scales>
<clustering>
<clus scale="   32.751">  1  9  2 -1</clus>
<clus scale="   89.773">  5  6 -1 -1</clus>
<clus scale="   91.109">  7  8 -1 -1</clus>
<clus scale="  101.555">  7 10 -1 -1</clus>
<clus scale="  115.130">  2  5  1 -1</clus>
<clus scale="   32.751">  1  5  2 -1</clus>
</clustering>
</event>
<event>
10    2  0.4951045E-006  0.5613395E+03  0.7546771E-02  0.1020874E+00
          1   -1    0    0  503    0 -0.00000000000E+00  0.00000000000E+00  0.51630977037E+03  0.51630977037E+03  0.00000000000E+00 0. -1.
         21   -1    0    0  501  502  0.00000000000E+00 -0.00000000000E+00 -0.72500824978E+03  0.72500824978E+03  0.00000000000E+00 0. -1.
         23    2    1    2    0    0 -0.12955371581E+03 -0.21590023855E+03 -0.64800781192E+02  0.27488509562E+03  0.89250189164E+02 0.  0.
         23    2    1    2    0    0  0.10768856339E+03 -0.97132801697E+02  0.24570227372E+03  0.29940288562E+03  0.90779252875E+02 0.  0.
        -11    1    3    3    0    0 -0.12711631974E+03 -0.13339972351E+03 -0.51087747181E+02  0.19121716160E+03  0.00000000000E+00 0.  1.
         11    1    3    3    0    0 -0.24373960624E+01 -0.82500515045E+02 -0.13713034011E+02  0.83667934025E+02  0.00000000000E+00 0. -1.
        -13    1    4    4    0    0  0.62379010856E+01 -0.53051090604E+02  0.12359178262E+03  0.13464122086E+03  0.00000000000E+00 0.  1.
         13    1    4    4    0    0  0.10145066231E+03 -0.44081711092E+02  0.12211049111E+03  0.16476166476E+03  0.00000000000E+00 0. -1.
         21    1    1    2  503  502 -0.14119796873E+03  0.57335977797E+02 -0.32211472827E+03  0.35634558913E+03  0.00000000000E+00 0. -1.
          1    1    1    2  501    0  0.16306312114E+03  0.25569706245E+03 -0.67485243678E+02  0.31068444978E+03  0.00000000000E+00 0. -1.
<scales pt_clust_5="13000.00000" pt_clust_6="13000.00000" pt_clust_7="13000.00000" pt_clust_8="13000.00000" pt_clust_9="152.39515" pt_clust_10="13000.00000"></scales>
<clustering>
<clus scale="   89.250">  5  6 -1 -1</clus>
<clus scale="   90.779">  7  8 -1 -1</clus>
<clus scale="  152.395">  2  9  1 -1</clus>
<clus scale="  284.731">  1  5  2 -1</clus>
<clus scale="  221.677">  7 10 -1 -1</clus>
<clus scale="  152.395">  2  5  1 -1</clus>
</clustering>
</event>
<event>
10    2  0.4951045E-006  0.8319344E+03  0.7546771E-02  0.9950407E-01
          2   -1    0    0  503    0 -0.00000000000E+00  0.00000000000E+00  0.25488808285E+04  0.25488808285E+04  0.00000000000E+00 0. -1.
         21   -1    0    0  501  502  0.00000000000E+00 -0.00000000000E+00 -0.13633788181E+03  0.13633788181E+03  0.00000000000E+00 0. -1.
         23    2    1    2    0    0  0.30283485543E+02  0.17881170487E+03  0.27770791503E+03  0.34841029464E+03  0.10666457729E+03 0.  0.
         23    2    1    2    0    0 -0.14667228604E+03 -0.36889256140E+03  0.14209311910E+04  0.14781066203E+04  0.90328566930E+02 0.  0.
        -13    1    3    3    0    0  0.14490796272E+02  0.38570217306E+02  0.52036701544E+01  0.41529784766E+02  0.00000000000E+00 0.  1.
         13    1    3    3    0    0  0.15792689271E+02  0.14024148756E+03  0.27250424487E+03  0.30688050987E+03  0.00000000000E+00 0. -1.
        -13    1    4    4    0    0 -0.12878014171E+03 -0.21285083020E+03  0.92723150811E+03  0.96002503637E+03  0.00000000000E+00 0. -1.
         13    1    4    4    0    0 -0.17892144336E+02 -0.15604173120E+03  0.49369968290E+03  0.51808158392E+03  0.00000000000E+00 0.  1.
         21    1    1    2  503  502  0.23000370506E+02 -0.74629096222E+02  0.49928390467E+03  0.50535426832E+03  0.00000000000E+00 0. -1.
          2    1    1    2  501    0  0.93388429994E+02  0.26470995275E+03  0.21461993594E+03  0.35334752701E+03  0.00000000000E+00 0. -1.
<scales pt_clust_5="13000.00000" pt_clust_6="13000.00000" pt_clust_7="13000.00000" pt_clust_8="13000.00000" pt_clust_9="78.09305" pt_clust_10="13000.00000"></scales>
<clustering>
<clus scale="   78.093">  2  9  1 -1</clus>
<clus scale="   90.329">  7  8 -1 -1</clus>
<clus scale="  106.665">  5  6 -1 -1</clus>
<clus scale="  194.907">  1  5  2 -1</clus>
<clus scale="  289.026">  7 10 -1 -1</clus>
<clus scale="   78.093">  2  5  1 -1</clus>
</clustering>
</event>
<event>
10    2  0.4951045E-006  0.6088028E+03  0.7546771E-02  0.1006839E+00
         21   -1    0    0  503  502  0.00000000000E+00  0.00000000000E+00  0.13080950610E+04  0.13080950610E+04  0.00000000000E+00 0. -1.
          1   -1    0    0  502    0 -0.00000000000E+00 -0.00000000000E+00 -0.34318123100E+03  0.34318123100E+03  0.00000000000E+00 0. -1.
         23    2    1    2    0    0  0.19853124648E+03  0.33028922025E+03  0.10914038093E+02  0.39647887054E+03  0.92578365289E+02 0.  0.
         23    2    1    2    0    0  0.23096106435E+03 -0.36214235939E+02  0.14053667766E+03  0.28876920247E+03  0.94776634239E+02 0.  0.
        -11    1    4    4    0    0  0.17178710890E+03  0.16840539990E+02  0.10122969899E+03  0.20010463895E+03  0.00000000000E+00 0.  1.
         11    1    4    4    0    0  0.59173955452E+02 -0.53054775929E+02  0.39306978673E+02  0.88664563525E+02  0.00000000000E+00 0. -1.
        -11    1    3    3    0    0  0.25419172972E+02  0.90322855509E+02 -0.28285901391E+02  0.98002269358E+02  0.00000000000E+00 0.  1.
         11    1    3    3    0    0  0.17311207350E+03  0.23996636474E+03  0.39199939484E+02  0.29847660118E+03  0.00000000000E+00 0. -1.
         21    1    1    2  503  501 -0.21150748648E+03 -0.14509588834E+03  0.42247865944E+03  0.49424331188E+03  0.00000000000E+00 0. -1.
          1    1    1    2  501    0 -0.21798482434E+03 -0.14897909597E+03  0.39098445480E+03  0.47178490711E+03  0.00000000000E+00 0. -1.
<scales pt_clust_5="13000.00000" pt_clust_6="13000.00000" pt_clust_7="13000.00000" pt_clust_8="13000.00000" pt_clust_9="256.49217" pt_clust_10="13000.00000"></scales>
<clustering>
<clus scale="   92.578">  7  8 -1 -1</clus>
<clus scale="   94.777">  5  6 -1 -1</clus>
<clus scale="  256.492">  1  9  2 -1</clus>
<clus scale="  343.145">  2  7  1 -1</clus>
<clus scale="  243.552">  5 10 -1 -1</clus>
<clus scale="  256.492">  1  5  2 -1</clus>
</clustering>
</event>
<event>
10    2  0.4951045E-006  0.3866323E+03  0.7546771E-02  0.1087501E+00
         -3   -1    0    0    0  501 -0.00000000000E+00  0.00000000000E+00  0.20812606588E+03  0.20812606588E+03  0.00000000000E+00 0.  1.
         21   -1    0    0  501  502  0.00000000000E+00 -0.00000000000E+00 -0.40488463662E+03  0.40488463662E+03  0.00000000000E+00 0.  1.
         23    2    1    2    0    0 -0.45147507092E+02 -0.90779036455E+02  0.23132261659E+02  0.13791373567E+03  0.90586787672E+02 0.  0.
         23    2    1    2    0    0 -0.11594229997E+03 -0.37577397112E+02 -0.18854581806E+03  0.24166368298E+03  0.89426687660E+02 0.  0.
        -11    1    3    3    0    0 -0.72761471134E+02 -0.72570182451E+02  0.19952974261E+02  0.10468421201E+03  0.00000000000E+00 0.  1.
         11    1    3    3    0    0  0.27613964042E+02 -0.18208854004E+02  0.31792873983E+01  0.33229523659E+02  0.00000000000E+00 0. -1.
        -13    1    4    4    0    0  0.11658951748E+02 -0.18788404465E+02 -0.30428128438E+02  0.37613910970E+02  0.00000000000E+00 0. -1.
         13    1    4    4    0    0 -0.12760125172E+03 -0.18788992647E+02 -0.15811768962E+03  0.20404977201E+03  0.00000000000E+00 0.  1.
         21    1    1    2  503  502 -0.15648250656E+01  0.39865107504E+02 -0.27075817787E+02  0.48215924575E+02  0.00000000000E+00 0.  1.
         -3    1    1    2    0  503  0.16265463213E+03  0.88491326063E+02 -0.42691965543E+01  0.18521735929E+03  0.00000000000E+00 0.  1.
<scales pt_clust_5="13000.00000" pt_clust_6="13000.00000" pt_clust_7="13000.00000" pt_clust_8="13000.00000" pt_clust_9="39.89581" pt_clust_10="13000.00000"></scales>
<clustering>
<clus scale="   39.896">  2  9  1 -1</clus>
<clus scale="   89.427">  7  8 -1 -1</clus>
<clus scale="   90.587">  5  6 -1 -1</clus>
<clus scale="  131.966">  1  5  2 -1</clus>
<clus scale="  133.350">  7 10 -1 -1</clus>
<clus scale="   39.896">  2  5  1 -1</clus>
</clustering>
</event>
<event>
10    2  0.4951045E-006  0.2254626E+03  0.7546771E-02  0.1143522E+00
          3   -1    0    0  503    0 -0.00000000000E+00  0.00000000000E+00  0.45610814185E+03  0.45610814185E+03  0.00000000000E+00 0. -1.
         21   -1    0    0  501  502  0.00000000000E+00 -0.00000000000E+00 -0.46330145750E+03  0.46330145750E+03  0.00000000000E+00 0. -1.
         23    2    1    2    0    0  0.85560566929E+01  0.13100407060E+03  0.36139578158E+03  0.39497897480E+03  0.90367067984E+02 0.  0.
         23    2    1    2    0    0  0.73288414004E+01 -0.77994293240E+02  0.18182023937E+01  0.11998458766E+03  0.90863489489E+02 0.  0.
        -11    1    4    4    0    0 -0.17872024603E+02 -0.71384611140E+02  0.31886483168E+02  0.80199250494E+02  0.00000000000E+00 0.  1.
         11    1    4    4    0    0  0.25200866004E+02 -0.66096821005E+01 -0.30068280774E+02  0.39785337168E+02  0.00000000000E+00 0. -1.
        -11    1    3    3    0    0 -0.18719172608E+01  0.93460557844E+02  0.33529007955E+03  0.34807731525E+03  0.00000000000E+00 0. -1.
         11    1    3    3    0    0  0.10427973954E+02  0.37543512753E+02  0.26105702028E+02  0.46901659555E+02  0.00000000000E+00 0.  1.
         21    1    1    2  503  502 -0.58657943466E+01  0.40669716350E+02 -0.24042225408E+03  0.24390837138E+03  0.00000000000E+00 0. -1.
          3    1    1    2  501    0 -0.10019103747E+02 -0.93679493707E+02 -0.12998504554E+03  0.16053766550E+03  0.00000000000E+00 0. -1.
<scales pt_clust_5="13000.00000" pt_clust_6="13000.00000" pt_clust_7="13000.00000" pt_clust_8="13000.00000" pt_clust_9="41.09055" pt_clust_10="13000.00000"></scales>
<clustering>
<clus scale="   41.091">  2  9  1 -1</clus>
<clus scale="   90.367">  7  8 -1 -1</clus>
<clus scale="   90.863">  5  6 -1 -1</clus>
<clus scale="   68.386">  5 10 -1 -1</clus>
<clus scale="  161.903">  1  7  2 -1</clus>
<clus scale="   41.091">  2  5  1 -1</clus>
</clustering>
</event>
<event>
10    2  0.4951045E-006  0.1482108E+03  0.7546771E-02  0.1216678E+00
          1   -1    0    0  503    0 -0.00000000000E+00  0.00000000000E+00  0.37610801680E+03  0.37610801680E+03  0.00000000000E+00 0. -1.
         21   -1    0    0  501  502  0.00000000000E+00 -0.00000000000E+00 -0.22807084077E+03  0.22807084077E+03  0.00000000000E+00 0.  1.
         23    2    1    2    0    0 -0.60629098455E+02 -0.58917244125E+01  0.29304576859E+03  0.31255857497E+03  0.90035772355E+02 0.  0.
         23    2    1    2    0    0  0.48013168645E+02 -0.42029388729E+02 -0.10791529710E+03  0.15564049441E+03  0.92230788083E+02 0.  0.
        -11    1    4    4    0    0  0.15286588676E+02 -0.54325163122E+02 -0.10664552846E+03  0.12065724960E+03  0.00000000000E+00 0.  1.
         11    1    4    4    0    0  0.32726579969E+02  0.12295774393E+02 -0.12697686388E+01  0.34983244801E+02  0.00000000000E+00 0. -1.
        -11    1    3    3    0    0 -0.81487246751E+02 -0.33086672278E+01  0.26650255284E+03  0.27870186460E+03  0.00000000000E+00 0. -1.
         11    1    3    3    0    0  0.20858148296E+02 -0.25830571847E+01  0.26543215750E+02  0.33856710370E+02  0.00000000000E+00 0.  1.
         21    1    1    2  503  502 -0.42584493515E+02  0.60084608307E+02 -0.27688011789E+02  0.78677984469E+02  0.00000000000E+00 0.  1.
          1    1    1    2  501    0  0.55200423326E+02 -0.12163495165E+02 -0.94052836712E+01  0.57301803732E+02  0.00000000000E+00 0. -1.
<scales pt_clust_5="13000.00000" pt_clust_6="13000.00000" pt_clust_7="13000.00000" pt_clust_8="13000.00000" pt_clust_9="73.64509" pt_clust_10="13000.00000"></scales>
<clustering>
<clus scale="   73.645">  2  9  1 -1</clus>
<clus scale="   90.036">  7  8 -1 -1</clus>
<clus scale="   92.231">  5  6 -1 -1</clus>
<clus scale="   47.084">  5 10 -1 -1</clus>
<clus scale="  109.920">  1  7  2 -1</clus>
<clus scale="   73.645">  2  5  1 -1</clus>
</clustering>
</event>
<event>
10    2  0.4951045E-006  0.3392749E+03  0.7546771E-02  0.1115639E+00
         21   -1    0    0  503  502  0.00000000000E+00  0.00000000000E+00  0.10575972456E+04  0.10575972456E+04  0.00000000000E+00 0.  1.
         -1   -1    0    0    0  501 -0.00000000000E+00 -0.00000000000E+00 -0.14369526691E+03  0.14369526691E+03  0.00000000000E+00 0.  1.
         23    2    1    2    0    0 -0.16706051361E-01 -0.23727746266E+02 -0.97816825349E+01  0.94802121429E+02  0.91262011222E+02 0.  0.
         23    2    1    2    0    0  0.53674139428E+02 -0.49542563097E+02  0.44326908951E+02  0.12616624576E+03  0.92831395071E+02 0.  0.
        -11    1    3    3    0    0 -0.23893825158E+02 -0.35215616893E+02 -0.37308317771E+02  0.56594744709E+02  0.00000000000E+00 0. -1.
         11    1    3    3    0    0  0.23877119106E+02  0.11487870627E+02  0.27526635236E+02  0.38207376719E+02  0.00000000000E+00 0.  1.
        -13    1    4    4    0    0  0.49674075612E+02 -0.76311728463E+02  0.34457688954E+02  0.97356694772E+02  0.00000000000E+00 0.  1.
         13    1    4    4    0    0  0.40000638158E+01  0.26769165365E+02  0.98692199966E+01  0.28809550990E+02  0.00000000000E+00 0. -1.
         21    1    1    2  503  501  0.95483647176E+02  0.19390459327E+03  0.62787235754E+03  0.66403299280E+03  0.00000000000E+00 0.  1.
         -1    1    1    2    0  502 -0.14914108055E+03 -0.12063428390E+03  0.25148439470E+03  0.31629115249E+03  0.00000000000E+00 0.  1.
<scales pt_clust_5="13000.00000" pt_clust_6="13000.00000" pt_clust_7="13000.00000" pt_clust_8="13000.00000" pt_clust_9="211.93706" pt_clust_10="13000.00000"></scales>
<clustering>
<clus scale="   91.262">  5  6 -1 -1</clus>
<clus scale="   92.831">  7  8 -1 -1</clus>
<clus scale="   94.296">  2  5  1 -1</clus>
<clus scale="  197.225">  7 10 -1 -1</clus>
<clus scale="  211.937">  1  9  2 -1</clus>
<clus scale="  211.937">  1  5  2 -1</clus>
</clustering>
</event>
<event>
10    2  0.4951045E-006  0.3334518E+03  0.7546771E-02  0.1108893E+00
          3   -1    0    0  503    0 -0.00000000000E+00  0.00000000000E+00  0.10634137019E+04  0.10634137019E+04  0.00000000000E+00 0. -1.
         21   -1    0    0  501  502  0.00000000000E+00 -0.00000000000E+00 -0.64666293541E+02  0.64666293541E+02  0.00000000000E+00 0.  1.
         23    2    1    2    0    0  0.68771554307E+02  0.30315982097E+01  0.95475020838E+02  0.14826677654E+03  0.90160080697E+02 0.  0.
         23    2    1    2    0    0 -0.63641563867E+02 -0.12029455719E+03  0.70698565772E+03  0.72553447616E+03  0.89724727575E+02 0.  0.
        -11    1    3    3    0    0  0.11095933614E+02 -0.34312267021E+02  0.62260265165E+02  0.71949927236E+02  0.00000000000E+00 0. -1.
         11    1    3    3    0    0  0.57675620694E+02  0.37343865231E+02  0.33214755673E+02  0.76316849301E+02  0.00000000000E+00 0.  1.
        -13    1    4    4    0    0 -0.83877313265E+02 -0.78842083028E+02  0.45324271797E+03  0.46763280373E+03  0.00000000000E+00 0. -1.
         13    1    4    4    0    0  0.20235749399E+02 -0.41452474160E+02  0.25374293975E+03  0.25790167243E+03  0.00000000000E+00 0.  1.
         21    1    1    2  503  502  0.15146187530E+02 -0.14646119867E+02  0.60932765600E+01  0.21932711713E+02  0.00000000000E+00 0. -1.
          3    1    1    2  501    0 -0.20276177970E+02  0.13190907885E+03  0.19019345320E+03  0.23234603099E+03  0.00000000000E+00 0. -1.
<scales pt_clust_5="13000.00000" pt_clust_6="13000.00000" pt_clust_7="13000.00000" pt_clust_8="13000.00000" pt_clust_9="21.06931" pt_clust_10="13000.00000"></scales>
<clustering>
<clus scale="   21.069">  2  9  1 -1</clus>
<clus scale="   89.725">  7  8 -1 -1</clus>
<clus scale="   90.160">  5  6 -1 -1</clus>
<clus scale="  117.862">  1  5  2 -1</clus>
<clus scale="  125.669">  7 10 -1 -1</clus>
<clus scale="   21.069">  2  5  1 -1</clus>
</clustering>
</event>
<event>
10    2  0.4951045E-006  0.2240487E+03  0.7546771E-02  0.1165097E+00
          3   -1    0    0  503    0 -0.00000000000E+00  0.00000000000E+00  0.18061774430E+03  0.18061774430E+03  0.00000000000E+00 0. -1.
         21   -1    0    0  501  502  0.00000000000E+00 -0.00000000000E+00 -0.78625875927E+03  0.78625875927E+03  0.00000000000E+00 0. -1.
         23    2    1    2    0    0 -0.37449559813E+02  0.29309029862E+01 -0.44916274010E+02  0.10902076146E+03  0.91961921661E+02 0.  0.
         23    2    1    2    0    0 -0.62665614855E+01  0.16902923616E+02  0.13472808466E+02  0.87621994910E+02  0.84682458658E+02 0.  0.
        -11    1    3    3    0    0 -0.53292633592E+02  0.33749826882E+02 -0.38131775090E+02  0.73710161316E+02  0.00000000000E+00 0. -1.
         11    1    3    3    0    0  0.15843073778E+02 -0.30818923896E+02 -0.67844989198E+01  0.35310600143E+02  0.00000000000E+00 0.  1.
        -13    1    4    4    0    0 -0.40917783232E+02  0.20884083606E+02 -0.80465661002E+01  0.46638580153E+02  0.00000000000E+00 0.  1.
         13    1    4    4    0    0  0.34651221746E+02 -0.39811599898E+01  0.21519374566E+02  0.40983414757E+02  0.00000000000E+00 0. -1.
         21    1    1    2  503  502 -0.74684055409E+02 -0.11297770809E+03 -0.60199759902E+03  0.61704358021E+03  0.00000000000E+00 0. -1.
          3    1    1    2  501    0  0.11840017671E+03  0.93143881492E+02  0.27800049593E+02  0.15319016699E+03  0.00000000000E+00 0. -1.
<scales pt_clust_5="13000.00000" pt_clust_6="13000.00000" pt_clust_7="13000.00000" pt_clust_8="13000.00000" pt_clust_9="136.36352" pt_clust_10="13000.00000"></scales>
<clustering>
<clus scale="   84.682">  7  8 -1 -1</clus>
<clus scale="   91.962">  5  6 -1 -1</clus>
<clus scale="   99.338">  1  5  2 -1</clus>
<clus scale="  134.717">  7 10 -1 -1</clus>
<clus scale="  136.364">  2  9  1 -1</clus>
<clus scale="  136.364">  2  5  1 -1</clus>
</clustering>
</event>
<event>
10    2  0.4951045E-006  0.1875756E+03  0.7546771E-02  0.1190718E+00
         21   -1    0    0  503  502  0.00000000000E+00  0.00000000000E+00  0.17052963193E+03  0.17052963193E+03  0.00000000000E+00 0. -1.
          2   -1    0    0  502    0 -0.00000000000E+00 -0.00000000000E+00 -0.17717692102E+03  0.17717692102E+03  0.00000000000E+00 0. -1.
         23    2    1    2    0    0  0.41140630381E+02  0.93338263715E+01 -0.30401230068E+02  0.10394015349E+03  0.89998049615E+02 0.  0.
         23    2    1    2    0    0 -0.59626529877E+02 -0.23051377024E+01 -0.42183855385E+02  0.11680014710E+03  0.91116189468E+02 0.  0.
        -11    1    4    4    0    0 -0.34266731031E+01 -0.33591831050E+02 -0.40129709344E+02  0.52445655434E+02  0.00000000000E+00 0.  1.
         11    1    4    4    0    0 -0.56199856774E+02  0.31286693348E+02 -0.20541460412E+01  0.64354491669E+02  0.00000000000E+00 0. -1.
        -11    1    3    3    0    0 -0.16681527775E+02 -0.25815043272E+02 -0.28098909697E+01  0.30863980872E+02  0.00000000000E+00 0.  1.
         11    1    3    3    0    0  0.57822158155E+02  0.35148869643E+02 -0.27591339098E+02  0.73076172615E+02  0.00000000000E+00 0. -1.
         21    1    1    2  503  501 -0.37246185740E+02 -0.30337770204E+02  0.31193574381E+02  0.57277375427E+02  0.00000000000E+00 0. -1.
          2    1    1    2  501    0  0.55732085236E+02  0.23309081535E+02  0.34744221979E+02  0.69688876930E+02  0.00000000000E+00 0. -1.
<scales pt_clust_5="13000.00000" pt_clust_6="13000.00000" pt_clust_7="13000.00000" pt_clust_8="13000.00000" pt_clust_9="48.03810" pt_clust_10="13000.00000"></scales>
<clustering>
<clus scale="   48.038">  1  9  2 -1</clus>
<clus scale="   89.998">  7  8 -1 -1</clus>
<clus scale="   91.116">  5  6 -1 -1</clus>
<clus scale="   41.745">  5 10 -1 -1</clus>
<clus scale="   94.962">  2  7  1 -1</clus>
<clus scale="   48.038">  1  5  2 -1</clus>
</clustering>
</event>
<event>
10    2  0.4951045E-006  0.2593923E+03  0.7546771E-02  0.1115434E+00
         -1   -1    0    0    0  501 -0.00000000000E+00  0.00000000000E+00  0.62159046237E+03  0.62159046237E+03  0.00000000000E+00 0.  1.
         21   -1    0    0  501  502  0.00000000000E+00 -0.00000000000E+00 -0.31244161825E+03  0.31244161825E+03  0.00000000000E+00 0. -1.
         23    2    1    2    0    0  0.24218141652E+03  0.63627317462E+02  0.22373363805E+03  0.34807323163E+03  0.91640382709E+02 0.  0.
         23    2    1    2    0    0 -0.46998159407E+02  0.25295365978E+02  0.17522282893E+03  0.20464374600E+03  0.91254262771E+02 0.  0.
        -13    1    4    4    0    0  0.24812279769E+02 -0.86411128537E+01  0.41973410919E+02  0.49518534741E+02  0.00000000000E+00 0. -1.
         13    1    4    4    0    0 -0.71810439176E+02  0.33936478831E+02  0.13324941801E+03  0.15512521126E+03  0.00000000000E+00 0.  1.
        -13    1    3    3    0    0  0.18767112817E+03  0.12278638515E+02  0.18479739473E+03  0.26366891058E+03  0.00000000000E+00 0. -1.
         13    1    3    3    0    0  0.54510288356E+02  0.51348678947E+02  0.38936243322E+02  0.84404321040E+02  0.00000000000E+00 0.  1.
         21    1    1    2  503  502 -0.96410544695E+02 -0.21094363320E+02 -0.19713258761E+03  0.22045684927E+03  0.00000000000E+00 0. -1.
         -1    1    1    2    0  503 -0.98772712420E+02 -0.67828320119E+02  0.10732496475E+03  0.16085825371E+03  0.00000000000E+00 0.  1.
<scales pt_clust_5="13000.00000" pt_clust_6="13000.00000" pt_clust_7="13000.00000" pt_clust_8="13000.00000" pt_clust_9="98.69126" pt_clust_10="13000.00000"></scales>
<clustering>
<clus scale="   91.254">  5  6 -1 -1</clus>
<clus scale="   91.640">  7  8 -1 -1</clus>
<clus scale="   98.691">  2  9  1 -1</clus>
<clus scale="  143.749">  5 10 -1 -1</clus>
<clus scale="  212.090">  1  7  2 -1</clus>
<clus scale="   98.691">  2  5  1 -1</clus>
</clustering>
</event>
<event>
10    2  0.4951045E-006  0.4276579E+03  0.7546771E-02  0.1075488E+00
         21   -1    0    0  501  502  0.00000000000E+00  0.00000000000E+00  0.21570651137E+03  0.21570651137E+03  0.00000000000E+00 0. -1.
         -4   -1    0    0    0  501 -0.00000000000E+00 -0.00000000000E+00 -0.50852249292E+03  0.50852249292E+03  0.00000000000E+00 0.  1.
         23    2    1    2    0    0 -0.71920663874E+02  0.73692586881E+02 -0.14339717248E+03  0.19908216357E+03  0.92020538599E+02 0.  0.
         23    2    1    2    0    0  0.16373658465E+03 -0.44698995538E+02  0.45900032315E+02  0.19883565486E+03  0.92850069056E+02 0.  0.
        -13    1    4    4    0    0  0.99892203203E+02  0.20442485374E+02  0.18777480244E+02  0.10367710081E+03  0.00000000000E+00 0.  1.
         13    1    4    4    0    0  0.63844381443E+02 -0.65141480912E+02  0.27122552071E+02  0.95158554046E+02  0.00000000000E+00 0. -1.
        -13    1    3    3    0    0 -0.16360813518E+02 -0.19048587813E+02 -0.51084043679E+02  0.56921915245E+02  0.00000000000E+00 0. -1.
         13    1    3    3    0    0 -0.55559850356E+02  0.92741174694E+02 -0.92313128797E+02  0.14216024832E+03  0.00000000000E+00 0.  1.
         21    1    1    2  503  502  0.17469108141E+02 -0.20905047699E+02  0.50384489971E+02  0.57278159784E+02  0.00000000000E+00 0. -1.
         -4    1    1    2    0  503 -0.10928502891E+03 -0.80885436443E+01 -0.24570333136E+03  0.26903302608E+03  0.00000000000E+00 0.  1.
<scales pt_clust_5="13000.00000" pt_clust_6="13000.00000" pt_clust_7="13000.00000" pt_clust_8="13000.00000" pt_clust_9="27.24318" pt_clust_10="13000.00000"></scales>
<clustering>
<clus scale="   27.243">  1  9  2 -1</clus>
<clus scale="   92.021">  7  8 -1 -1</clus>
<clus scale="   92.850">  5  6 -1 -1</clus>
<clus scale="  108.452">  5 10 -1 -1</clus>
<clus scale="  134.651">  2  7  1 -1</clus>
<clus scale="   27.243">  1  5  2 -1</clus>
</clustering>
</event>
<event>
10    2  0.4951045E-006  0.3416726E+03  0.7546771E-02  0.1098665E+00
         21   -1    0    0  501  502  0.00000000000E+00  0.00000000000E+00  0.24570413078E+03  0.24570413078E+03  0.00000000000E+00 0. -1.
          1   -1    0    0  503    0 -0.00000000000E+00 -0.00000000000E+00 -0.30316148282E+03  0.30316148282E+03  0.00000000000E+00 0. -1.
         23    2    1    2    0    0  0.11339933567E+03 -0.37479313714E+02 -0.72463803205E+02  0.16651589829E+03  0.90622476908E+02 0.  0.
         23    2    1    2    0    0 -0.14548093094E+03  0.65361275756E+02  0.88182647552E+02  0.20379345560E+03  0.91207431605E+02 0.  0.
        -13    1    3    3    0    0  0.73711980128E+02  0.22991507858E+02 -0.43299990338E+02  0.88526575734E+02  0.00000000000E+00 0. -1.
         13    1    3    3    0    0  0.39687355542E+02 -0.60470821572E+02 -0.29163812866E+02  0.77989322554E+02  0.00000000000E+00 0.  1.
        -13    1    4    4    0    0 -0.60214385135E+02  0.56459003959E+02  0.24921970237E+01  0.82580883692E+02  0.00000000000E+00 0.  1.
         13    1    4    4    0    0 -0.85266545808E+02  0.89022717964E+01  0.85690450528E+02  0.12121257191E+03  0.00000000000E+00 0. -1.
         21    1    1    2  503  502 -0.39989404056E+02  0.10400819008E+02  0.26990671382E+02  0.49354086097E+02  0.00000000000E+00 0. -1.
          1    1    1    2  501    0  0.72070999330E+02 -0.38282781050E+02 -0.10016686777E+03  0.12920217362E+03  0.00000000000E+00 0. -1.
<scales pt_clust_5="13000.00000" pt_clust_6="13000.00000" pt_clust_7="13000.00000" pt_clust_8="13000.00000" pt_clust_9="41.31984" pt_clust_10="13000.00000"></scales>
<clustering>
<clus scale="   41.320">  1  9  2 -1</clus>
<clus scale="   90.622">  5  6 -1 -1</clus>
<clus scale="   91.207">  7  8 -1 -1</clus>
<clus scale="   78.799">  7 10 -1 -1</clus>
<clus scale="  142.592">  2  5  1 -1</clus>
<clus scale="   41.320">  1  5  2 -1</clus>
</clustering>
</event>
<event>
10    2  0.4951045E-006  0.1105445E+04  0.7546771E-02  0.9774174E-01
         -1   -1    0    0    0  501 -0.00000000000E+00  0.00000000000E+00  0.91665067785E+03  0.91665067785E+03  0.00000000000E+00 0.  1.
         21   -1    0    0  503  502  0.00000000000E+00 -0.00000000000E+00 -0.74673013498E+03  0.74673013498E+03  0.00000000000E+00 0. -1.
         23    2    1    2    0    0  0.98938162275E+02  0.60911038394E+02  0.37102936147E+03  0.39929667461E+03  0.90973252801E+02 0.  0.
         23    2    1    2    0    0 -0.52942338452E+03 -0.26327757233E+03 -0.11456896743E+02  0.59814224282E+03  0.89658697286E+02 0.  0.
        -13    1    3    3    0    0  0.19332831443E+02 -0.21630825598E+02  0.11767618983E+03  0.12119957360E+03  0.00000000000E+00 0.  1.
         13    1    3    3    0    0  0.79605330831E+02  0.82541863991E+02  0.25335317164E+03  0.27809710101E+03  0.00000000000E+00 0. -1.
        -13    1    4    4    0    0 -0.47786069915E+02 -0.50389557894E+02 -0.17115020281E+02  0.71523002886E+02  0.00000000000E+00 0.  1.
         13    1    4    4    0    0 -0.48163731461E+03 -0.21288801443E+03  0.56581235376E+01  0.52661923994E+03  0.00000000000E+00 0. -1.
         21    1    1    2  503  501 -0.40969457888E+02  0.20126784254E+02 -0.15243480045E+03  0.15912244440E+03  0.00000000000E+00 0. -1.
         -1    1    1    2    0  502  0.47145468013E+03  0.18223974968E+03 -0.37217121414E+02  0.50681945100E+03  0.00000000000E+00 0.  1.
<scales pt_clust_5="13000.00000" pt_clust_6="13000.00000" pt_clust_7="13000.00000" pt_clust_8="13000.00000" pt_clust_9="45.64629" pt_clust_10="13000.00000"></scales>
<clustering>
<clus scale="   45.646">  2  9  1 -1</clus>
<clus scale="   89.659">  7  8 -1 -1</clus>
<clus scale="   90.973">  5  6 -1 -1</clus>
<clus scale="  147.109">  1  5  2 -1</clus>
<clus scale="  539.469">  7 10 -1 -1</clus>
<clus scale="   45.646">  2  5  1 -1</clus>
</clustering>
</event>
<event>
10    2  0.4951045E-006  0.1648732E+03  0.7546771E-02  0.1212945E+00
         -1   -1    0    0    0  501 -0.00000000000E+00  0.00000000000E+00  0.38417927688E+03  0.38417927688E+03  0.00000000000E+00 0.  1.
         21   -1    0    0  503  502  0.00000000000E+00 -0.00000000000E+00 -0.37880949546E+03  0.37880949546E+03  0.00000000000E+00 0. -1.
         23    2    1    2    0    0  0.14541482073E+01 -0.15951235976E+02  0.25353292580E+03  0.26759712899E+03  0.84099479791E+02 0.  0.
         23    2    1    2    0    0  0.39838841748E+02 -0.56751863112E+01  0.70189109908E+02  0.12247974022E+03  0.91953436929E+02 0.  0.
        -11    1    4    4    0    0  0.10124068959E+02  0.36119827585E+02  0.59121103534E+02  0.70017452111E+02  0.00000000000E+00 0.  1.
         11    1    4    4    0    0  0.29714772789E+02 -0.41795013897E+02  0.11068006374E+02  0.52462288109E+02  0.00000000000E+00 0. -1.
        -13    1    3    3    0    0  0.99352461138E+01 -0.44766901516E+02  0.86682909838E+02  0.98064832864E+02  0.00000000000E+00 0.  1.
         13    1    3    3    0    0 -0.84810979065E+01  0.28815665539E+02  0.16685001597E+03  0.16953229613E+03  0.00000000000E+00 0. -1.
         21    1    1    2  503  501 -0.30588992811E+02 -0.38419343021E+02 -0.30696140082E+03  0.31086497711E+03  0.00000000000E+00 0. -1.
         -1    1    1    2    0  502 -0.10703997145E+02  0.60045765308E+02 -0.11390853474E+02  0.62046926025E+02  0.00000000000E+00 0.  1.
<scales pt_clust_5="13000.00000" pt_clust_6="13000.00000" pt_clust_7="13000.00000" pt_clust_8="13000.00000" pt_clust_9="49.10939" pt_clust_10="13000.00000"></scales>
<clustering>
<clus scale="   49.109">  2  9  1 -1</clus>
<clus scale="   84.099">  7  8 -1 -1</clus>
<clus scale="   86.418">  1  7  2 -1</clus>
<clus scale="   91.953">  5  6 -1 -1</clus>
<clus scale="   45.321">  5 10 -1 -1</clus>
<clus scale="   49.109">  2  5  1 -1</clus>
</clustering>
</event>
<event>
10    2  0.4951045E-006  0.2598797E+03  0.7546771E-02  0.1133316E+00
          1   -1    0    0  503    0 -0.00000000000E+00  0.00000000000E+00  0.21493828232E+03  0.21493828232E+03  0.00000000000E+00 0. -1.
         21   -1    0    0  501  502  0.00000000000E+00 -0.00000000000E+00 -0.21923268245E+03  0.21923268245E+03  0.00000000000E+00 0.  1.
         23    2    1    2    0    0  0.98911076656E+02  0.17599849236E+01  0.41358748557E+02  0.14083337055E+03  0.91307138529E+02 0.  0.
         23    2    1    2    0    0 -0.16174428105E+03  0.20344529013E+02 -0.65713263099E+02  0.19791144770E+03  0.90970302141E+02 0.  0.
        -11    1    4    4    0    0 -0.91209585786E+02 -0.22602375207E+02 -0.26513141756E+01  0.94005773073E+02  0.00000000000E+00 0.  1.
         11    1    4    4    0    0 -0.70534695259E+02  0.42946904220E+02 -0.63061948924E+02  0.10390567463E+03  0.00000000000E+00 0. -1.
        -13    1    3    3    0    0  0.22725134261E+02 -0.35759297098E+02 -0.72459531000E+01  0.42984449426E+02  0.00000000000E+00 0.  1.
         13    1    3    3    0    0  0.76185942395E+02  0.37519282022E+02  0.48604701657E+02  0.97848921125E+02  0.00000000000E+00 0. -1.
         21    1    1    2  503  502  0.34127248876E+01 -0.26961997787E+02 -0.96182158411E+01  0.28828910694E+02  0.00000000000E+00 0.  1.
          1    1    1    2  501    0  0.59420479502E+02  0.48574838504E+01  0.29678330254E+02  0.66597235830E+02  0.00000000000E+00 0. -1.
<scales pt_clust_5="13000.00000" pt_clust_6="13000.00000" pt_clust_7="13000.00000" pt_clust_8="13000.00000" pt_clust_9="27.17712" pt_clust_10="13000.00000"></scales>
<clustering>
<clus scale="   27.177">  2  9  1 -1</clus>
<clus scale="   90.970">  5  6 -1 -1</clus>
<clus scale="   59.782">  5 10 -1 -1</clus>
<clus scale="   91.307">  7  8 -1 -1</clus>
<clus scale="  135.327">  1  7  2 -1</clus>
<clus scale="   27.177">  2  5  1 -1</clus>
</clustering>
</event>
<event>
10    2  0.4951045E-006  0.3005244E+03  0.7546771E-02  0.1121155E+00
          1   -1    0    0  502    0 -0.00000000000E+00  0.00000000000E+00  0.62814314748E+03  0.62814314748E+03  0.00000000000E+00 0. -1.
         21   -1    0    0  503  502  0.00000000000E+00 -0.00000000000E+00 -0.87577746701E+02  0.87577746701E+02  0.00000000000E+00 0. -1.
         23    2    1    2    0    0  0.31735790096E+02 -0.61919635420E+02  0.24976532362E+03  0.27581620915E+03  0.94077960871E+02 0.  0.
         23    2    1    2    0    0 -0.12372263461E+03  0.65066096620E+02  0.26282751545E+03  0.31179443827E+03  0.92717752439E+02 0.  0.
        -11    1    4    4    0    0 -0.62382790684E+02  0.69958873183E+02  0.21266120949E+03  0.23240190734E+03  0.00000000000E+00 0.  1.
         11    1    4    4    0    0 -0.61339843927E+02 -0.48927765629E+01  0.50166305956E+02  0.79392530938E+02  0.00000000000E+00 0. -1.
        -11    1    3    3    0    0  0.55421681595E+02 -0.13347955530E+02  0.17134982520E+03  0.18058375703E+03  0.00000000000E+00 0.  1.
         11    1    3    3    0    0 -0.23685891498E+02 -0.48571679891E+02  0.78415498421E+02  0.95232452117E+02  0.00000000000E+00 0. -1.
         21    1    1    2  503  501 -0.10845200191E+02 -0.17887518721E+02  0.18963193619E+01  0.21004231010E+02  0.00000000000E+00 0.  1.
          1    1    1    2  501    0  0.10283204471E+03  0.14741057522E+02  0.26076242352E+02  0.10710601575E+03  0.00000000000E+00 0. -1.
<scales pt_clust_5="13000.00000" pt_clust_6="13000.00000" pt_clust_7="13000.00000" pt_clust_8="13000.00000" pt_clust_9="20.91845" pt_clust_10="13000.00000"></scales>
<clustering>
<clus scale="   20.918">  2  9  1 -1</clus>
<clus scale="   92.718">  5  6 -1 -1</clus>
<clus scale="   94.078">  7  8 -1 -1</clus>
<clus scale="   97.353">  5 10 -1 -1</clus>
<clus scale="  118.148">  1  7  2 -1</clus>
<clus scale="   20.918">  2  5  1 -1</clus>
</clustering>
</event>
<event>
10    2  0.4951045E-006  0.1284053E+03  0.7546771E-02  0.1245508E+00
         21   -1    0    0  501  502  0.00000000000E+00  0.00000000000E+00  0.50258664416E+02  0.50258664416E+02  0.00000000000E+00 0.  1.
          3   -1    0    0  503    0 -0.00000000000E+00 -0.00000000000E+00 -0.39939147750E+03  0.39939147750E+03  0.00000000000E+00 0. -1.
         23    2    1    2    0    0 -0.22428035726E+02  0.11849156672E+00 -0.37117622103E+02  0.99821752543E+02  0.89909029487E+02 0.  0.
         23    2    1    2    0    0  0.31936186833E+02  0.61995065908E+01 -0.24228045086E+03  0.26197329397E+03  0.94190423990E+02 0.  0.
        -11    1    4    4    0    0 -0.20781368590E+02 -0.24645363069E+02 -0.44318909185E+02  0.54803511864E+02  0.00000000000E+00 0.  1.
         11    1    4    4    0    0  0.52717555423E+02  0.30844869660E+02 -0.19796154167E+03  0.20716978210E+03  0.00000000000E+00 0. -1.
        -13    1    3    3    0    0 -0.31914169614E+02  0.34412481119E+02  0.19568469697E+01  0.46974060172E+02  0.00000000000E+00 0.  1.
         13    1    3    3    0    0  0.94861338885E+01 -0.34293989553E+02 -0.39074469073E+02  0.52847692371E+02  0.00000000000E+00 0. -1.
         21    1    1    2  503  502  0.73396793666E+01 -0.26243372740E+02 -0.38221303494E+02  0.46940958094E+02  0.00000000000E+00 0.  1.
          3    1    1    2  501    0 -0.16847830474E+02  0.19925374583E+02 -0.31513436627E+02  0.40914137312E+02  0.00000000000E+00 0. -1.
<scales pt_clust_5="13000.00000" pt_clust_6="13000.00000" pt_clust_7="13000.00000" pt_clust_8="13000.00000" pt_clust_9="27.25044" pt_clust_10="13000.00000"></scales>
<clustering>
<clus scale="   27.250">  1  9  2 -1</clus>
<clus scale="   89.909">  7  8 -1 -1</clus>
<clus scale="   93.295">  2  7  1 -1</clus>
<clus scale="   94.190">  5  6 -1 -1</clus>
<clus scale="   23.629">  5 10 -1 -1</clus>
<clus scale="   27.250">  1  5  2 -1</clus>
</clustering>
</event>
<event>
10    2  0.4951045E-006  0.1302972E+03  0.7546771E-02  0.1243098E+00
          1   -1    0    0  503    0 -0.00000000000E+00  0.00000000000E+00  0.59935116222E+02  0.59935116222E+02  0.00000000000E+00 0. -1.
         21   -1    0    0  501  502  0.00000000000E+00 -0.00000000000E+00 -0.29929054980E+03  0.29929054980E+03  0.00000000000E+00 0.  1.
         23    2    1    2    0    0 -0.10204020107E+02 -0.28315718009E+02 -0.55723531404E+02  0.11150075385E+03  0.91768209334E+02 0.  0.
         23    2    1    2    0    0  0.26786391192E+02 -0.27515927448E+02 -0.98978397621E+02  0.14024091309E+03  0.91630527069E+02 0.  0.
        -11    1    4    4    0    0 -0.28580667376E+02  0.79258563700E+01 -0.13985499051E+02  0.32791278270E+02  0.00000000000E+00 0. -1.
         11    1    4    4    0    0  0.55367058568E+02 -0.35441783818E+02 -0.84992898570E+02  0.10744963482E+03  0.00000000000E+00 0.  1.
        -11    1    3    3    0    0  0.24268679979E+02 -0.12053324062E+02 -0.66568231794E+02  0.71871975992E+02  0.00000000000E+00 0.  1.
         11    1    3    3    0    0 -0.34472700085E+02 -0.16262393947E+02  0.10844700389E+02  0.39628777859E+02  0.00000000000E+00 0. -1.
         21    1    1    2  503  502  0.17849127306E+01  0.32754486416E+02 -0.62538946282E+02  0.70619842084E+02  0.00000000000E+00 0. -1.
          1    1    1    2  501    0 -0.18367283816E+02  0.23077159041E+02 -0.22114558276E+02  0.36864157008E+02  0.00000000000E+00 0. -1.
<scales pt_clust_5="13000.00000" pt_clust_6="13000.00000" pt_clust_7="13000.00000" pt_clust_8="13000.00000" pt_clust_9="32.80308" pt_clust_10="13000.00000"></scales>
<clustering>
<clus scale="   32.803">  2  9  1 -1</clus>
<clus scale="   91.631">  5  6 -1 -1</clus>
<clus scale="   32.718">  5 10 -1 -1</clus>
<clus scale="   91.768">  7  8 -1 -1</clus>
<clus scale="   93.737">  1  7  2 -1</clus>
<clus scale="   32.803">  2  5  1 -1</clus>
</clustering>
</event>
<event>
10    2  0.4951045E-006  0.1388326E+03  0.7546771E-02  0.1227326E+00
         21   -1    0    0  503  502  0.00000000000E+00  0.00000000000E+00  0.42990834468E+02  0.42990834468E+02  0.00000000000E+00 0. -1.
         -1   -1    0    0    0  501 -0.00000000000E+00 -0.00000000000E+00 -0.76490191067E+03  0.76490191067E+03  0.00000000000E+00 0.  1.
         23    2    1    2    0    0  0.14596346689E+02  0.46081040497E+02 -0.46895686021E+03  0.48052446728E+03  0.92987694252E+02 0.  0.
         23    2    1    2    0    0 -0.11911801804E+02 -0.93192088640E+01 -0.15516769461E+03  0.17842140042E+03  0.86766606485E+02 0.  0.
        -11    1    3    3    0    0  0.46899892566E+02  0.17176789581E+01 -0.27403487887E+03  0.27802457657E+03  0.00000000000E+00 0.  1.
         11    1    3    3    0    0 -0.32303545878E+02  0.44363361538E+02 -0.19492198135E+03  0.20249989070E+03  0.00000000000E+00 0. -1.
        -13    1    4    4    0    0 -0.22295953443E+02 -0.45358052434E+02 -0.86834329449E+02  0.10047220129E+03  0.00000000000E+00 0.  1.
         13    1    4    4    0    0  0.10384151639E+02  0.36038843570E+02 -0.68333365157E+02  0.77949199129E+02  0.00000000000E+00 0. -1.
         21    1    1    2  503  501  0.38324453236E+02  0.76556283847E+01 -0.67412246047E+01  0.39658750245E+02  0.00000000000E+00 0. -1.
         -1    1    1    2    0  502 -0.41008998121E+02 -0.44417460017E+02 -0.91045296780E+02  0.10928812720E+03  0.00000000000E+00 0.  1.
<scales pt_clust_5="13000.00000" pt_clust_6="13000.00000" pt_clust_7="13000.00000" pt_clust_8="13000.00000" pt_clust_9="39.08161" pt_clust_10="13000.00000"></scales>
<clustering>
<clus scale="   39.082">  1  9  2 -1</clus>
<clus scale="   86.767">  7  8 -1 -1</clus>
<clus scale="   50.207">  7 10 -1 -1</clus>
<clus scale="   92.988">  5  6 -1 -1</clus>
<clus scale="  107.021">  2  5  1 -1</clus>
<clus scale="   39.082">  1  5  2 -1</clus>
</clustering>
</event>
<event>
10    2  0.4951045E-006  0.4227182E+03  0.7546771E-02  0.1077530E+00
         21   -1    0    0  503  502  0.00000000000E+00  0.00000000000E+00  0.38462900215E+03  0.38462900215E+03  0.00000000000E+00 0.  1.
         -1   -1    0    0    0  501 -0.00000000000E+00 -0.00000000000E+00 -0.38528119545E+03  0.38528119545E+03  0.00000000000E+00 0.  1.
         23    2    1    2    0    0 -0.22663290969E+01  0.93482114373E+02  0.21183029060E+03  0.24904756256E+03  0.91698279404E+02 0.  0.
         23    2    1    2    0    0 -0.71472814352E+02 -0.50066306313E+02 -0.31641138035E+03  0.34034900172E+03  0.90034899545E+02 0.  0.
        -11    1    3    3    0    0 -0.24228551276E+02  0.10304855484E+03  0.15869555445E+03  0.19076243434E+03  0.00000000000E+00 0.  1.
         11    1    3    3    0    0  0.21962222179E+02 -0.95664404673E+01  0.53134736147E+02  0.58285128220E+02  0.00000000000E+00 0. -1.
        -13    1    4    4    0    0  0.12453662647E+02 -0.31280270714E+02 -0.49032490627E+02  0.59478854951E+02  0.00000000000E+00 0. -1.
         13    1    4    4    0    0 -0.83926476998E+02 -0.18786035599E+02 -0.26737888972E+03  0.28087014677E+03  0.00000000000E+00 0.  1.
         21    1    1    2  503  501 -0.32982296430E+02 -0.25245428433E+01  0.19230077830E+02  0.38262267153E+02  0.00000000000E+00 0.  1.
         -1    1    1    2    0  502  0.10672143988E+03 -0.40891265216E+02  0.84698818620E+02  0.14225136617E+03  0.00000000000E+00 0.  1.
<scales pt_clust_5="13000.00000" pt_clust_6="13000.00000" pt_clust_7="13000.00000" pt_clust_8="13000.00000" pt_clust_9="33.07877" pt_clust_10="13000.00000"></scales>
<clustering>
<clus scale="   33.079">  1  9  2 -1</clus>
<clus scale="   90.035">  7  8 -1 -1</clus>
<clus scale="   91.698">  5  6 -1 -1</clus>
<clus scale="  104.852">  7 10 -1 -1</clus>
<clus scale="  131.919">  2  5  1 -1</clus>
<clus scale="   33.079">  1  5  2 -1</clus>
</clustering>
</event>
<event>
10    2  0.4951045E-006  0.4471329E+03  0.7546771E-02  0.1053726E+00
         -1   -1    0    0    0  501 -0.00000000000E+00  0.00000000000E+00  0.46263421857E+03  0.46263421857E+03  0.00000000000E+00 0.  1.
         21   -1    0    0  503  502  0.00000000000E+00 -0.00000000000E+00 -0.41797876487E+03  0.41797876487E+03  0.00000000000E+00 0.  1.
         23    2    1    2    0    0  0.95357817526E+02  0.19058672759E+03  0.18352704925E+03  0.29567473870E+03  0.91241214356E+02 0.  0.
         23    2    1    2    0    0  0.15679370824E+02 -0.64569403836E+02  0.12354600573E+03  0.16571950924E+03  0.88228621377E+02 0.  0.
        -11    1    3    3    0    0  0.78413904929E+02  0.78759838493E+02  0.12850463100E+03  0.16989788943E+03  0.00000000000E+00 0.  1.
         11    1    3    3    0    0  0.16943912597E+02  0.11182688910E+03  0.55022418255E+02  0.12577684926E+03  0.00000000000E+00 0. -1.
        -11    1    4    4    0    0 -0.23098868110E+02  0.83106904775E+01  0.47543164677E+02  0.53506801359E+02  0.00000000000E+00 0.  1.
         11    1    4    4    0    0  0.38778238935E+02 -0.72880094313E+02  0.76002841051E+02  0.11221270788E+03  0.00000000000E+00 0. -1.
         21    1    1    2  503  501  0.33346558822E+02 -0.13863128707E+03 -0.30614042176E+02  0.14583499689E+03  0.00000000000E+00 0.  1.
         -1    1    1    2    0  502 -0.14438374717E+03  0.12613963315E+02 -0.23180355911E+03  0.27338373860E+03  0.00000000000E+00 0.  1.
<scales pt_clust_5="13000.00000" pt_clust_6="13000.00000" pt_clust_7="13000.00000" pt_clust_8="13000.00000" pt_clust_9="142.58551" pt_clust_10="13000.00000"></scales>
<clustering>
<clus scale="   88.229">  7  8 -1 -1</clus>
<clus scale="   91.241">  5  6 -1 -1</clus>
<clus scale="  142.586">  2  9  1 -1</clus>
<clus scale="  151.261">  7 10 -1 -1</clus>
<clus scale="  215.465">  1  5  2 -1</clus>
<clus scale="  142.586">  2  5  1 -1</clus>
</clustering>
</event>
<event>
10    2  0.4951045E-006  0.2149491E+03  0.7546771E-02  0.1172483E+00
         21   -1    0    0  501  502  0.00000000000E+00  0.00000000000E+00  0.79993691120E+02  0.79993691120E+02  0.00000000000E+00 0.  1.
         -3   -1    0    0    0  501 -0.00000000000E+00 -0.00000000000E+00 -0.50415393782E+03  0.50415393782E+03  0.00000000000E+00 0.  1.
         23    2    1    2    0    0  0.24798574026E+02 -0.58910335481E+01 -0.20414803216E+03  0.22524258626E+03  0.91695856384E+02 0.  0.
         23    2    1    2    0    0 -0.84790781841E+02  0.51764307092E+02 -0.19140648378E+03  0.23390541265E+03  0.90588519465E+02 0.  0.
        -11    1    4    4    0    0 -0.52467530166E+02  0.62353280171E+02 -0.18073491393E+03  0.19825711181E+03  0.00000000000E+00 0.  1.
         11    1    4    4    0    0 -0.32323251675E+02 -0.10588973079E+02 -0.10671569853E+02  0.35648300841E+02  0.00000000000E+00 0. -1.
        -13    1    3    3    0    0  0.26830798105E+02 -0.43426755778E+02 -0.74914381863E+02  0.90652851330E+02  0.00000000000E+00 0.  1.
         13    1    3    3    0    0 -0.20322240792E+01  0.37535722230E+02 -0.12923365030E+03  0.13458973493E+03  0.00000000000E+00 0. -1.
         21    1    1    2  503  502 -0.10405621742E+02 -0.19571763630E+02  0.24454230662E+02  0.33005155547E+02  0.00000000000E+00 0.  1.
         -3    1    1    2    0  503  0.70397829557E+02 -0.26301509914E+02 -0.53059961413E+02  0.91994474482E+02  0.00000000000E+00 0.  1.
<scales pt_clust_5="13000.00000" pt_clust_6="13000.00000" pt_clust_7="13000.00000" pt_clust_8="13000.00000" pt_clust_9="22.16599" pt_clust_10="13000.00000"></scales>
<clustering>
<clus scale="   22.166">  1  9  2 -1</clus>
<clus scale="   90.589">  5  6 -1 -1</clus>
<clus scale="   74.519">  5 10 -1 -1</clus>
<clus scale="   91.696">  7  8 -1 -1</clus>
<clus scale="   94.973">  2  7  1 -1</clus>
<clus scale="   22.166">  1  5  2 -1</clus>
</clustering>
</event>
<event>
10    2  0.4951045E-006  0.1989818E+03  0.7546771E-02  0.1173532E+00
         -3   -1    0    0    0  501 -0.00000000000E+00  0.00000000000E+00  0.42479022982E+03  0.42479022982E+03  0.00000000000E+00 0.  1.
         21   -1    0    0  501  502  0.00000000000E+00 -0.00000000000E+00 -0.13940572688E+03  0.13940572688E+03  0.00000000000E+00 0.  1.
         23    2    1    2    0    0  0.62790555214E+02  0.50123673587E+02  0.18619503230E+03  0.22279379958E+03  0.92268361849E+02 0.  0.
         23    2    1    2    0    0 -0.13984116964E+02  0.13716460758E+02  0.16652783845E+03  0.18968692920E+03  0.88689984252E+02 0.  0.
        -13    1    3    3    0    0 -0.30488878543E+01  0.35006975504E+02  0.14006172502E+02  0.37827991214E+02  0.00000000000E+00 0. -1.
         13    1    3    3    0    0  0.65839443068E+02  0.15116698082E+02  0.17218885980E+03  0.18496580836E+03  0.00000000000E+00 0.  1.
        -13    1    4    4    0    0  0.54708450031E+01 -0.32313868324E+02  0.30499817136E+02  0.44770024306E+02  0.00000000000E+00 0. -1.
         13    1    4    4    0    0 -0.19454961967E+02  0.46030329082E+02  0.13602802132E+03  0.14491690489E+03  0.00000000000E+00 0.  1.
         21    1    1    2  503  502  0.87730327260E+01 -0.74688646083E+02 -0.51077866200E+02  0.90908241499E+02  0.00000000000E+00 0.  1.
         -3    1    1    2    0  503 -0.57579470975E+02  0.10848511738E+02 -0.16260501617E+02  0.60806986421E+02  0.00000000000E+00 0.  1.
<scales pt_clust_5="13000.00000" pt_clust_6="13000.00000" pt_clust_7="13000.00000" pt_clust_8="13000.00000" pt_clust_9="75.20213" pt_clust_10="13000.00000"></scales>
<clustering>
<clus scale="   75.202">  2  9  1 -1</clus>
<clus scale="   88.690">  7  8 -1 -1</clus>
<clus scale="   61.200">  7 10 -1 -1</clus>
<clus scale="   92.268">  5  6 -1 -1</clus>
<clus scale="  116.898">  1  5  2 -1</clus>
<clus scale="   75.202">  2  5  1 -1</clus>
</clustering>
</event>
<event>
10    2  0.4951045E-006  0.1552913E+03  0.7546771E-02  0.1213440E+00
         21   -1    0    0  501  502  0.00000000000E+00  0.00000000000E+00  0.12708928978E+03  0.12708928978E+03  0.00000000000E+00 0. -1.
         -4   -1    0    0    0  501 -0.00000000000E+00 -0.00000000000E+00 -0.28017680330E+03  0.28017680330E+03  0.00000000000E+00 0.  1.
         23    2    1    2    0    0 -0.96613488915E+01 -0.18345478057E+02 -0.85041127540E+02  0.13113373011E+03  0.97643041592E+02 0.  0.
         23    2    1    2    0    0  0.27022740996E+02  0.35864442355E+02 -0.11516019544E+03  0.15525133325E+03  0.93939443817E+02 0.  0.
        -11    1    4    4    0    0  0.46302939083E+02  0.11615003935E+02 -0.14439070926E+02  0.49873412289E+02  0.00000000000E+00 0. -1.
         11    1    4    4    0    0 -0.19280198087E+02  0.24249438420E+02 -0.10072112451E+03  0.10537792096E+03  0.00000000000E+00 0.  1.
        -11    1    3    3    0    0 -0.30361628400E+02  0.31890167692E+02 -0.27102680480E+02  0.51704608728E+02  0.00000000000E+00 0.  1.
         11    1    3    3    0    0  0.20700279509E+02 -0.50235645748E+02 -0.57938447060E+02  0.79429121380E+02  0.00000000000E+00 0. -1.
         21    1    1    2  503  502  0.28120175494E+02 -0.33538481462E+02  0.56790950462E+02  0.71699275192E+02  0.00000000000E+00 0. -1.
         -4    1    1    2    0  503 -0.45481567598E+02  0.16019517163E+02 -0.96771410033E+01  0.49181754537E+02  0.00000000000E+00 0.  1.
<scales pt_clust_5="13000.00000" pt_clust_6="13000.00000" pt_clust_7="13000.00000" pt_clust_8="13000.00000" pt_clust_9="43.76727" pt_clust_10="13000.00000"></scales>
<clustering>
<clus scale="   43.767">  1  9  2 -1</clus>
<clus scale="   93.939">  5  6 -1 -1</clus>
<clus scale="   37.050">  5 10 -1 -1</clus>
<clus scale="   97.643">  7  8 -1 -1</clus>
<clus scale="  102.341">  2  7  1 -1</clus>
<clus scale="   43.767">  1  5  2 -1</clus>
</clustering>
</event>
<event>
10    2  0.4951045E-006  0.2207250E+03  0.7546771E-02  0.1157471E+00
         21   -1    0    0  501  502  0.00000000000E+00  0.00000000000E+00  0.70736782531E+02  0.70736782531E+02  0.00000000000E+00 0. -1.
          1   -1    0    0  503    0 -0.00000000000E+00 -0.00000000000E+00 -0.66256020950E+03  0.66256020950E+03  0.00000000000E+00 0. -1.
         23    2    1    2    0    0 -0.77193293811E+02 -0.16971270652E+02 -0.31798040865E+03  0.34001826277E+03  0.90851802916E+02 0.  0.
         23    2    1    2    0    0 -0.18448051237E+02 -0.23889825384E+00 -0.18679741036E+03  0.20865285684E+03  0.91117256782E+02 0.  0.
        -11    1    3    3    0    0 -0.82183295618E+02 -0.43517282832E+02 -0.25760198952E+03  0.27387338861E+03  0.00000000000E+00 0. -1.
         11    1    3    3    0    0  0.49900018066E+01  0.26546012180E+02 -0.60378419130E+02  0.66144874157E+02  0.00000000000E+00 0.  1.
        -13    1    4    4    0    0 -0.48862635555E+00 -0.43802063760E+02 -0.11187119143E+03  0.12014167894E+03  0.00000000000E+00 0.  1.
         13    1    4    4    0    0 -0.17959424881E+02  0.43563165506E+02 -0.74926218929E+02  0.88511177904E+02  0.00000000000E+00 0. -1.
         21    1    1    2  503  502 -0.25331312854E+02 -0.16740440255E+01  0.11099745825E+02  0.27707078368E+02  0.00000000000E+00 0. -1.
          1    1    1    2  501    0  0.12097265790E+03  0.18884212931E+02 -0.98145353778E+02  0.15691879405E+03  0.00000000000E+00 0. -1.
<scales pt_clust_5="13000.00000" pt_clust_6="13000.00000" pt_clust_7="13000.00000" pt_clust_8="13000.00000" pt_clust_9="25.38657" pt_clust_10="13000.00000"></scales>
<clustering>
<clus scale="   25.387">  1  9  2 -1</clus>
<clus scale="   90.852">  5  6 -1 -1</clus>
<clus scale="   91.117">  7  8 -1 -1</clus>
<clus scale="  107.970">  7 10 -1 -1</clus>
<clus scale="  124.025">  2  5  1 -1</clus>
<clus scale="   25.387">  1  5  2 -1</clus>
</clustering>
</event>
<event>
10    2  0.4951045E-006  0.2575908E+03  0.7546771E-02  0.1143040E+00
          2   -1    0    0  502    0 -0.00000000000E+00  0.00000000000E+00  0.14051825043E+03  0.14051825043E+03  0.00000000000E+00 0. -1.
         21   -1    0    0  503  502  0.00000000000E+00 -0.00000000000E+00 -0.12039766328E+04  0.12039766328E+04  0.00000000000E+00 0.  1.
         23    2    1    2    0    0  0.13075503192E+02  0.56192421708E+02  0.25907523517E+02  0.11284189057E+03  0.93453386517E+02 0.  0.
         23    2    1    2    0    0  0.12833975653E+03  0.10981051775E+02 -0.51473444477E+02  0.17049825991E+03  0.99138612769E+02 0.  0.
        -11    1    4    4    0    0  0.30269274946E+02  0.75595127888E+01 -0.64362205865E+02  0.71525301699E+02  0.00000000000E+00 0.  1.
         11    1    4    4    0    0  0.98070481579E+02  0.34215389862E+01  0.12888761388E+02  0.98972958207E+02  0.00000000000E+00 0. -1.
        -11    1    3    3    0    0 -0.10217758894E+02  0.75718435879E+02  0.30177954457E+02  0.82148603543E+02  0.00000000000E+00 0. -1.
         11    1    3    3    0    0  0.23293262087E+02 -0.19526014172E+02 -0.42704309402E+01  0.30693287026E+02  0.00000000000E+00 0.  1.
         21    1    1    2  503  501 -0.12643465982E+03 -0.62413829795E+01 -0.90931116295E+03  0.91808031736E+03  0.00000000000E+00 0.  1.
          2    1    1    2  501    0 -0.14980599896E+02 -0.60932090503E+02 -0.12858129847E+03  0.14307441540E+03  0.00000000000E+00 0. -1.
<scales pt_clust_5="13000.00000" pt_clust_6="13000.00000" pt_clust_7="13000.00000" pt_clust_8="13000.00000" pt_clust_9="125.65953" pt_clust_10="13000.00000"></scales>
<clustering>
<clus scale="   93.453">  7  8 -1 -1</clus>
<clus scale="   99.139">  5  6 -1 -1</clus>
<clus scale="   62.747">  5 10 -1 -1</clus>
<clus scale="  109.828">  1  7  2 -1</clus>
<clus scale="  125.660">  2  9  1 -1</clus>
<clus scale="  125.660">  2  5  1 -1</clus>
</clustering>
</event>
<event>
10    2  0.4951045E-006  0.1535017E+03  0.7546771E-02  0.1211478E+00
          1   -1    0    0  503    0 -0.00000000000E+00  0.00000000000E+00  0.93754243332E+03  0.93754243332E+03  0.00000000000E+00 0. -1.
         21   -1    0    0  501  502  0.00000000000E+00 -0.00000000000E+00 -0.65916634913E+02  0.65916634913E+02  0.00000000000E+00 0. -1.
         23    2    1    2    0    0  0.32624094047E+00  0.44185845131E+02  0.40633308752E+03  0.42083783366E+03  0.10022678726E+03 0.  0.
         23    2    1    2    0    0 -0.36736814644E+02 -0.27009617262E+02  0.46646326687E+03  0.47883627995E+03  0.98066766492E+02 0.  0.
        -11    1    3    3    0    0  0.26868003301E+02 -0.20738224794E+02  0.20125596621E+03  0.20409783807E+03  0.00000000000E+00 0.  1.
         11    1    3    3    0    0 -0.26541762361E+02  0.64924069924E+02  0.20507712130E+03  0.21673999559E+03  0.00000000000E+00 0. -1.
        -11    1    4    4    0    0  0.29675518015E+02 -0.21302434258E+02  0.10238990815E+03  0.10871119246E+03  0.00000000000E+00 0. -1.
         11    1    4    4    0    0 -0.66412332659E+02 -0.57071830031E+01  0.36407335871E+03  0.37012508749E+03  0.00000000000E+00 0.  1.
         21    1    1    2  503  502  0.63955240726E+02 -0.10603972826E+02 -0.22187435124E+02  0.68520065188E+02  0.00000000000E+00 0. -1.
          1    1    1    2  501    0 -0.27544667022E+02 -0.65722550429E+01  0.21016879154E+02  0.35264889438E+02  0.00000000000E+00 0. -1.
<scales pt_clust_5="13000.00000" pt_clust_6="13000.00000" pt_clust_7="13000.00000" pt_clust_8="13000.00000" pt_clust_9="64.82837" pt_clust_10="13000.00000"></scales>
<clustering>
<clus scale="   64.828">  2  9  1 -1</clus>
<clus scale="   98.067">  7  8 -1 -1</clus>
<clus scale="   11.576">  7 10 -1 -1</clus>
<clus scale="  100.227">  5  6 -1 -1</clus>
<clus scale="  110.476">  1  5  2 -1</clus>
<clus scale="   64.828">  2  5  1 -1</clus>
</clustering>
</event>
<event>
10    2  0.4951045E-006  0.2961547E+03  0.7546771E-02  0.1106267E+00
         21   -1    0    0  503  502  0.00000000000E+00  0.00000000000E+00  0.14850459937E+03  0.14850459937E+03  0.00000000000E+00 0. -1.
          1   -1    0    0  502    0 -0.00000000000E+00 -0.00000000000E+00 -0.50252916152E+03  0.50252916152E+03  0.00000000000E+00 0. -1.
         23    2    1    2    0    0 -0.13499271883E+03 -0.10578378662E+03 -0.92345366986E+02  0.21464719496E+03  0.90180418321E+02 0.  0.
         23    2    1    2    0    0  0.94828778000E+02  0.10508757455E+02 -0.29639021791E+03  0.32455495696E+03  0.91574164996E+02 0.  0.
        -11    1    4    4    0    0  0.76002441459E+02  0.31805689890E+02 -0.27972216204E+03  0.29160325951E+03  0.00000000000E+00 0. -1.
         11    1    4    4    0    0  0.18826336542E+02 -0.21296932434E+02 -0.16668055866E+02  0.32951697453E+02  0.00000000000E+00 0.  1.
        -13    1    3    3    0    0 -0.28153628873E+02 -0.33742760962E+02  0.15515661938E+02  0.46604039540E+02  0.00000000000E+00 0.  1.
         13    1    3    3    0    0 -0.10683908996E+03 -0.72041025661E+02 -0.10786102892E+03  0.16804315542E+03  0.00000000000E+00 0. -1.
         21    1    1    2  503  501  0.92100747936E+01  0.42318429870E+02  0.47586761726E+01  0.43569714060E+02  0.00000000000E+00 0. -1.
          1    1    1    2  501    0  0.30953866039E+02  0.52956599298E+02  0.29952346570E+02  0.68261894912E+02  0.00000000000E+00 0. -1.
<scales pt_clust_5="13000.00000" pt_clust_6="13000.00000" pt_clust_7="13000.00000" pt_clust_8="13000.00000" pt_clust_9="43.30906" pt_clust_10="13000.00000"></scales>
<clustering>
<clus scale="   43.309">  1  9  2 -1</clus>
<clus scale="   90.180">  7  8 -1 -1</clus>
<clus scale="   91.574">  5  6 -1 -1</clus>
<clus scale="   77.785">  5 10 -1 -1</clus>
<clus scale="  179.926">  2  7  1 -1</clus>
<clus scale="   43.309">  1  5  2 -1</clus>
</clustering>
</event>
<event>
10    2  0.4951045E-006  0.2470486E+03  0.7546771E-02  0.1138619E+00
         21   -1    0    0  501  502  0.00000000000E+00  0.00000000000E+00  0.12576034158E+03  0.12576034158E+03  0.00000000000E+00 0.  1.
          1   -1    0    0  503    0 -0.00000000000E+00 -0.00000000000E+00 -0.10345240553E+04  0.10345240553E+04  0.00000000000E+00 0. -1.
         23    2    1    2    0    0 -0.93114569633E+02 -0.51161240655E+02 -0.49432985066E+03  0.51388534375E+03  0.91806043612E+02 0.  0.
         23    2    1    2    0    0  0.85313763870E+02 -0.53930807197E+02 -0.42476497293E+03  0.44601604785E+03  0.91203412440E+02 0.  0.
        -11    1    3    3    0    0 -0.96322738359E+02 -0.13733469910E+02 -0.41289447820E+03  0.42420340433E+03  0.00000000000E+00 0. -1.
         11    1    3    3    0    0  0.32081687262E+01 -0.37427770746E+02 -0.81435372457E+02  0.89681939413E+02  0.00000000000E+00 0.  1.
        -13    1    4    4    0    0  0.77115701504E+02 -0.18615896742E+02 -0.38106684879E+03  0.38923685113E+03  0.00000000000E+00 0.  1.
         13    1    4    4    0    0  0.81980623664E+01 -0.35314910454E+02 -0.43698124142E+02  0.56779196723E+02  0.00000000000E+00 0. -1.
         21    1    1    2  503  502 -0.12720247340E+01  0.24300142711E+02  0.85964569824E+02  0.89342163886E+02  0.00000000000E+00 0.  1.
          1    1    1    2  501    0  0.90728304968E+01  0.80791905141E+02 -0.75633459931E+02  0.11104084136E+03  0.00000000000E+00 0. -1.
<scales pt_clust_5="13000.00000" pt_clust_6="13000.00000" pt_clust_7="13000.00000" pt_clust_8="13000.00000" pt_clust_9="24.33341" pt_clust_10="13000.00000"></scales>
<clustering>
<clus scale="   24.333">  1  9  2 -1</clus>
<clus scale="   91.203">  7  8 -1 -1</clus>
<clus scale="   91.806">  5  6 -1 -1</clus>
<clus scale="   92.471">  7 10 -1 -1</clus>
<clus scale="  138.484">  2  5  1 -1</clus>
<clus scale="   24.333">  1  5  2 -1</clus>
</clustering>
</event>
<event>
10    2  0.4951045E-006  0.4019730E+03  0.7546771E-02  0.1090832E+00
         21   -1    0    0  501  502  0.00000000000E+00  0.00000000000E+00  0.26034918149E+03  0.26034918149E+03  0.00000000000E+00 0. -1.
          2   -1    0    0  503    0 -0.00000000000E+00 -0.00000000000E+00 -0.53463753027E+03  0.53463753027E+03  0.00000000000E+00 0. -1.
         23    2    1    2    0    0  0.16226155798E+02  0.61702541454E+02 -0.12958704227E+03  0.16838127163E+03  0.86538773722E+02 0.  0.
         23    2    1    2    0    0 -0.88407843932E+02  0.68076425946E+02 -0.11238420818E+03  0.19948119978E+03  0.12129382581E+03 0.  0.
        -11    1    4    4    0    0 -0.81804397220E+02  0.22448436165E+00 -0.10163382641E+03  0.13046625797E+03  0.00000000000E+00 0. -1.
         11    1    4    4    0    0 -0.66034467120E+01  0.67851941584E+02 -0.10750381773E+02  0.69014941813E+02  0.00000000000E+00 0.  1.
        -13    1    3    3    0    0  0.12852373570E+02 -0.20776102604E+02 -0.22872657934E+02  0.33466228152E+02  0.00000000000E+00 0.  1.
         13    1    3    3    0    0  0.33737822288E+01  0.82478644058E+02 -0.10671438434E+03  0.13491504348E+03  0.00000000000E+00 0. -1.
         21    1    1    2  503  502  0.16169200372E+03  0.92363984079E+02 -0.20431650573E+02  0.18733088899E+03  0.00000000000E+00 0. -1.
          2    1    1    2  501    0 -0.89510315591E+02 -0.22214295148E+03 -0.11885447752E+02  0.23979335136E+03  0.00000000000E+00 0. -1.
<scales pt_clust_5="13000.00000" pt_clust_6="13000.00000" pt_clust_7="13000.00000" pt_clust_8="13000.00000" pt_clust_9="198.63144" pt_clust_10="13000.00000"></scales>
<clustering>
<clus scale="   86.539">  7  8 -1 -1</clus>
<clus scale="  107.515">  2  7  1 -1</clus>
<clus scale="  121.294">  5  6 -1 -1</clus>
<clus scale="  198.631">  1  9  2 -1</clus>
<clus scale="  134.984">  5 10 -1 -1</clus>
<clus scale="  198.631">  1  5  2 -1</clus>
</clustering>
</event>
<event>
10    2  0.4951045E-006  0.2363467E+03  0.7546771E-02  0.1157636E+00
         21   -1    0    0  503  502  0.00000000000E+00  0.00000000000E+00  0.74431867757E+02  0.74431867757E+02  0.00000000000E+00 0. -1.
          2   -1    0    0  502    0 -0.00000000000E+00 -0.00000000000E+00 -0.64675725871E+03  0.64675725871E+03  0.00000000000E+00 0. -1.
         23    2    1    2    0    0 -0.25733782898E+02 -0.27530856142E+02 -0.27736132806E+03  0.29430297874E+03  0.90910732977E+02 0.  0.
         23    2    1    2    0    0  0.35345437543E+02 -0.23772447954E+02 -0.30116604312E+03  0.31717505232E+03  0.89914398444E+02 0.  0.
        -11    1    3    3    0    0 -0.13258281269E+02 -0.56707618148E+02 -0.23025604720E+03  0.23750659622E+03  0.00000000000E+00 0. -1.
         11    1    3    3    0    0 -0.12475501630E+02  0.29176762006E+02 -0.47105280866E+02  0.56796382522E+02  0.00000000000E+00 0.  1.
        -11    1    4    4    0    0  0.41997542790E+02  0.15481781269E+02 -0.24037339050E+03  0.24450530876E+03  0.00000000000E+00 0. -1.
         11    1    4    4    0    0 -0.66521052468E+01 -0.39254229223E+02 -0.60792652620E+02  0.72669743557E+02  0.00000000000E+00 0.  1.
         21    1    1    2  503  501 -0.45051294125E+02 -0.20501266627E+01 -0.19685963020E+01  0.45140862786E+02  0.00000000000E+00 0.  1.
          2    1    1    2  501    0  0.35439639480E+02  0.53353430759E+02  0.81705765270E+01  0.64570232623E+02  0.00000000000E+00 0. -1.
<scales pt_clust_5="13000.00000" pt_clust_6="13000.00000" pt_clust_7="13000.00000" pt_clust_8="13000.00000" pt_clust_9="45.09792" pt_clust_10="13000.00000"></scales>
<clustering>
<clus scale="   45.098">  1  9  2 -1</clus>
<clus scale="   89.914">  7  8 -1 -1</clus>
<clus scale="   52.131">  7 10 -1 -1</clus>
<clus scale="   90.911">  5  6 -1 -1</clus>
<clus scale="  100.633">  2  5  1 -1</clus>
<clus scale="   45.098">  1  5  2 -1</clus>
</clustering>
</event>
<event>
10    2  0.4951045E-006  0.2477695E+03  0.7546771E-02  0.1122088E+00
         21   -1    0    0  501  502  0.00000000000E+00  0.00000000000E+00  0.49862613976E+02  0.49862613976E+02  0.00000000000E+00 0.  1.
          2   -1    0    0  503    0 -0.00000000000E+00 -0.00000000000E+00 -0.14432826799E+04  0.14432826799E+04  0.00000000000E+00 0. -1.
         23    2    1    2    0    0 -0.86769270835E+01  0.17643682658E+03 -0.84532254647E+03  0.86837364709E+03  0.91089738953E+02 0.  0.
         23    2    1    2    0    0 -0.28834021806E+02 -0.18086091767E+03 -0.29864822663E+03  0.36166375890E+03  0.89821149380E+02 0.  0.
        -11    1    4    4    0    0 -0.48533663451E+02 -0.68339260112E+02 -0.84899208156E+02  0.11930484695E+03  0.00000000000E+00 0.  1.
         11    1    4    4    0    0  0.19699641645E+02 -0.11252165756E+03 -0.21374901848E+03  0.24235891195E+03  0.00000000000E+00 0. -1.
        -13    1    3    3    0    0 -0.22497092097E+02  0.92185651586E+01 -0.50679376477E+02  0.56209432451E+02  0.00000000000E+00 0.  1.
         13    1    3    3    0    0  0.13820165013E+02  0.16721826142E+03 -0.79464317000E+03  0.81216421463E+03  0.00000000000E+00 0. -1.
         21    1    1    2  503  502  0.10408893063E+02  0.31958601694E+02 -0.52018674659E+02  0.61932542256E+02  0.00000000000E+00 0.  1.
          2    1    1    2  501    0  0.27102055827E+02 -0.27534510598E+02 -0.19743061819E+03  0.20117534566E+03  0.00000000000E+00 0. -1.
<scales pt_clust_5="13000.00000" pt_clust_6="13000.00000" pt_clust_7="13000.00000" pt_clust_8="13000.00000" pt_clust_9="33.61097" pt_clust_10="13000.00000"></scales>
<clustering>
<clus scale="   33.611">  1  9  2 -1</clus>
<clus scale="   89.821">  5  6 -1 -1</clus>
<clus scale="   38.010">  5 10 -1 -1</clus>
<clus scale="   91.090">  7  8 -1 -1</clus>
<clus scale="  205.974">  2  7  1 -1</clus>
<clus scale="   33.611">  1  5  2 -1</clus>
</clustering>
</event>
<event>
10    2  0.4951045E-006  0.2004213E+03  0.7546771E-02  0.1177965E+00
          4   -1    0    0  503    0 -0.00000000000E+00  0.00000000000E+00  0.32434404382E+02  0.32434404382E+02  0.00000000000E+00 0. -1.
         21   -1    0    0  501  502  0.00000000000E+00 -0.00000000000E+00 -0.16271294055E+04  0.16271294055E+04  0.00000000000E+00 0. -1.
         23    2    1    2    0    0  0.16028628267E+02 -0.69975716237E+02 -0.21509317776E+03  0.24313092950E+03  0.87715768106E+02 0.  0.
         23    2    1    2    0    0  0.19935451480E+02  0.32036210038E+02 -0.27577367853E+03  0.29269837941E+03  0.90539927997E+02 0.  0.
        -11    1    4    4    0    0  0.55635375153E+02  0.24308389521E+02 -0.19019334362E+03  0.19964894372E+03  0.00000000000E+00 0. -1.
         11    1    4    4    0    0 -0.35699923673E+02  0.77278205167E+01 -0.85580334905E+02  0.93049435692E+02  0.00000000000E+00 0.  1.
        -13    1    3    3    0    0  0.50481370973E+02 -0.44817025717E+02 -0.15836098450E+03  0.17214858705E+03  0.00000000000E+00 0. -1.
         13    1    3    3    0    0 -0.34452742705E+02 -0.25158690521E+02 -0.56732193254E+02  0.70982342453E+02  0.00000000000E+00 0.  1.
         21    1    1    2  503  502  0.48053035154E+02  0.95091329851E+02 -0.64961427069E+03  0.65829336612E+03  0.00000000000E+00 0. -1.
          4    1    1    2  501    0 -0.84017114902E+02 -0.57151823652E+02 -0.45421387415E+03  0.46544113485E+03  0.00000000000E+00 0. -1.
<scales pt_clust_5="13000.00000" pt_clust_6="13000.00000" pt_clust_7="13000.00000" pt_clust_8="13000.00000" pt_clust_9="106.54321" pt_clust_10="13000.00000"></scales>
<clustering>
<clus scale="   87.716">  7  8 -1 -1</clus>
<clus scale="   90.540">  5  6 -1 -1</clus>
<clus scale="  101.613">  5 10 -1 -1</clus>
<clus scale="  106.543">  2  9  1 -1</clus>
<clus scale="  103.471">  1  7  2 -1</clus>
<clus scale="  106.543">  2  5  1 -1</clus>
</clustering>
</event>
<event>
10    2  0.4951045E-006  0.4390191E+03  0.7546771E-02  0.1037197E+00
         21   -1    0    0  501  502  0.00000000000E+00  0.00000000000E+00  0.53668688440E+03  0.53668688440E+03  0.00000000000E+00 0. -1.
          1   -1    0    0  503    0 -0.00000000000E+00 -0.00000000000E+00 -0.42363625953E+03  0.42363625953E+03  0.00000000000E+00 0. -1.
         23    2    1    2    0    0 -0.26549451531E+03  0.22346432107E+03 -0.39678256881E+02  0.36104761622E+03  0.91418688755E+02 0.  0.
         23    2    1    2    0    0  0.17791151934E+03 -0.17141174804E+03 -0.10810474881E+03  0.28480008018E+03  0.91596685945E+02 0.  0.
        -11    1    4    4    0    0  0.12096949262E+03 -0.15735720191E+03 -0.10838932328E+03  0.22614851876E+03  0.00000000000E+00 0. -1.
         11    1    4    4    0    0  0.56942026718E+02 -0.14054546126E+02  0.28457447382E+00  0.58651561413E+02  0.00000000000E+00 0.  1.
        -11    1    3    3    0    0 -0.56350372322E+02  0.98213784905E+02 -0.29706497566E+02  0.11706317954E+03  0.00000000000E+00 0.  1.
         11    1    3    3    0    0 -0.20914414299E+03  0.12525053617E+03 -0.99717593145E+01  0.24398443668E+03  0.00000000000E+00 0. -1.
         21    1    1    2  503  502 -0.24100714490E+01  0.25715663528E+02  0.14898230390E+03  0.15120459871E+03  0.00000000000E+00 0. -1.
          1    1    1    2  501    0  0.89993067421E+02 -0.77768236565E+02  0.11185132666E+03  0.16327084883E+03  0.00000000000E+00 0. -1.
<scales pt_clust_5="13000.00000" pt_clust_6="13000.00000" pt_clust_7="13000.00000" pt_clust_8="13000.00000" pt_clust_9="25.82835" pt_clust_10="13000.00000"></scales>
<clustering>
<clus scale="   25.828">  1  9  2 -1</clus>
<clus scale="   91.419">  7  8 -1 -1</clus>
<clus scale="   91.597">  5  6 -1 -1</clus>
<clus scale="  112.488">  5 10 -1 -1</clus>
<clus scale="  366.340">  2  7  1 -1</clus>
<clus scale="   25.828">  1  5  2 -1</clus>
</clustering>
</event>
<event>
10    2  0.4951045E-006  0.3107648E+03  0.7546771E-02  0.1103101E+00
          1   -1    0    0  502    0 -0.00000000000E+00  0.00000000000E+00  0.17409364719E+03  0.17409364719E+03  0.00000000000E+00 0. -1.
         21   -1    0    0  503  502  0.00000000000E+00 -0.00000000000E+00 -0.46620281490E+03  0.46620281490E+03  0.00000000000E+00 0. -1.
         23    2    1    2    0    0  0.11160776109E+02 -0.12895406522E+03 -0.23946960279E+03  0.28715281622E+03  0.91418462824E+02 0.  0.
         23    2    1    2    0    0 -0.20448795287E+01  0.96137135739E+02 -0.13680690426E+03  0.18846696582E+03  0.86931799430E+02 0.  0.
        -11    1    4    4    0    0 -0.39912021487E+02  0.75458218971E+02 -0.78802087204E+02  0.11617521774E+03  0.00000000000E+00 0.  1.
         11    1    4    4    0    0  0.37867141958E+02  0.20678916768E+02 -0.58004817053E+02  0.72291748077E+02  0.00000000000E+00 0. -1.
        -13    1    3    3    0    0 -0.22605002214E+02 -0.83155119108E+02 -0.79042053424E+02  0.11693334070E+03  0.00000000000E+00 0.  1.
         13    1    3    3    0    0  0.33765778323E+02 -0.45798946116E+02 -0.16042754936E+03  0.17021947552E+03  0.00000000000E+00 0. -1.
         21    1    1    2  503  501 -0.64383755754E+01 -0.21199857908E+02 -0.30614978125E+02  0.37791051070E+02  0.00000000000E+00 0. -1.
          1    1    1    2  501    0 -0.26775210049E+01  0.54016787393E+02  0.11478231746E+03  0.12688562898E+03  0.00000000000E+00 0. -1.
<scales pt_clust_5="13000.00000" pt_clust_6="13000.00000" pt_clust_7="13000.00000" pt_clust_8="13000.00000" pt_clust_9="22.15596" pt_clust_10="13000.00000"></scales>
<clustering>
<clus scale="   22.156">  2  9  1 -1</clus>
<clus scale="   86.932">  5  6 -1 -1</clus>
<clus scale="   53.791">  5 10 -1 -1</clus>
<clus scale="   91.418">  7  8 -1 -1</clus>
<clus scale="  168.933">  1  7  2 -1</clus>
<clus scale="   22.156">  2  5  1 -1</clus>
</clustering>
</event>
<event>
10    2  0.4951045E-006  0.3458279E+03  0.7546771E-02  0.1099370E+00
         21   -1    0    0  501  502  0.00000000000E+00  0.00000000000E+00  0.15635359422E+03  0.15635359422E+03  0.00000000000E+00 0. -1.
          1   -1    0    0  503    0 -0.00000000000E+00 -0.00000000000E+00 -0.85803730900E+03  0.85803730900E+03  0.00000000000E+00 0. -1.
         23    2    1    2    0    0 -0.11361554723E+02  0.99064736177E+02 -0.26467583648E+03  0.29712399623E+03  0.91030016133E+02 0.  0.
         23    2    1    2    0    0  0.33289523317E+02 -0.19528775903E+01 -0.30209172173E+03  0.31758499484E+03  0.92134762781E+02 0.  0.
        -13    1    4    4    0    0  0.42505654190E+02 -0.37336123707E+02 -0.13209230518E+03  0.14369792573E+03  0.00000000000E+00 0. -1.
         13    1    4    4    0    0 -0.92161308729E+01  0.35383246117E+02 -0.16999941656E+03  0.17388706911E+03  0.00000000000E+00 0.  1.
        -13    1    3    3    0    0  0.27852656909E+02  0.29991489885E+00 -0.69910579133E+02  0.75255229191E+02  0.00000000000E+00 0. -1.
         13    1    3    3    0    0 -0.39214211633E+02  0.98764821278E+02 -0.19476525735E+03  0.22186876703E+03  0.00000000000E+00 0.  1.
         21    1    1    2  503  502  0.13606325268E+03  0.48986030497E+02  0.20049233615E+01  0.14462662144E+03  0.00000000000E+00 0. -1.
          1    1    1    2  501    0 -0.15799122127E+03 -0.14609788908E+03 -0.13692107992E+03  0.25505529071E+03  0.00000000000E+00 0. -1.
<scales pt_clust_5="13000.00000" pt_clust_6="13000.00000" pt_clust_7="13000.00000" pt_clust_8="13000.00000" pt_clust_9="147.92510" pt_clust_10="13000.00000"></scales>
<clustering>
<clus scale="   91.030">  7  8 -1 -1</clus>
<clus scale="   92.135">  5  6 -1 -1</clus>
<clus scale="  135.016">  2  7  1 -1</clus>
<clus scale="  147.925">  1  9  2 -1</clus>
<clus scale="   98.253">  5 10 -1 -1</clus>
<clus scale="  147.925">  1  5  2 -1</clus>
</clustering>
</event>
<event>
10    2  0.4951045E-006  0.2586893E+03  0.7546771E-02  0.1127335E+00
          3   -1    0    0  503    0 -0.00000000000E+00  0.00000000000E+00  0.43957629154E+03  0.43957629154E+03  0.00000000000E+00 0. -1.
         21   -1    0    0  501  502  0.00000000000E+00 -0.00000000000E+00 -0.37632030982E+03  0.37632030982E+03  0.00000000000E+00 0. -1.
         23    2    1    2    0    0  0.22273178526E+03  0.10469511877E+03  0.93580834029E+02  0.27870904171E+03  0.91382938089E+02 0.  0.
         23    2    1    2    0    0 -0.20029071710E+02 -0.49170509094E+02  0.69074284314E+02  0.12558345625E+03  0.90449129643E+02 0.  0.
        -11    1    4    4    0    0 -0.39238886393E+02 -0.63079831328E+02  0.69688187997E+02  0.10185872016E+03  0.00000000000E+00 0. -1.
         11    1    4    4    0    0  0.19209814683E+02  0.13909322235E+02 -0.61390368251E+00  0.23724736098E+02  0.00000000000E+00 0.  1.
        -13    1    3    3    0    0  0.68472471204E+02  0.81320624050E+02  0.32597616619E+02  0.11119409974E+03  0.00000000000E+00 0. -1.
         13    1    3    3    0    0  0.15425931405E+03  0.23374494724E+02  0.60983217410E+02  0.16751494196E+03  0.00000000000E+00 0.  1.
         21    1    1    2  503  502 -0.25809677658E+03  0.17498778780E+02 -0.15770850755E+03  0.30297215498E+03  0.00000000000E+00 0. -1.
          3    1    1    2  501    0  0.55394063030E+02 -0.73023388461E+02  0.58309370927E+02  0.10863194843E+03  0.00000000000E+00 0. -1.
<scales pt_clust_5="13000.00000" pt_clust_6="13000.00000" pt_clust_7="13000.00000" pt_clust_8="13000.00000" pt_clust_9="258.68930" pt_clust_10="13000.00000"></scales>
<clustering>
<clus scale="   90.449">  5  6 -1 -1</clus>
<clus scale="   91.383">  7  8 -1 -1</clus>
<clus scale="   91.657">  5 10 -1 -1</clus>
<clus scale="  258.689">  2  9  1 -1</clus>
<clus scale="  158.897">  1  7  2 -1</clus>
<clus scale="  258.689">  2  5  1 -1</clus>
</clustering>
</event>
<event>
10    2  0.4951045E-006  0.4613899E+03  0.7546771E-02  0.1067747E+00
          1   -1    0    0  503    0 -0.00000000000E+00  0.00000000000E+00  0.56981888541E+03  0.56981888541E+03  0.00000000000E+00 0. -1.
         21   -1    0    0  501  502  0.00000000000E+00 -0.00000000000E+00 -0.14157771908E+04  0.14157771908E+04  0.00000000000E+00 0. -1.
         23    2    1    2    0    0  0.37673328286E+02 -0.88663706229E+02  0.37706693465E+03  0.39967945313E+03  0.91014611893E+02 0.  0.
         23    2    1    2    0    0  0.25273530715E+02  0.15996774872E+03  0.11654968532E+03  0.22019841913E+03  0.93140123768E+02 0.  0.
        -11    1    4    4    0    0 -0.26229808651E+02  0.53114867808E+02  0.86865824186E+01  0.59871936316E+02  0.00000000000E+00 0.  1.
         11    1    4    4    0    0  0.51503339366E+02  0.10685288091E+03  0.10786310290E+03  0.16032648281E+03  0.00000000000E+00 0. -1.
        -13    1    3    3    0    0  0.55502534455E+02 -0.45700069410E+02  0.30888173878E+03  0.31713870188E+03  0.00000000000E+00 0. -1.
         13    1    3    3    0    0 -0.17829206168E+02 -0.42963636819E+02  0.68185195872E+02  0.82540751253E+02  0.00000000000E+00 0.  1.
         21    1    1    2  503  502 -0.14896716262E+03 -0.63770801904E+02 -0.10817047058E+04  0.10937746574E+04  0.00000000000E+00 0. -1.
          1    1    1    2  501    0  0.86020303615E+02 -0.75332405830E+01 -0.25787021965E+03  0.27194354659E+03  0.00000000000E+00 0. -1.
<scales pt_clust_5="13000.00000" pt_clust_6="13000.00000" pt_clust_7="13000.00000" pt_clust_8="13000.00000" pt_clust_9="162.08330" pt_clust_10="13000.00000"></scales>
<clustering>
<clus scale="   91.015">  7  8 -1 -1</clus>
<clus scale="   93.140">  5  6 -1 -1</clus>
<clus scale="   86.350">  5 10 -1 -1</clus>
<clus scale="  132.530">  1  7  2 -1</clus>
<clus scale="  162.083">  2  9  1 -1</clus>
<clus scale="  162.083">  2  5  1 -1</clus>
</clustering>
</event>
<event>
10    2  0.4951045E-006  0.1643004E+03  0.7546771E-02  0.1200696E+00
         21   -1    0    0  503  502  0.00000000000E+00  0.00000000000E+00  0.72266257807E+02  0.72266257807E+02  0.00000000000E+00 0. -1.
          1   -1    0    0  502    0 -0.00000000000E+00 -0.00000000000E+00 -0.40311744749E+03  0.40311744749E+03  0.00000000000E+00 0. -1.
         23    2    1    2    0    0 -0.82265734292E+02 -0.14944216663E+02 -0.89870752321E+02  0.15319455915E+03  0.91656097339E+02 0.  0.
         23    2    1    2    0    0  0.84278516493E+01  0.11265648825E+02 -0.21986794245E+03  0.23895102769E+03  0.92508042834E+02 0.  0.
        -11    1    3    3    0    0 -0.84624676225E+02  0.21683128462E+02 -0.62872787080E+02  0.10763122800E+03  0.00000000000E+00 0. -1.
         11    1    3    3    0    0  0.23589419322E+01 -0.36627345125E+02 -0.26997965242E+02  0.45563331146E+02  0.00000000000E+00 0.  1.
        -13    1    4    4    0    0 -0.29279253440E+02 -0.27012357373E+02 -0.94736809979E+02  0.10277161718E+03  0.00000000000E+00 0. -1.
         13    1    4    4    0    0  0.37707105089E+02  0.38278006198E+02 -0.12513113247E+03  0.13617941051E+03  0.00000000000E+00 0.  1.
         21    1    1    2  503  501  0.33852735151E+02 -0.13462318711E+02 -0.46661555111E+01  0.36728935590E+02  0.00000000000E+00 0.  1.
          1    1    1    2  501    0  0.39985147492E+02  0.17140886549E+02 -0.16446339399E+02  0.46509182870E+02  0.00000000000E+00 0. -1.
<scales pt_clust_5="13000.00000" pt_clust_6="13000.00000" pt_clust_7="13000.00000" pt_clust_8="13000.00000" pt_clust_9="36.43133" pt_clust_10="13000.00000"></scales>
<clustering>
<clus scale="   36.431">  1  9  2 -1</clus>
<clus scale="   91.656">  5  6 -1 -1</clus>
<clus scale="   92.508">  7  8 -1 -1</clus>
<clus scale="   50.870">  7 10 -1 -1</clus>
<clus scale="  113.592">  2  5  1 -1</clus>
<clus scale="   36.431">  1  5  2 -1</clus>
</clustering>
</event>
<event>
10    2  0.4951045E-006  0.1659701E+03  0.7546771E-02  0.1195896E+00
         21   -1    0    0  503  502  0.00000000000E+00  0.00000000000E+00  0.46374424896E+03  0.46374424896E+03  0.00000000000E+00 0.  1.
         -3   -1    0    0    0  501 -0.00000000000E+00 -0.00000000000E+00 -0.71121413831E+02  0.71121413831E+02  0.00000000000E+00 0.  1.
         23    2    1    2    0    0 -0.69361787793E+02  0.45239603434E+02  0.39095865152E+02  0.12967904781E+03  0.91817696785E+02 0.  0.
         23    2    1    2    0    0  0.19268121475E+02 -0.18672231825E+02  0.29104814213E+03  0.30583108757E+03  0.90020666181E+02 0.  0.
        -11    1    4    4    0    0 -0.30025706548E+00 -0.50461046320E+02  0.21839722581E+03  0.22415118914E+03  0.00000000000E+00 0.  1.
         11    1    4    4    0    0  0.19568378540E+02  0.31788814495E+02  0.72650916320E+02  0.81679898432E+02  0.00000000000E+00 0. -1.
        -13    1    3    3    0    0 -0.88080127243E+02  0.34702657279E+02  0.12499038721E+02  0.95491409071E+02  0.00000000000E+00 0.  1.
         13    1    3    3    0    0  0.18718339450E+02  0.10536946154E+02  0.26596826431E+02  0.34187638734E+02  0.00000000000E+00 0. -1.
         21    1    1    2  503  501 -0.22971462828E+01 -0.23341233759E+02  0.11260392433E+02  0.26017042726E+02  0.00000000000E+00 0.  1.
         -3    1    1    2    0  502  0.52390812601E+02 -0.32261378499E+01  0.51218435414E+02  0.73338484690E+02  0.00000000000E+00 0.  1.
<scales pt_clust_5="13000.00000" pt_clust_6="13000.00000" pt_clust_7="13000.00000" pt_clust_8="13000.00000" pt_clust_9="23.45401" pt_clust_10="13000.00000"></scales>
<clustering>
<clus scale="   23.454">  1  9  2 -1</clus>
<clus scale="   90.021">  5  6 -1 -1</clus>
<clus scale="   52.473">  5 10 -1 -1</clus>
<clus scale="   91.818">  7  8 -1 -1</clus>
<clus scale="  122.344">  2  7  1 -1</clus>
<clus scale="   23.454">  1  5  2 -1</clus>
</clustering>
</event>
<event>
10    2  0.4951045E-006  0.6895538E+03  0.7546771E-02  0.1028728E+00
         21   -1    0    0  503  502  0.00000000000E+00  0.00000000000E+00  0.50766167468E+03  0.50766167468E+03  0.00000000000E+00 0.  1.
          2   -1    0    0  502    0 -0.00000000000E+00 -0.00000000000E+00 -0.58835897606E+03  0.58835897606E+03  0.00000000000E+00 0. -1.
         23    2    1    2    0    0 -0.37986234383E+02  0.72323508978E+02 -0.11207477301E+03  0.16573834101E+03  0.90745793183E+02 0.  0.
         23    2    1    2    0    0  0.21927105507E+03  0.61394504370E+02  0.17904610171E+03  0.30466924903E+03  0.94428618573E+02 0.  0.
        -13    1    3    3    0    0 -0.23312284817E+02  0.26331051375E+00  0.82415779794E+01  0.24727627533E+02  0.00000000000E+00 0.  1.
         13    1    3    3    0    0 -0.14673949566E+02  0.72060198465E+02 -0.12031635099E+03  0.14101071347E+03  0.00000000000E+00 0. -1.
        -13    1    4    4    0    0  0.20436286231E+03  0.82220881487E+02  0.16662773449E+03  0.27620509543E+03  0.00000000000E+00 0.  1.
         13    1    4    4    0    0  0.14908192767E+02 -0.20826377117E+02  0.12418367223E+02  0.28464153595E+02  0.00000000000E+00 0. -1.
         21    1    1    2  503  501 -0.24827580878E+02 -0.27168565906E+02  0.21413932925E+03  0.21727906497E+03  0.00000000000E+00 0. -1.
          2    1    1    2  501    0 -0.15645723981E+03 -0.10654944744E+03 -0.36180795933E+03  0.40833399574E+03  0.00000000000E+00 0. -1.
<scales pt_clust_5="13000.00000" pt_clust_6="13000.00000" pt_clust_7="13000.00000" pt_clust_8="13000.00000" pt_clust_9="36.80407" pt_clust_10="13000.00000"></scales>
<clustering>
<clus scale="   36.804">  1  9  2 -1</clus>
<clus scale="   90.746">  5  6 -1 -1</clus>
<clus scale="   94.429">  7  8 -1 -1</clus>
<clus scale="  121.376">  2  5  1 -1</clus>
<clus scale="  199.565">  7 10 -1 -1</clus>
<clus scale="   36.804">  1  5  2 -1</clus>
</clustering>
</event>
<event>
10    2  0.4951045E-006  0.2098221E+03  0.7546771E-02  0.1168486E+00
         21   -1    0    0  501  502  0.00000000000E+00  0.00000000000E+00  0.23494453379E+03  0.23494453379E+03  0.00000000000E+00 0. -1.
          2   -1    0    0  503    0 -0.00000000000E+00 -0.00000000000E+00 -0.24305389668E+03  0.24305389668E+03  0.00000000000E+00 0. -1.
         23    2    1    2    0    0  0.41524034728E+01  0.42549602788E+02 -0.27619629178E+02  0.10477552155E+03  0.91582502954E+02 0.  0.
         23    2    1    2    0    0 -0.64088624861E+01  0.58252920329E+00 -0.95754345965E+02  0.13220832172E+03  0.90932572279E+02 0.  0.
        -11    1    4    4    0    0  0.36273991190E+02 -0.22448679623E+02 -0.44444475040E+02  0.61604034083E+02  0.00000000000E+00 0.  1.
         11    1    4    4    0    0 -0.42682853676E+02  0.23031208827E+02 -0.51309870925E+02  0.70604287634E+02  0.00000000000E+00 0. -1.
        -11    1    3    3    0    0  0.34792976309E+02 -0.11322903598E+02  0.79053454516E+00  0.36597599528E+02  0.00000000000E+00 0.  1.
         11    1    3    3    0    0 -0.30640572836E+02  0.53872506386E+02 -0.28410163724E+02  0.68177922019E+02  0.00000000000E+00 0. -1.
         21    1    1    2  503  502  0.54906733182E+02  0.55303325834E+02  0.10234510080E+03  0.12863796817E+03  0.00000000000E+00 0. -1.
          2    1    1    2  501    0 -0.52650274169E+02 -0.98435457825E+02  0.12919511451E+02  0.11237661902E+03  0.00000000000E+00 0. -1.
<scales pt_clust_5="13000.00000" pt_clust_6="13000.00000" pt_clust_7="13000.00000" pt_clust_8="13000.00000" pt_clust_9="77.93078" pt_clust_10="13000.00000"></scales>
<clustering>
<clus scale="   77.931">  1  9  2 -1</clus>
<clus scale="   90.933">  5  6 -1 -1</clus>
<clus scale="   73.415">  5 10 -1 -1</clus>
<clus scale="   91.583">  7  8 -1 -1</clus>
<clus scale="  111.873">  2  7  1 -1</clus>
<clus scale="   77.931">  1  5  2 -1</clus>
</clustering>
</event>
<event>
10    2  0.4951045E-006  0.2273199E+03  0.7546771E-02  0.1149902E+00
         -2   -1    0    0    0  501 -0.00000000000E+00  0.00000000000E+00  0.34720652574E+03  0.34720652574E+03  0.00000000000E+00 0.  1.
         21   -1    0    0  501  502  0.00000000000E+00 -0.00000000000E+00 -0.45129999228E+03  0.45129999228E+03  0.00000000000E+00 0.  1.
         23    2    1    2    0    0 -0.81457095087E+02  0.65861291407E+02  0.27385797913E+03  0.30585166441E+03  0.87029189612E+02 0.  0.
         23    2    1    2    0    0  0.34212776809E+02  0.24296470805E+02 -0.33626617400E+02  0.10698981106E+03  0.92494527849E+02 0.  0.
        -11    1    3    3    0    0 -0.79106169706E+02  0.20420990231E+02  0.22358977005E+03  0.23804870972E+03  0.00000000000E+00 0.  1.
         11    1    3    3    0    0 -0.23509253808E+01  0.45440301175E+02  0.50268209081E+02  0.67802954694E+02  0.00000000000E+00 0. -1.
        -13    1    4    4    0    0  0.39071511454E+02 -0.28393225021E+02 -0.20523589803E+02  0.52478338129E+02  0.00000000000E+00 0.  1.
         13    1    4    4    0    0 -0.48587346457E+01  0.52689695826E+02 -0.13103027597E+02  0.54511472929E+02  0.00000000000E+00 0. -1.
         21    1    1    2  503  502  0.27775273873E+02  0.18062015582E+02 -0.20752065872E+03  0.21014881880E+03  0.00000000000E+00 0. -1.
         -2    1    1    2    0  503  0.19469044405E+02 -0.10821977779E+03 -0.13680416955E+03  0.17551622376E+03  0.00000000000E+00 0.  1.
<scales pt_clust_5="13000.00000" pt_clust_6="13000.00000" pt_clust_7="13000.00000" pt_clust_8="13000.00000" pt_clust_9="33.13159" pt_clust_10="13000.00000"></scales>
<clustering>
<clus scale="   33.132">  2  9  1 -1</clus>
<clus scale="   87.029">  5  6 -1 -1</clus>
<clus scale="   92.495">  7  8 -1 -1</clus>
<clus scale="  103.560">  7 10 -1 -1</clus>
<clus scale="  135.684">  1  5  2 -1</clus>
<clus scale="   33.132">  2  5  1 -1</clus>
</clustering>
</event>
<event>
10    2  0.4951045E-006  0.2611364E+03  0.7546771E-02  0.1135295E+00
         21   -1    0    0  503  502  0.00000000000E+00  0.00000000000E+00  0.14332480304E+03  0.14332480304E+03  0.00000000000E+00 0.  1.
          2   -1    0    0  502    0 -0.00000000000E+00 -0.00000000000E+00 -0.83498306687E+03  0.83498306687E+03  0.00000000000E+00 0. -1.
         23    2    1    2    0    0  0.57658008029E+02  0.65607958768E+02 -0.36466415723E+03  0.38618012422E+03  0.92337915450E+02 0.  0.
         23    2    1    2    0    0 -0.23359605842E+02 -0.10908717861E+03 -0.24714216330E+03  0.28589163753E+03  0.90604060666E+02 0.  0.
        -11    1    3    3    0    0 -0.14497897106E+02  0.22720230293E+02 -0.26662301930E+02  0.37911426105E+02  0.00000000000E+00 0.  1.
         11    1    3    3    0    0  0.72155905135E+02  0.42887728474E+02 -0.33800185530E+03  0.34826869811E+03  0.00000000000E+00 0. -1.
        -13    1    4    4    0    0  0.15016228985E+02 -0.78087366190E+02 -0.20874391596E+03  0.22337669158E+03  0.00000000000E+00 0.  1.
         13    1    4    4    0    0 -0.38375834827E+02 -0.30999812415E+02 -0.38398247340E+02  0.62514945951E+02  0.00000000000E+00 0. -1.
         21    1    1    2  503  501 -0.14016349515E+03  0.29017417265E+02  0.37058217093E+02  0.14785508896E+03  0.00000000000E+00 0.  1.
          2    1    1    2  501    0  0.10586509296E+03  0.14461802573E+02 -0.11691016039E+03  0.15838101920E+03  0.00000000000E+00 0. -1.
<scales pt_clust_5="13000.00000" pt_clust_6="13000.00000" pt_clust_7="13000.00000" pt_clust_8="13000.00000" pt_clust_9="138.23623" pt_clust_10="13000.00000"></scales>
<clustering>
<clus scale="   90.604">  7  8 -1 -1</clus>
<clus scale="   92.338">  5  6 -1 -1</clus>
<clus scale="  106.848">  7 10 -1 -1</clus>
<clus scale="  127.103">  2  5  1 -1</clus>
<clus scale="  138.236">  1  9  2 -1</clus>
<clus scale="  138.236">  1  5  2 -1</clus>
</clustering>
</event>
<event>
10    2  0.4951045E-006  0.2531129E+03  0.7546771E-02  0.1120307E+00
         21   -1    0    0  501  502  0.00000000000E+00  0.00000000000E+00  0.21022199170E+03  0.21022199170E+03  0.00000000000E+00 0.  1.
          1   -1    0    0  503    0 -0.00000000000E+00 -0.00000000000E+00 -0.53754641005E+03  0.53754641005E+03  0.00000000000E+00 0. -1.
         23    2    1    2    0    0  0.14266796754E+03  0.73111155251E+02 -0.14773078360E+03  0.23795931097E+03  0.95398423833E+02 0.  0.
         23    2    1    2    0    0 -0.55882623527E+02 -0.12897633289E+02 -0.19597490428E+03  0.22330627261E+03  0.90389776666E+02 0.  0.
        -11    1    4    4    0    0 -0.30581040323E+02  0.38852969638E+02 -0.90667007926E+02  0.10327274376E+03  0.00000000000E+00 0.  1.
         11    1    4    4    0    0 -0.25301583204E+02 -0.51750602927E+02 -0.10530789635E+03  0.12003352886E+03  0.00000000000E+00 0. -1.
        -13    1    3    3    0    0  0.26278171063E+02 -0.12827848849E+02 -0.65052307108E+02  0.71322497436E+02  0.00000000000E+00 0.  1.
         13    1    3    3    0    0  0.11638979647E+03  0.85939004100E+02 -0.82678476496E+02  0.16663681353E+03  0.00000000000E+00 0. -1.
         21    1    1    2  503  502  0.36805078147E+02  0.12306651712E+02  0.10911980873E+03  0.11581537079E+03  0.00000000000E+00 0.  1.
          1    1    1    2  501    0 -0.12359042216E+03 -0.72520173674E+02 -0.92738539202E+02  0.17068744738E+03  0.00000000000E+00 0. -1.
<scales pt_clust_5="13000.00000" pt_clust_6="13000.00000" pt_clust_7="13000.00000" pt_clust_8="13000.00000" pt_clust_9="38.80808" pt_clust_10="13000.00000"></scales>
<clustering>
<clus scale="   38.808">  1  9  2 -1</clus>
<clus scale="   90.390">  5  6 -1 -1</clus>
<clus scale="   95.398">  7  8 -1 -1</clus>
<clus scale="  128.197">  5 10 -1 -1</clus>
<clus scale="  201.986">  2  7  1 -1</clus>
<clus scale="   38.808">  1  5  2 -1</clus>
</clustering>
</event>
<event>
10    2  0.4951045E-006  0.2886928E+03  0.7546771E-02  0.1133095E+00
         21   -1    0    0  503  502  0.00000000000E+00  0.00000000000E+00  0.32927901327E+03  0.32927901327E+03  0.00000000000E+00 0.  1.
          2   -1    0    0  502    0 -0.00000000000E+00 -0.00000000000E+00 -0.12834701079E+03  0.12834701079E+03  0.00000000000E+00 0. -1.
         23    2    1    2    0    0 -0.31881394602E+02 -0.26182007584E+01  0.61641559886E+02  0.11528729312E+03  0.92022821911E+02 0.  0.
         23    2    1    2    0    0  0.13922249625E+03  0.65608254905E+02  0.53751284783E+02  0.18841619834E+03  0.94467542609E+02 0.  0.
        -11    1    3    3    0    0 -0.20689152110E+02  0.43361173030E+02  0.42830124723E+02  0.64363436246E+02  0.00000000000E+00 0.  1.
         11    1    3    3    0    0 -0.11192242493E+02 -0.45979373788E+02  0.18811435162E+02  0.50923856873E+02  0.00000000000E+00 0. -1.
        -11    1    4    4    0    0  0.64157490080E+02  0.81550764390E+02  0.28048184023E+02  0.10748679609E+03  0.00000000000E+00 0.  1.
         11    1    4    4    0    0  0.75065006174E+02 -0.15942509485E+02  0.25703100760E+02  0.80929402255E+02  0.00000000000E+00 0. -1.
         21    1    1    2  503  501 -0.17445786039E+02 -0.11127296155E+02  0.21790987609E+01  0.20806745100E+02  0.00000000000E+00 0. -1.
          2    1    1    2  501    0 -0.89895315612E+02 -0.51862757991E+02  0.83360059048E+02  0.13311578749E+03  0.00000000000E+00 0. -1.
<scales pt_clust_5="13000.00000" pt_clust_6="13000.00000" pt_clust_7="13000.00000" pt_clust_8="13000.00000" pt_clust_9="20.69233" pt_clust_10="13000.00000"></scales>
<clustering>
<clus scale="   20.692">  1  9  2 -1</clus>
<clus scale="   92.023">  5  6 -1 -1</clus>
<clus scale="   94.468">  7  8 -1 -1</clus>
<clus scale="   99.250">  2  5  1 -1</clus>
<clus scale="  122.352">  7 10 -1 -1</clus>
<clus scale="   20.692">  1  5  2 -1</clus>
</clustering>
</event>
<event>
10    2  0.4951045E-006  0.2809613E+03  0.7546771E-02  0.1120774E+00
         -1   -1    0    0    0  501 -0.00000000000E+00  0.00000000000E+00  0.19785752463E+03  0.19785752463E+03  0.00000000000E+00 0.  1.
         21   -1    0    0  503  502  0.00000000000E+00 -0.00000000000E+00 -0.27309616817E+03  0.27309616817E+03  0.00000000000E+00 0.  1.
         23    2    1    2    0    0 -0.90794353278E+02  0.60876616640E+02 -0.28700273924E-01  0.14262861620E+03  0.91615196856E+02 0.  0.
         23    2    1    2    0    0 -0.66201439876E+02 -0.11408238670E+02 -0.21813432805E+02  0.11522177773E+03  0.91035452767E+02 0.  0.
        -13    1    3    3    0    0 -0.63479881745E+02  0.82604243639E+02 -0.13838453383E+02  0.10509357376E+03  0.00000000000E+00 0.  1.
         13    1    3    3    0    0 -0.27314471533E+02 -0.21727626999E+02  0.13809753109E+02  0.37535042441E+02  0.00000000000E+00 0. -1.
        -13    1    4    4    0    0 -0.42195660197E+02  0.16709355728E+02  0.27895516246E+02  0.53271344407E+02  0.00000000000E+00 0.  1.
         13    1    4    4    0    0 -0.24005779679E+02 -0.28117594398E+02 -0.49708949051E+02  0.61950433320E+02  0.00000000000E+00 0. -1.
         21    1    1    2  503  501  0.42509712317E+01  0.32240398155E+02 -0.28031799460E+01  0.32640034428E+02  0.00000000000E+00 0. -1.
         -1    1    1    2    0  502  0.15274482192E+03 -0.81708776125E+02 -0.50593330513E+02  0.18046326444E+03  0.00000000000E+00 0.  1.
<scales pt_clust_5="13000.00000" pt_clust_6="13000.00000" pt_clust_7="13000.00000" pt_clust_8="13000.00000" pt_clust_9="32.51946" pt_clust_10="13000.00000"></scales>
<clustering>
<clus scale="   32.519">  2  9  1 -1</clus>
<clus scale="   91.035">  7  8 -1 -1</clus>
<clus scale="   91.615">  5  6 -1 -1</clus>
<clus scale="  145.966">  1  5  2 -1</clus>
<clus scale="  108.875">  7 10 -1 -1</clus>
<clus scale="   32.519">  2  5  1 -1</clus>
</clustering>
</event>
<event>
10    2  0.4951045E-006  0.4276069E+03  0.7546771E-02  0.1043822E+00
          1   -1    0    0  503    0 -0.00000000000E+00  0.00000000000E+00  0.22584483732E+04  0.22584483732E+04  0.00000000000E+00 0. -1.
         21   -1    0    0  501  502  0.00000000000E+00 -0.00000000000E+00 -0.98390709746E+02  0.98390709746E+02  0.00000000000E+00 0. -1.
         23    2    1    2    0    0  0.31118961858E+03  0.37956616020E+02  0.12226971122E+04  0.12654799494E+04  0.90396850767E+02 0.  0.
         23    2    1    2    0    0 -0.17203192638E+03 -0.10855945645E+03  0.81823296244E+03  0.84809009672E+03  0.91495858141E+02 0.  0.
        -11    1    4    4    0    0 -0.70203183660E+02  0.19324051982E+01  0.32384318732E+03  0.33137083632E+03  0.00000000000E+00 0. -1.
         11    1    4    4    0    0 -0.10182874272E+03 -0.11049186164E+03  0.49438977512E+03  0.51671926040E+03  0.00000000000E+00 0.  1.
        -11    1    3    3    0    0  0.10049492484E+03  0.51977347510E+02  0.36261965874E+03  0.37986035786E+03  0.00000000000E+00 0.  1.
         11    1    3    3    0    0  0.21069469373E+03 -0.14020731491E+02  0.86007745350E+03  0.88561959153E+03  0.00000000000E+00 0. -1.
         21    1    1    2  503  502 -0.27027345644E+00  0.20753320681E+02 -0.28025076372E+02  0.34873747615E+02  0.00000000000E+00 0. -1.
          1    1    1    2  501    0 -0.13888741874E+03  0.49849519744E+02  0.14715266512E+03  0.20839528919E+03  0.00000000000E+00 0. -1.
<scales pt_clust_5="13000.00000" pt_clust_6="13000.00000" pt_clust_7="13000.00000" pt_clust_8="13000.00000" pt_clust_9="20.75508" pt_clust_10="13000.00000"></scales>
<clustering>
<clus scale="   20.755">  2  9  1 -1</clus>
<clus scale="   90.397">  7  8 -1 -1</clus>
<clus scale="   91.496">  5  6 -1 -1</clus>
<clus scale="  151.148">  5 10 -1 -1</clus>
<clus scale="  327.024">  1  7  2 -1</clus>
<clus scale="   20.755">  2  5  1 -1</clus>
</clustering>
</event>
<event>
10    2  0.4951045E-006  0.1591893E+03  0.7546771E-02  0.1212721E+00
          2   -1    0    0  503    0 -0.00000000000E+00  0.00000000000E+00  0.67659062866E+03  0.67659062866E+03  0.00000000000E+00 0. -1.
         21   -1    0    0  501  502  0.00000000000E+00 -0.00000000000E+00 -0.32064147001E+02  0.32064147001E+02  0.00000000000E+00 0.  1.
         23    2    1    2    0    0  0.20279810556E+02 -0.20932823658E+02  0.26627913921E+03  0.28239104535E+03  0.89390540288E+02 0.  0.
         23    2    1    2    0    0 -0.51487753028E+02 -0.22789343150E+02  0.23557233011E+03  0.25856215046E+03  0.90497072122E+02 0.  0.
        -11    1    3    3    0    0 -0.29141190126E+02  0.14074523869E+02  0.11417937048E+03  0.11867699788E+03  0.00000000000E+00 0.  1.
         11    1    3    3    0    0  0.49421000682E+02 -0.35007347526E+02  0.15209976873E+03  0.16371404747E+03  0.00000000000E+00 0. -1.
        -13    1    4    4    0    0 -0.61462830851E+02  0.13559893784E+02  0.10275265771E+03  0.12049754753E+03  0.00000000000E+00 0.  1.
         13    1    4    4    0    0  0.99750778230E+01 -0.36349236934E+02  0.13281967241E+03  0.13806460293E+03  0.00000000000E+00 0. -1.
         21    1    1    2  503  502  0.19863123758E+02 -0.12016012189E+02  0.14239442487E+02  0.27233985325E+02  0.00000000000E+00 0.  1.
          2    1    1    2  501    0  0.11344818715E+02  0.55738178996E+02  0.12843556984E+03  0.14046759452E+03  0.00000000000E+00 0. -1.
<scales pt_clust_5="13000.00000" pt_clust_6="13000.00000" pt_clust_7="13000.00000" pt_clust_8="13000.00000" pt_clust_9="23.21483" pt_clust_10="13000.00000"></scales>
<clustering>
<clus scale="   23.215">  2  9  1 -1</clus>
<clus scale="   89.391">  5  6 -1 -1</clus>
<clus scale="   90.497">  7  8 -1 -1</clus>
<clus scale="   55.282">  7 10 -1 -1</clus>
<clus scale="   96.468">  1  5  2 -1</clus>
<clus scale="   23.215">  2  5  1 -1</clus>
</clustering>
</event>
<event>
10    2  0.4951045E-006  0.5747042E+03  0.7546771E-02  0.1034818E+00
         21   -1    0    0  501  502  0.00000000000E+00  0.00000000000E+00  0.15816139216E+04  0.15816139216E+04  0.00000000000E+00 0. -1.
          2   -1    0    0  503    0 -0.00000000000E+00 -0.00000000000E+00 -0.56721590809E+03  0.56721590809E+03  0.00000000000E+00 0. -1.
         23    2    1    2    0    0  0.13533470817E+03 -0.45515258632E+02 -0.22206076157E+03  0.28071205830E+03  0.95399978226E+02 0.  0.
         23    2    1    2    0    0 -0.30104792538E+03  0.11099713164E+03  0.11373328083E+03  0.35247384832E+03  0.91391126362E+02 0.  0.
        -11    1    3    3    0    0  0.11851689234E+03 -0.18322362243E+02 -0.10510562177E+03  0.15946521394E+03  0.00000000000E+00 0. -1.
         11    1    3    3    0    0  0.16817815825E+02 -0.27192896388E+02 -0.11695513980E+03  0.12124684437E+03  0.00000000000E+00 0.  1.
        -13    1    4    4    0    0 -0.99328197635E+02  0.43914282078E+02 -0.54913365349E+01  0.10874148147E+03  0.00000000000E+00 0. -1.
         13    1    4    4    0    0 -0.20171972774E+03  0.67082849566E+02  0.11922461736E+03  0.24373236685E+03  0.00000000000E+00 0.  1.
         21    1    1    2  503  502  0.83840319559E+02  0.13225647885E+03  0.12545499443E+04  0.12642849908E+04  0.00000000000E+00 0. -1.
          2    1    1    2  501    0  0.81872897652E+02 -0.19773835186E+03 -0.13182445004E+03  0.25135893220E+03  0.00000000000E+00 0. -1.
<scales pt_clust_5="13000.00000" pt_clust_6="13000.00000" pt_clust_7="13000.00000" pt_clust_8="13000.00000" pt_clust_9="156.59175" pt_clust_10="13000.00000"></scales>
<clustering>
<clus scale="   91.391">  7  8 -1 -1</clus>
<clus scale="   95.400">  5  6 -1 -1</clus>
<clus scale="  156.592">  1  9  2 -1</clus>
<clus scale="  175.103">  2  5  1 -1</clus>
<clus scale="  262.838">  7 10 -1 -1</clus>
<clus scale="  156.592">  1  5  2 -1</clus>
</clustering>
</event>
<event>
10    2  0.4951045E-006  0.2049262E+03  0.7546771E-02  0.1179447E+00
         -1   -1    0    0    0  501 -0.00000000000E+00  0.00000000000E+00  0.52475588292E+02  0.52475588292E+02  0.00000000000E+00 0.  1.
         21   -1    0    0  501  502  0.00000000000E+00 -0.00000000000E+00 -0.11020009244E+04  0.11020009244E+04  0.00000000000E+00 0.  1.
         23    2    1    2    0    0  0.89441852358E+01 -0.18234602165E+02 -0.14402552388E+02  0.94659329863E+02  0.91326097306E+02 0.  0.
         23    2    1    2    0    0  0.66238951640E+02 -0.74902401514E+01 -0.70896631170E+03  0.72035519366E+03  0.10878727630E+03 0.  0.
        -11    1    4    4    0    0  0.91308970736E+02 -0.27533212436E+02 -0.51656530440E+03  0.52529526900E+03  0.00000000000E+00 0.  1.
         11    1    4    4    0    0 -0.25070019097E+02  0.20042972284E+02 -0.19240100730E+03  0.19505992465E+03  0.00000000000E+00 0. -1.
        -11    1    3    3    0    0 -0.25837970111E+02  0.24581600482E+02  0.53577531282E+01  0.36063295749E+02  0.00000000000E+00 0.  1.
         11    1    3    3    0    0  0.34782155347E+02 -0.42816202647E+02 -0.19760305516E+02  0.58596034113E+02  0.00000000000E+00 0. -1.
         21    1    1    2  503  502 -0.16173479511E+02 -0.12750942002E+02 -0.11596951164E+03  0.11778410586E+03  0.00000000000E+00 0.  1.
         -1    1    1    2    0  503 -0.59009657365E+02  0.38475784318E+02 -0.21018696039E+03  0.22167788333E+03  0.00000000000E+00 0.  1.
<scales pt_clust_5="13000.00000" pt_clust_6="13000.00000" pt_clust_7="13000.00000" pt_clust_8="13000.00000" pt_clust_9="20.59534" pt_clust_10="13000.00000"></scales>
<clustering>
<clus scale="   20.595">  2  9  1 -1</clus>
<clus scale="   91.326">  7  8 -1 -1</clus>
<clus scale="   93.616">  1  7  2 -1</clus>
<clus scale="  108.787">  5  6 -1 -1</clus>
<clus scale="   64.050">  5 10 -1 -1</clus>
<clus scale="   20.595">  2  5  1 -1</clus>
</clustering>
</event>
<event>
10    2  0.4951045E-006  0.2386592E+03  0.7546771E-02  0.1130915E+00
         -1   -1    0    0    0  501 -0.00000000000E+00  0.00000000000E+00  0.36792207325E+03  0.36792207325E+03  0.00000000000E+00 0.  1.
         21   -1    0    0  503  502  0.00000000000E+00 -0.00000000000E+00 -0.36948265016E+03  0.36948265016E+03  0.00000000000E+00 0. -1.
         23    2    1    2    0    0  0.92380431040E+02  0.13830581734E+03  0.11007845171E+03  0.21907841851E+03  0.90639090771E+02 0.  0.
         23    2    1    2    0    0 -0.61922209745E+02 -0.72941695627E+02  0.15650904950E+03  0.20413671868E+03  0.89564872120E+02 0.  0.
        -11    1    4    4    0    0 -0.21227388022E+02  0.42100196160E+01 -0.34757500171E+01  0.21918191203E+02  0.00000000000E+00 0. -1.
         11    1    4    4    0    0 -0.40694821723E+02 -0.77151715243E+02  0.15998479952E+03  0.18221852748E+03  0.00000000000E+00 0.  1.
        -13    1    3    3    0    0  0.47016390620E+02  0.44468649119E+02  0.93243368674E+02  0.11350034160E+03  0.00000000000E+00 0. -1.
         13    1    3    3    0    0  0.45364040420E+02  0.93837168223E+02  0.16835083038E+02  0.10557807691E+03  0.00000000000E+00 0.  1.
         21    1    1    2  503  501  0.19543855636E+02 -0.27485347274E+02 -0.24502308427E+03  0.24733321336E+03  0.00000000000E+00 0. -1.
         -1    1    1    2    0  502 -0.50002076932E+02 -0.37878774440E+02 -0.23124993861E+02  0.66856372857E+02  0.00000000000E+00 0.  1.
<scales pt_clust_5="13000.00000" pt_clust_6="13000.00000" pt_clust_7="13000.00000" pt_clust_8="13000.00000" pt_clust_9="33.72546" pt_clust_10="13000.00000"></scales>
<clustering>
<clus scale="   33.725">  2  9  1 -1</clus>
<clus scale="   89.565">  5  6 -1 -1</clus>
<clus scale="   64.289">  5 10 -1 -1</clus>
<clus scale="   90.639">  7  8 -1 -1</clus>
<clus scale="  185.300">  1  7  2 -1</clus>
<clus scale="   33.725">  2  5  1 -1</clus>
</clustering>
</event>
<event>
10    2  0.4951045E-006  0.1498993E+03  0.7546771E-02  0.1206850E+00
          1   -1    0    0  503    0 -0.00000000000E+00  0.00000000000E+00  0.29629833936E+03  0.29629833936E+03  0.00000000000E+00 0. -1.
         21   -1    0    0  501  502  0.00000000000E+00 -0.00000000000E+00 -0.12926927997E+03  0.12926927997E+03  0.00000000000E+00 0.  1.
         23    2    1    2    0    0 -0.37101739177E+02 -0.84849431131E+02  0.20384258654E+03  0.24235112997E+03  0.92770173524E+02 0.  0.
         23    2    1    2    0    0  0.33680998706E+02  0.74571147098E+02 -0.26362893937E+02  0.12455970008E+03  0.90137955683E+02 0.  0.
        -11    1    3    3    0    0 -0.62098514933E+02 -0.79158814015E+02  0.13131915617E+03  0.16542993734E+03  0.00000000000E+00 0. -1.
         11    1    3    3    0    0  0.24996775756E+02 -0.56906171156E+01  0.72523430378E+02  0.76921192626E+02  0.00000000000E+00 0.  1.
        -11    1    4    4    0    0  0.36069398460E+02 -0.96806050184E+01 -0.57012549626E+01  0.37778564385E+02  0.00000000000E+00 0. -1.
         11    1    4    4    0    0 -0.23883997540E+01  0.84251752116E+02 -0.20661638974E+02  0.86781135699E+02  0.00000000000E+00 0.  1.
         21    1    1    2  503  502  0.24995644863E+02 -0.92459998101E+01  0.25783017416E+01  0.26775332201E+02  0.00000000000E+00 0.  1.
          1    1    1    2  501    0 -0.21574904392E+02  0.19524283843E+02 -0.13028934964E+02  0.31881457078E+02  0.00000000000E+00 0. -1.
<scales pt_clust_5="13000.00000" pt_clust_6="13000.00000" pt_clust_7="13000.00000" pt_clust_8="13000.00000" pt_clust_9="26.65091" pt_clust_10="13000.00000"></scales>
<clustering>
<clus scale="   26.651">  2  9  1 -1</clus>
<clus scale="   90.138">  7  8 -1 -1</clus>
<clus scale="   24.431">  7 10 -1 -1</clus>
<clus scale="   92.770">  5  6 -1 -1</clus>
<clus scale="  130.975">  1  5  2 -1</clus>
<clus scale="   26.651">  2  5  1 -1</clus>
</clustering>
</event>
<event>
10    2  0.4951045E-006  0.3551620E+03  0.7546771E-02  0.1103020E+00
         21   -1    0    0  503  502  0.00000000000E+00  0.00000000000E+00  0.24049685420E+03  0.24049685420E+03  0.00000000000E+00 0.  1.
         -1   -1    0    0    0  501 -0.00000000000E+00 -0.00000000000E+00 -0.54583803626E+03  0.54583803626E+03  0.00000000000E+00 0.  1.
         23    2    1    2    0    0  0.60931204070E+02  0.35284029922E+01 -0.20528720391E+03  0.23345374262E+03  0.92912607306E+02 0.  0.
         23    2    1    2    0    0 -0.25433200349E+02 -0.94444388221E+02 -0.26610773456E+03  0.29633294864E+03  0.86216587205E+02 0.  0.
        -11    1    3    3    0    0  0.27252573510E+02  0.44056661218E+02 -0.62058548321E+02  0.80839072115E+02  0.00000000000E+00 0.  1.
         11    1    3    3    0    0  0.33678630560E+02 -0.40528258226E+02 -0.14322865559E+03  0.15261467051E+03  0.00000000000E+00 0. -1.
        -11    1    4    4    0    0  0.10694196711E+02 -0.62323222822E+02 -0.22221610403E+03  0.23103797704E+03  0.00000000000E+00 0.  1.
         11    1    4    4    0    0 -0.36127397059E+02 -0.32121165399E+02 -0.43891630530E+02  0.65294971594E+02  0.00000000000E+00 0. -1.
         21    1    1    2  503  501  0.33079474726E+02 -0.91545602351E+01  0.12319417243E+03  0.12788612802E+03  0.00000000000E+00 0.  1.
         -1    1    1    2    0  502 -0.68577478447E+02  0.10007054546E+03  0.42859583990E+02  0.12866207118E+03  0.00000000000E+00 0.  1.
<scales pt_clust_5="13000.00000" pt_clust_6="13000.00000" pt_clust_7="13000.00000" pt_clust_8="13000.00000" pt_clust_9="34.32284" pt_clust_10="13000.00000"></scales>
<clustering>
<clus scale="   34.323">  1  9  2 -1</clus>
<clus scale="   86.217">  7  8 -1 -1</clus>
<clus scale="   92.913">  5  6 -1 -1</clus>
<clus scale="  103.058">  7 10 -1 -1</clus>
<clus scale="  113.408">  2  5  1 -1</clus>
<clus scale="   34.323">  1  5  2 -1</clus>
</clustering>
</event>
<event>
10    2  0.4951045E-006  0.1506756E+03  0.7546771E-02  0.1212480E+00
          2   -1    0    0  503    0 -0.00000000000E+00  0.00000000000E+00  0.64408904532E+03  0.64408904532E+03  0.00000000000E+00 0. -1.
         21   -1    0    0  501  502  0.00000000000E+00 -0.00000000000E+00 -0.24981268281E+03  0.24981268281E+03  0.00000000000E+00 0.  1.
         23    2    1    2    0    0  0.61832259024E+02  0.16924792844E+02  0.21012944942E+03  0.23526479153E+03  0.84175173004E+02 0.  0.
         23    2    1    2    0    0 -0.37994944215E+02 -0.76210727417E+02  0.30649635332E+03  0.33123004230E+03  0.92312705318E+02 0.  0.
        -13    1    3    3    0    0  0.31463466769E+02 -0.33532466404E+02  0.10783256890E+03  0.11722729613E+03  0.00000000000E+00 0. -1.
         13    1    3    3    0    0  0.30368792255E+02  0.50457259248E+02  0.10229688053E+03  0.11803749540E+03  0.00000000000E+00 0.  1.
        -13    1    4    4    0    0  0.22046349747E+02  0.11608894518E+01  0.10370275853E+03  0.10602665386E+03  0.00000000000E+00 0. -1.
         13    1    4    4    0    0 -0.60041293962E+02 -0.77371616869E+02  0.20279359480E+03  0.22520338845E+03  0.00000000000E+00 0.  1.
         21    1    1    2  503  502  0.11818696533E+02  0.49009935825E+02 -0.21855435248E+03  0.22429369225E+03  0.00000000000E+00 0.  1.
          2    1    1    2  501    0 -0.35656011342E+02  0.10275998748E+02  0.96204912246E+02  0.10311320204E+03  0.00000000000E+00 0. -1.
<scales pt_clust_5="13000.00000" pt_clust_6="13000.00000" pt_clust_7="13000.00000" pt_clust_8="13000.00000" pt_clust_9="50.41483" pt_clust_10="13000.00000"></scales>
<clustering>
<clus scale="   50.415">  2  9  1 -1</clus>
<clus scale="   84.175">  5  6 -1 -1</clus>
<clus scale="   92.313">  7  8 -1 -1</clus>
<clus scale="   37.876">  7 10 -1 -1</clus>
<clus scale="  114.345">  1  5  2 -1</clus>
<clus scale="   50.415">  2  5  1 -1</clus>
</clustering>
</event>
<event>
10    2  0.4951045E-006  0.3574147E+03  0.7546771E-02  0.1102263E+00
         21   -1    0    0  501  502  0.00000000000E+00  0.00000000000E+00  0.22356617005E+03  0.22356617005E+03  0.00000000000E+00 0. -1.
          1   -1    0    0  503    0 -0.00000000000E+00 -0.00000000000E+00 -0.30645471380E+03  0.30645471380E+03  0.00000000000E+00 0. -1.
         23    2    1    2    0    0  0.24925975571E+02 -0.58577635646E+02 -0.48208468979E+02  0.12107630222E+03  0.91009729273E+02 0.  0.
         23    2    1    2    0    0 -0.26672299940E+02  0.80107025907E+01 -0.18335474846E+03  0.20688114949E+03  0.91680223023E+02 0.  0.
        -11    1    4    4    0    0  0.14182452426E+02 -0.29824632811E+02 -0.33616271225E+02  0.47124350077E+02  0.00000000000E+00 0.  1.
         11    1    4    4    0    0 -0.40854752366E+02  0.37835335401E+02 -0.14973847723E+03  0.15975679942E+03  0.00000000000E+00 0. -1.
        -13    1    3    3    0    0 -0.33467280041E+02 -0.14840016180E+02 -0.69591712820E+01  0.37265466299E+02  0.00000000000E+00 0.  1.
         13    1    3    3    0    0  0.58393255612E+02 -0.43737619466E+02 -0.41249297697E+02  0.83810835922E+02  0.00000000000E+00 0. -1.
         21    1    1    2  503  502 -0.23989227593E+02 -0.32240272851E+02  0.15345710829E+02  0.43016381471E+02  0.00000000000E+00 0. -1.
          1    1    1    2  501    0  0.25735551962E+02  0.82807205906E+02  0.13332896286E+03  0.15904705065E+03  0.00000000000E+00 0. -1.
<scales pt_clust_5="13000.00000" pt_clust_6="13000.00000" pt_clust_7="13000.00000" pt_clust_8="13000.00000" pt_clust_9="40.18605" pt_clust_10="13000.00000"></scales>
<clustering>
<clus scale="   40.186">  1  9  2 -1</clus>
<clus scale="   91.010">  7  8 -1 -1</clus>
<clus scale="   91.680">  5  6 -1 -1</clus>
<clus scale="   59.064">  5 10 -1 -1</clus>
<clus scale="  113.472">  2  7  1 -1</clus>
<clus scale="   40.186">  1  5  2 -1</clus>
</clustering>
</event>
<event>
10    2  0.4951045E-006  0.1954136E+03  0.7546771E-02  0.1184547E+00
          1   -1    0    0  503    0 -0.00000000000E+00  0.00000000000E+00  0.62585305190E+03  0.62585305190E+03  0.00000000000E+00 0. -1.
         21   -1    0    0  501  502  0.00000000000E+00 -0.00000000000E+00 -0.15175182884E+03  0.15175182884E+03  0.00000000000E+00 0. -1.
         23    2    1    2    0    0  0.34510770086E+02 -0.29490354316E+02  0.51641055847E+03  0.52548786832E+03  0.86005584678E+02 0.  0.
         23    2    1    2    0    0  0.46588539173E+01  0.54069733785E+02  0.41153417549E+02  0.11368671505E+03  0.91026503672E+02 0.  0.
        -11    1    4    4    0    0  0.18737845639E+02 -0.16865991070E+02  0.32079514412E+02  0.40800291161E+02  0.00000000000E+00 0. -1.
         11    1    4    4    0    0 -0.14078991722E+02  0.70935724855E+02  0.90739031375E+01  0.72886423885E+02  0.00000000000E+00 0.  1.
        -11    1    3    3    0    0  0.10577982318E+02 -0.58594503910E+02  0.31007895275E+03  0.31574383056E+03  0.00000000000E+00 0. -1.
         11    1    3    3    0    0  0.23932787768E+02  0.29104149595E+02  0.20633160573E+03  0.20974403776E+03  0.00000000000E+00 0.  1.
         21    1    1    2  503  502 -0.28285813414E+02  0.37665898299E+02 -0.39178547112E+02  0.61267982577E+02  0.00000000000E+00 0. -1.
          1    1    1    2  501    0 -0.10883810589E+02 -0.62245277768E+02 -0.44284205853E+02  0.77162314801E+02  0.00000000000E+00 0. -1.
<scales pt_clust_5="13000.00000" pt_clust_6="13000.00000" pt_clust_7="13000.00000" pt_clust_8="13000.00000" pt_clust_9="47.10422" pt_clust_10="13000.00000"></scales>
<clustering>
<clus scale="   47.104">  2  9  1 -1</clus>
<clus scale="   86.006">  7  8 -1 -1</clus>
<clus scale="   91.027">  5  6 -1 -1</clus>
<clus scale="   48.481">  5 10 -1 -1</clus>
<clus scale="   96.309">  1  7  2 -1</clus>
<clus scale="   47.104">  2  5  1 -1</clus>
</clustering>
</event>
<event>
10    2  0.4951045E-006  0.1553725E+03  0.7546771E-02  0.1208140E+00
         -1   -1    0    0    0  501 -0.00000000000E+00  0.00000000000E+00  0.57949517583E+03  0.57949517583E+03  0.00000000000E+00 0.  1.
         21   -1    0    0  501  502  0.00000000000E+00 -0.00000000000E+00 -0.32316840806E+03  0.32316840806E+03  0.00000000000E+00 0. -1.
         23    2    1    2    0    0  0.47236054578E+02  0.44686955352E+02  0.27801743394E+03  0.30378396861E+03  0.10374409467E+03 0.  0.
         23    2    1    2    0    0 -0.41625499072E+02 -0.34825117482E+02  0.18982788709E+03  0.21731133636E+03  0.90797132201E+02 0.  0.
        -11    1    4    4    0    0  0.26798812906E+02  0.18227385113E+01  0.64825142781E+02  0.70169779003E+02  0.00000000000E+00 0.  1.
         11    1    4    4    0    0 -0.68424311977E+02 -0.36647855994E+02  0.12500274431E+03  0.14714155736E+03  0.00000000000E+00 0. -1.
        -11    1    3    3    0    0 -0.18597803254E+02 -0.21711682299E+02  0.75196682524E+02  0.80447600938E+02  0.00000000000E+00 0. -1.
         11    1    3    3    0    0  0.65833857832E+02  0.66398637651E+02  0.20282075141E+03  0.22333636767E+03  0.00000000000E+00 0.  1.
         21    1    1    2  503  502 -0.12551966493E+02 -0.55561135937E+02 -0.28725084237E+03  0.29284405087E+03  0.00000000000E+00 0. -1.
         -1    1    1    2    0  503  0.69414109864E+01  0.45699298068E+02  0.75732289106E+02  0.88724228053E+02  0.00000000000E+00 0.  1.
<scales pt_clust_5="13000.00000" pt_clust_6="13000.00000" pt_clust_7="13000.00000" pt_clust_8="13000.00000" pt_clust_9="56.96132" pt_clust_10="13000.00000"></scales>
<clustering>
<clus scale="   56.961">  2  9  1 -1</clus>
<clus scale="   90.797">  5  6 -1 -1</clus>
<clus scale="   35.089">  5 10 -1 -1</clus>
<clus scale="  103.744">  7  8 -1 -1</clus>
<clus scale="  114.408">  1  7  2 -1</clus>
<clus scale="   56.961">  2  5  1 -1</clus>
</clustering>
</event>
<event>
10    2  0.4951045E-006  0.2847927E+03  0.7546771E-02  0.1116002E+00
          1   -1    0    0  503    0 -0.00000000000E+00  0.00000000000E+00  0.14219234339E+04  0.14219234339E+04  0.00000000000E+00 0. -1.
         21   -1    0    0  501  502  0.00000000000E+00 -0.00000000000E+00 -0.13910505490E+03  0.13910505490E+03  0.00000000000E+00 0. -1.
         23    2    1    2    0    0  0.12863397925E+03 -0.30663039646E+02  0.74321217861E+03  0.76023576993E+03  0.90039773543E+02 0.  0.
         23    2    1    2    0    0 -0.11045159286E+03  0.10485723665E+03  0.33212910096E+03  0.37660428573E+03  0.91249404801E+02 0.  0.
        -13    1    4    4    0    0 -0.39003239958E+02  0.29624256770E+02  0.21331275045E+03  0.21886337935E+03  0.00000000000E+00 0.  1.
         13    1    4    4    0    0 -0.71448352906E+02  0.75232979884E+02  0.11881635051E+03  0.15774090638E+03  0.00000000000E+00 0. -1.
        -13    1    3    3    0    0  0.70616584658E+02  0.27476854121E+02  0.29608940534E+03  0.30563150278E+03  0.00000000000E+00 0.  1.
         13    1    3    3    0    0  0.58017394592E+02 -0.58139893767E+02  0.44712277328E+03  0.45460426714E+03  0.00000000000E+00 0. -1.
         21    1    1    2  503  502 -0.64123838188E+01  0.21520710782E+02 -0.99716456623E+02  0.10221365555E+03  0.00000000000E+00 0. -1.
          1    1    1    2  501    0 -0.11770002567E+02 -0.95714907791E+02  0.30719355602E+03  0.32197477758E+03  0.00000000000E+00 0. -1.
<scales pt_clust_5="13000.00000" pt_clust_6="13000.00000" pt_clust_7="13000.00000" pt_clust_8="13000.00000" pt_clust_9="22.45573" pt_clust_10="13000.00000"></scales>
<clustering>
<clus scale="   22.456">  2  9  1 -1</clus>
<clus scale="   90.040">  7  8 -1 -1</clus>
<clus scale="   91.249">  5  6 -1 -1</clus>
<clus scale="   92.465">  5 10 -1 -1</clus>
<clus scale="  157.976">  1  7  2 -1</clus>
<clus scale="   22.456">  2  5  1 -1</clus>
</clustering>
</event>
<event>
10    2  0.4951045E-006  0.1740044E+03  0.7546771E-02  0.1189005E+00
          1   -1    0    0  503    0 -0.00000000000E+00  0.00000000000E+00  0.18152572957E+03  0.18152572957E+03  0.00000000000E+00 0. -1.
         21   -1    0    0  501  502  0.00000000000E+00 -0.00000000000E+00 -0.23260256596E+03  0.23260256596E+03  0.00000000000E+00 0. -1.
         23    2    1    2    0    0 -0.22999032761E+02 -0.90311197628E+02  0.85113066222E+02  0.15473570417E+03  0.89520032275E+02 0.  0.
         23    2    1    2    0    0  0.22440434558E+02 -0.20809486770E+01  0.18098544328E+01  0.88608388013E+02  0.85675360534E+02 0.  0.
        -11    1    4    4    0    0 -0.23634977554E+02 -0.25786043552E+02 -0.79754518008E+01  0.35876733930E+02  0.00000000000E+00 0. -1.
         11    1    4    4    0    0  0.46075412112E+02  0.23705094875E+02  0.97853062336E+01  0.52731654084E+02  0.00000000000E+00 0.  1.
        -11    1    3    3    0    0  0.30207575469E+02 -0.37876792040E+02  0.57271638350E+02  0.75014595581E+02  0.00000000000E+00 0.  1.
         11    1    3    3    0    0 -0.53206608230E+02 -0.52434405587E+02  0.27841427872E+02  0.79721108589E+02  0.00000000000E+00 0. -1.
         21    1    1    2  503  502  0.10195707657E+02  0.32908950917E+02 -0.80196676448E+02  0.87283780958E+02  0.00000000000E+00 0. -1.
          1    1    1    2  501    0 -0.96371094541E+01  0.59483195388E+02 -0.57803080597E+02  0.83500422386E+02  0.00000000000E+00 0. -1.
<scales pt_clust_5="13000.00000" pt_clust_6="13000.00000" pt_clust_7="13000.00000" pt_clust_8="13000.00000" pt_clust_9="34.45216" pt_clust_10="13000.00000"></scales>
<clustering>
<clus scale="   34.452">  2  9  1 -1</clus>
<clus scale="   85.675">  5  6 -1 -1</clus>
<clus scale="   75.255">  5 10 -1 -1</clus>
<clus scale="   89.520">  7  8 -1 -1</clus>
<clus scale="  123.548">  1  7  2 -1</clus>
<clus scale="   34.452">  2  5  1 -1</clus>
</clustering>
</event>
<event>
10    2  0.4951045E-006  0.1898421E+03  0.7546771E-02  0.1172862E+00
         21   -1    0    0  501  502  0.00000000000E+00  0.00000000000E+00  0.74374584160E+02  0.74374584160E+02  0.00000000000E+00 0. -1.
          1   -1    0    0  503    0 -0.00000000000E+00 -0.00000000000E+00 -0.52344356888E+03  0.52344356888E+03  0.00000000000E+00 0. -1.
         23    2    1    2    0    0 -0.84631629838E+02 -0.16700575629E+01 -0.36956828841E+02  0.13045244989E+03  0.92123464015E+02 0.  0.
         23    2    1    2    0    0  0.48572953614E+02 -0.31365374474E+02 -0.30547713045E+03  0.32382746887E+03  0.90580537807E+02 0.  0.
        -11    1    4    4    0    0  0.77329721777E+01  0.31402492186E+02 -0.10225372708E+03  0.10724616579E+03  0.00000000000E+00 0.  1.
         11    1    4    4    0    0  0.40839981436E+02 -0.62767866661E+02 -0.20322340336E+03  0.21658130308E+03  0.00000000000E+00 0. -1.
        -13    1    3    3    0    0  0.23580606753E+01  0.25046616174E+02  0.11151883356E+02  0.27518319976E+02  0.00000000000E+00 0.  1.
         13    1    3    3    0    0 -0.86989690513E+02 -0.26716673737E+02 -0.48108712197E+02  0.10293412991E+03  0.00000000000E+00 0. -1.
         21    1    1    2  503  502 -0.24339280222E+02 -0.45005638157E+01 -0.31910724313E+02  0.40385021512E+02  0.00000000000E+00 0. -1.
          1    1    1    2  501    0  0.60397956446E+02  0.37535995853E+02 -0.74724301120E+02  0.10315321277E+03  0.00000000000E+00 0. -1.
<scales pt_clust_5="13000.00000" pt_clust_6="13000.00000" pt_clust_7="13000.00000" pt_clust_8="13000.00000" pt_clust_9="24.75189" pt_clust_10="13000.00000"></scales>
<clustering>
<clus scale="   24.752">  1  9  2 -1</clus>
<clus scale="   90.581">  5  6 -1 -1</clus>
<clus scale="   66.466">  5 10 -1 -1</clus>
<clus scale="   92.123">  7  8 -1 -1</clus>
<clus scale="  136.675">  2  7  1 -1</clus>
<clus scale="   24.752">  1  5  2 -1</clus>
</clustering>
</event>
<event>
10    2  0.4951045E-006  0.3119037E+03  0.7546771E-02  0.1125241E+00
          2   -1    0    0  503    0 -0.00000000000E+00  0.00000000000E+00  0.18189298431E+04  0.18189298431E+04  0.00000000000E+00 0. -1.
         21   -1    0    0  501  502  0.00000000000E+00 -0.00000000000E+00 -0.79440950456E+02  0.79440950456E+02  0.00000000000E+00 0. -1.
         23    2    1    2    0    0  0.15905798560E+02  0.28495653526E+02  0.57821271320E+02  0.11161657115E+03  0.89721585139E+02 0.  0.
         23    2    1    2    0    0  0.11551625409E+02  0.83650301495E+02  0.64408771179E+03  0.65687955258E+03  0.97524115631E+02 0.  0.
        -11    1    4    4    0    0  0.41854282516E+02  0.24832374682E+01  0.23610946290E+03  0.23980330670E+03  0.00000000000E+00 0. -1.
         11    1    4    4    0    0 -0.30302657107E+02  0.81167064027E+02  0.40797824889E+03  0.41707624588E+03  0.00000000000E+00 0.  1.
        -11    1    3    3    0    0  0.12851337308E+02 -0.27719471308E+02  0.44134850534E+02  0.53678775991E+02  0.00000000000E+00 0.  1.
         11    1    3    3    0    0  0.30544612514E+01  0.56215124834E+02  0.13686420786E+02  0.57937795156E+02  0.00000000000E+00 0. -1.
         21    1    1    2  503  502 -0.69141021319E+02  0.70288164573E+02  0.27153854280E+02  0.10226553041E+03  0.00000000000E+00 0. -1.
          2    1    1    2  501    0  0.41683597350E+02 -0.18243411959E+03  0.10104260553E+04  0.10276091395E+04  0.00000000000E+00 0. -1.
<scales pt_clust_5="13000.00000" pt_clust_6="13000.00000" pt_clust_7="13000.00000" pt_clust_8="13000.00000" pt_clust_9="98.94337" pt_clust_10="13000.00000"></scales>
<clustering>
<clus scale="   89.722">  7  8 -1 -1</clus>
<clus scale="   95.472">  1  7  2 -1</clus>
<clus scale="   97.524">  5  6 -1 -1</clus>
<clus scale="   98.943">  2  9  1 -1</clus>
<clus scale="  129.219">  5 10 -1 -1</clus>
<clus scale="   98.943">  2  5  1 -1</clus>
</clustering>
</event>
<event>
10    2  0.4951045E-006  0.1578195E+03  0.7546771E-02  0.1213436E+00
         21   -1    0    0  501  502  0.00000000000E+00  0.00000000000E+00  0.14458509982E+03  0.14458509982E+03  0.00000000000E+00 0. -1.
          1   -1    0    0  503    0 -0.00000000000E+00 -0.00000000000E+00 -0.40017407603E+03  0.40017407603E+03  0.00000000000E+00 0. -1.
         23    2    1    2    0    0 -0.61138696043E+02 -0.19471731973E+02 -0.62601560123E+02  0.12669809193E+03  0.89534142476E+02 0.  0.
         23    2    1    2    0    0  0.32051712765E+02  0.40318800532E+02 -0.20879683952E+03  0.23392647146E+03  0.92046487651E+02 0.  0.
        -11    1    4    4    0    0  0.54995871708E+02  0.10592629333E+01 -0.77952530687E+02  0.95405791142E+02  0.00000000000E+00 0.  1.
         11    1    4    4    0    0 -0.22944158943E+02  0.39259537598E+02 -0.13084430883E+03  0.13852068031E+03  0.00000000000E+00 0. -1.
        -13    1    3    3    0    0 -0.13739620549E+02  0.30418421394E+02  0.42640754607E+00  0.33380224031E+02  0.00000000000E+00 0.  1.
         13    1    3    3    0    0 -0.47399075494E+02 -0.49890153367E+02 -0.63027967670E+02  0.93317867899E+02  0.00000000000E+00 0. -1.
         21    1    1    2  503  502  0.36783817519E+02  0.27068326239E+02  0.86835158565E+02  0.98112630582E+02  0.00000000000E+00 0. -1.
          1    1    1    2  501    0 -0.76968342406E+01 -0.47915394797E+02 -0.71025735130E+02  0.86021981881E+02  0.00000000000E+00 0. -1.
<scales pt_clust_5="13000.00000" pt_clust_6="13000.00000" pt_clust_7="13000.00000" pt_clust_8="13000.00000" pt_clust_9="45.66994" pt_clust_10="13000.00000"></scales>
<clustering>
<clus scale="   45.670">  1  9  2 -1</clus>
<clus scale="   89.534">  7  8 -1 -1</clus>
<clus scale="   92.046">  5  6 -1 -1</clus>
<clus scale="   44.086">  5 10 -1 -1</clus>
<clus scale="   97.508">  2  7  1 -1</clus>
<clus scale="   45.670">  1  5  2 -1</clus>
</clustering>
</event>
<event>
10    2  0.4951045E-006  0.2223956E+03  0.7546771E-02  0.1156072E+00
         21   -1    0    0  501  502  0.00000000000E+00  0.00000000000E+00  0.39413673403E+03  0.39413673403E+03  0.00000000000E+00 0.  1.
          1   -1    0    0  503    0 -0.00000000000E+00 -0.00000000000E+00 -0.26075324146E+03  0.26075324146E+03  0.00000000000E+00 0. -1.
         23    2    1    2    0    0 -0.10342680221E+03 -0.17015920652E+02 -0.39499493810E+02  0.14380082143E+03  0.90176611506E+02 0.  0.
         23    2    1    2    0    0  0.36451693379E+02 -0.20368721419E+02 -0.14603056108E+03  0.17418820267E+03  0.85281852811E+02 0.  0.
        -11    1    4    4    0    0 -0.21703151593E+02  0.12322957151E+02 -0.21623104263E+02  0.33021821573E+02  0.00000000000E+00 0.  1.
         11    1    4    4    0    0  0.58154844972E+02 -0.32691678570E+02 -0.12440745681E+03  0.14116638110E+03  0.00000000000E+00 0. -1.
        -13    1    3    3    0    0 -0.10844012925E+03  0.11480190961E+02 -0.34959973365E+02  0.11451312656E+03  0.00000000000E+00 0.  1.
         13    1    3    3    0    0  0.50133270436E+01 -0.28496111614E+02 -0.45395204449E+01  0.29287694874E+02  0.00000000000E+00 0. -1.
         21    1    1    2  503  502  0.39718346195E+02  0.55720814354E+02  0.26565255192E+03  0.27432395907E+03  0.00000000000E+00 0.  1.
          1    1    1    2  501    0  0.27256762631E+02 -0.18336172283E+02  0.53260995540E+02  0.62576992330E+02  0.00000000000E+00 0. -1.
<scales pt_clust_5="13000.00000" pt_clust_6="13000.00000" pt_clust_7="13000.00000" pt_clust_8="13000.00000" pt_clust_9="68.42774" pt_clust_10="13000.00000"></scales>
<clustering>
<clus scale="   68.428">  1  9  2 -1</clus>
<clus scale="   85.282">  5  6 -1 -1</clus>
<clus scale="   46.423">  5 10 -1 -1</clus>
<clus scale="   90.177">  7  8 -1 -1</clus>
<clus scale="  125.287">  2  7  1 -1</clus>
<clus scale="   68.428">  1  5  2 -1</clus>
</clustering>
</event>
<event>
10    2  0.4951045E-006  0.1976403E+03  0.7546771E-02  0.1163616E+00
          1   -1    0    0  502    0 -0.00000000000E+00  0.00000000000E+00  0.10320781435E+04  0.10320781435E+04  0.00000000000E+00 0. -1.
         21   -1    0    0  503  502  0.00000000000E+00 -0.00000000000E+00 -0.22852514545E+03  0.22852514545E+03  0.00000000000E+00 0. -1.
         23    2    1    2    0    0 -0.11385809090E+03  0.25733915251E+02  0.75170560330E+03  0.76583131898E+03  0.88376443990E+02 0.  0.
         23    2    1    2    0    0  0.59968521569E+02 -0.25680423064E+00  0.61313430407E+02  0.12437039160E+03  0.90068685076E+02 0.  0.
        -11    1    4    4    0    0 -0.13300642646E+02  0.26250966400E+02  0.10027417144E+02  0.31089699682E+02  0.00000000000E+00 0. -1.
         11    1    4    4    0    0  0.73269164215E+02 -0.26507770630E+02  0.51286013262E+02  0.93280691920E+02  0.00000000000E+00 0.  1.
        -11    1    3    3    0    0 -0.17836246127E+02  0.44992012007E+02  0.26058724133E+03  0.26504362502E+03  0.00000000000E+00 0.  1.
         11    1    3    3    0    0 -0.96021844773E+02 -0.19258096756E+02  0.49111836196E+03  0.50078769396E+03  0.00000000000E+00 0. -1.
         21    1    1    2  503  501 -0.49983791685E+02 -0.80610491032E+02 -0.15596497033E+03  0.18254178334E+03  0.00000000000E+00 0. -1.
          1    1    1    2  501    0  0.10387336102E+03  0.55133380012E+02  0.14649893464E+03  0.18785979498E+03  0.00000000000E+00 0. -1.
<scales pt_clust_5="13000.00000" pt_clust_6="13000.00000" pt_clust_7="13000.00000" pt_clust_8="13000.00000" pt_clust_9="94.84952" pt_clust_10="13000.00000"></scales>
<clustering>
<clus scale="   88.376">  7  8 -1 -1</clus>
<clus scale="   90.069">  5  6 -1 -1</clus>
<clus scale="   94.850">  2  9  1 -1</clus>
<clus scale="   90.555">  5 10 -1 -1</clus>
<clus scale="  149.753">  1  7  2 -1</clus>
<clus scale="   94.850">  2  5  1 -1</clus>
</clustering>
</event>
<event>
10    2  0.4951045E-006  0.3140550E+03  0.7546771E-02  0.1104363E+00
         21   -1    0    0  503  502  0.00000000000E+00  0.00000000000E+00  0.26407237342E+03  0.26407237342E+03  0.00000000000E+00 0.  1.
          2   -1    0    0  502    0 -0.00000000000E+00 -0.00000000000E+00 -0.10633457867E+04  0.10633457867E+04  0.00000000000E+00 0. -1.
         23    2    1    2    0    0  0.12925190722E+03 -0.64414722484E+02 -0.37729235761E+03  0.41455561218E+03  0.93013550006E+02 0.  0.
         23    2    1    2    0    0  0.57926404518E+02  0.17087862134E+02 -0.11661078204E+03  0.15695672635E+03  0.85964388470E+02 0.  0.
        -11    1    3    3    0    0  0.44606380291E+02 -0.45990534895E+02 -0.68288086048E+02  0.93638246239E+02  0.00000000000E+00 0. -1.
         11    1    3    3    0    0  0.84645526925E+02 -0.18424187589E+02 -0.30900427157E+03  0.32091736594E+03  0.00000000000E+00 0.  1.
        -13    1    4    4    0    0  0.59729662004E+02  0.40833218282E+02 -0.54940835438E+02  0.90848663375E+02  0.00000000000E+00 0.  1.
         13    1    4    4    0    0 -0.18032574854E+01 -0.23745356148E+02 -0.61669946600E+02  0.66108062971E+02  0.00000000000E+00 0. -1.
         21    1    1    2  503  501 -0.93710826468E+01  0.12818055618E+03  0.18660019583E+03  0.22657825415E+03  0.00000000000E+00 0.  1.
          2    1    1    2  501    0 -0.17780722909E+03 -0.80853695827E+02 -0.49197046941E+03  0.52932756741E+03  0.00000000000E+00 0. -1.
<scales pt_clust_5="13000.00000" pt_clust_6="13000.00000" pt_clust_7="13000.00000" pt_clust_8="13000.00000" pt_clust_9="128.52265" pt_clust_10="13000.00000"></scales>
<clustering>
<clus scale="   85.964">  7  8 -1 -1</clus>
<clus scale="   93.014">  5  6 -1 -1</clus>
<clus scale="  128.523">  1  9  2 -1</clus>
<clus scale="  158.444">  2  5  1 -1</clus>
<clus scale="  109.395">  7 10 -1 -1</clus>
<clus scale="  128.523">  1  5  2 -1</clus>
</clustering>
</event>
<event>
10    2  0.4951045E-006  0.2688015E+03  0.7546771E-02  0.1123856E+00
         -3   -1    0    0    0  501 -0.00000000000E+00  0.00000000000E+00  0.37274819959E+03  0.37274819959E+03  0.00000000000E+00 0.  1.
         21   -1    0    0  503  502  0.00000000000E+00 -0.00000000000E+00 -0.15115127854E+03  0.15115127854E+03  0.00000000000E+00 0.  1.
         23    2    1    2    0    0 -0.17907906001E+02 -0.12849131740E+03  0.12322947698E+03  0.19920160412E+03  0.87550347462E+02 0.  0.
         23    2    1    2    0    0  0.19060600106E+02  0.88323587675E+02  0.17935173389E+03  0.21853661986E+03  0.86179157289E+02 0.  0.
        -11    1    4    4    0    0  0.35489712026E+02  0.14115806673E+01  0.63765770247E+02  0.72990312198E+02  0.00000000000E+00 0.  1.
         11    1    4    4    0    0 -0.16429111919E+02  0.86912007008E+02  0.11558596365E+03  0.14554630766E+03  0.00000000000E+00 0. -1.
        -11    1    3    3    0    0  0.24921327375E+02 -0.10825459167E+02  0.41732621333E+02  0.49798341415E+02  0.00000000000E+00 0. -1.
         11    1    3    3    0    0 -0.42829233376E+02 -0.11766585823E+03  0.81496855652E+02  0.14940326270E+03  0.00000000000E+00 0.  1.
         21    1    1    2  503  501  0.24163144166E+02  0.58439621794E+01 -0.20896458031E+02  0.32475704584E+02  0.00000000000E+00 0. -1.
         -3    1    1    2    0  502 -0.25315838271E+02  0.34323767548E+02 -0.60087831790E+02  0.73685549569E+02  0.00000000000E+00 0.  1.
<scales pt_clust_5="13000.00000" pt_clust_6="13000.00000" pt_clust_7="13000.00000" pt_clust_8="13000.00000" pt_clust_9="24.85980" pt_clust_10="13000.00000"></scales>
<clustering>
<clus scale="   24.860">  2  9  1 -1</clus>
<clus scale="   86.179">  5  6 -1 -1</clus>
<clus scale="   39.441">  5 10 -1 -1</clus>
<clus scale="   87.550">  7  8 -1 -1</clus>
<clus scale="  154.373">  1  7  2 -1</clus>
<clus scale="   24.860">  2  5  1 -1</clus>
</clustering>
</event>
<event>
10    2  0.4951045E-006  0.2760865E+03  0.7546771E-02  0.1134483E+00
         21   -1    0    0  501  502  0.00000000000E+00  0.00000000000E+00  0.18494113419E+03  0.18494113419E+03  0.00000000000E+00 0. -1.
          1   -1    0    0  503    0 -0.00000000000E+00 -0.00000000000E+00 -0.30344857246E+03  0.30344857246E+03  0.00000000000E+00 0. -1.
         23    2    1    2    0    0  0.16567518017E+02  0.63333715023E+02 -0.14279097577E+03  0.18141669081E+03  0.90758530344E+02 0.  0.
         23    2    1    2    0    0  0.79169366646E+02  0.57666408203E+02 -0.25908549538E+02  0.13528995872E+03  0.89660006362E+02 0.  0.
        -11    1    3    3    0    0  0.54310268480E+02  0.38743371778E+02 -0.80668289839E+02  0.10468059565E+03  0.00000000000E+00 0. -1.
         11    1    3    3    0    0 -0.37742750463E+02  0.24590343245E+02 -0.62122685932E+02  0.76736095163E+02  0.00000000000E+00 0.  1.
        -13    1    4    4    0    0  0.45594321447E+02  0.79546117428E+02 -0.25677525154E+02  0.95214296427E+02  0.00000000000E+00 0.  1.
         13    1    4    4    0    0  0.33575045199E+02 -0.21879709225E+02 -0.23102438454E+00  0.40075662292E+02  0.00000000000E+00 0. -1.
         21    1    1    2  503  502  0.11727650588E+01 -0.33784487875E+02  0.10104794530E+02  0.35282770177E+02  0.00000000000E+00 0. -1.
          1    1    1    2  501    0 -0.96909649722E+02 -0.87215635351E+02  0.40087292512E+02  0.13640028695E+03  0.00000000000E+00 0. -1.
<scales pt_clust_5="13000.00000" pt_clust_6="13000.00000" pt_clust_7="13000.00000" pt_clust_8="13000.00000" pt_clust_9="33.80484" pt_clust_10="13000.00000"></scales>
<clustering>
<clus scale="   33.805">  1  9  2 -1</clus>
<clus scale="   89.660">  7  8 -1 -1</clus>
<clus scale="   90.759">  5  6 -1 -1</clus>
<clus scale="  109.700">  2  5  1 -1</clus>
<clus scale="  119.438">  7 10 -1 -1</clus>
<clus scale="   33.805">  1  5  2 -1</clus>
</clustering>
</event>
<event>
10    2  0.4951045E-006  0.5067162E+03  0.7546771E-02  0.1022598E+00
          4   -1    0    0  503    0 -0.00000000000E+00  0.00000000000E+00  0.37390526913E+03  0.37390526913E+03  0.00000000000E+00 0. -1.
         21   -1    0    0  501  502  0.00000000000E+00 -0.00000000000E+00 -0.73922733181E+03  0.73922733181E+03  0.00000000000E+00 0. -1.
         23    2    1    2    0    0  0.13140897645E+03  0.33511647159E+03  0.11755294222E+03  0.38942729645E+03  0.90904105383E+02 0.  0.
         23    2    1    2    0    0 -0.20984585199E+03 -0.22428920977E+03 -0.40710209500E+03  0.51773473451E+03  0.89309620676E+02 0.  0.
        -11    1    3    3    0    0  0.49332516788E+02  0.23621607946E+03  0.60314863488E+02  0.24873603713E+03  0.00000000000E+00 0. -1.
         11    1    3    3    0    0  0.82076459658E+02  0.98900392131E+02  0.57238078731E+02  0.14069125933E+03  0.00000000000E+00 0.  1.
        -13    1    4    4    0    0 -0.40234242743E+02 -0.17941296046E+02 -0.22474345168E+02  0.49454833774E+02  0.00000000000E+00 0.  1.
         13    1    4    4    0    0 -0.16961160924E+03 -0.20634791372E+03 -0.38462774983E+03  0.46827990073E+03  0.00000000000E+00 0. -1.
         21    1    1    2  503  502 -0.36309124360E+02 -0.80898273575E+01 -0.10184022578E+02  0.38568278861E+02  0.00000000000E+00 0. -1.
          4    1    1    2  501    0  0.11474599990E+03 -0.10273743447E+03 -0.65588887314E+02  0.16740229112E+03  0.00000000000E+00 0. -1.
<scales pt_clust_5="13000.00000" pt_clust_6="13000.00000" pt_clust_7="13000.00000" pt_clust_8="13000.00000" pt_clust_9="37.19945" pt_clust_10="13000.00000"></scales>
<clustering>
<clus scale="   37.199">  2  9  1 -1</clus>
<clus scale="   89.310">  7  8 -1 -1</clus>
<clus scale="   90.904">  5  6 -1 -1</clus>
<clus scale="  150.570">  7 10 -1 -1</clus>
<clus scale="  367.477">  1  5  2 -1</clus>
<clus scale="   37.199">  2  5  1 -1</clus>
</clustering>
</event>
<event>
10    2  0.4951045E-006  0.2046377E+03  0.7546771E-02  0.1180080E+00
         21   -1    0    0  503  502  0.00000000000E+00  0.00000000000E+00  0.86299127648E+03  0.86299127648E+03  0.00000000000E+00 0. -1.
         -3   -1    0    0    0  501 -0.00000000000E+00 -0.00000000000E+00 -0.52846223328E+02  0.52846223328E+02  0.00000000000E+00 0.  1.
         23    2    1    2    0    0  0.20230995924E+02 -0.14616553284E+02  0.65344385465E+02  0.11427930776E+03  0.90371094070E+02 0.  0.
         23    2    1    2    0    0 -0.26164253108E+02  0.75583544987E+02  0.35971052633E+03  0.37958424692E+03  0.91077425018E+02 0.  0.
        -11    1    4    4    0    0  0.19709609832E+02 -0.11244942627E+02  0.57341751448E+02  0.61668419094E+02  0.00000000000E+00 0.  1.
         11    1    4    4    0    0 -0.45873862940E+02  0.86828487613E+02  0.30236877488E+03  0.31791582783E+03  0.00000000000E+00 0. -1.
        -13    1    3    3    0    0  0.38085628877E+02  0.27600495618E+02  0.40903410906E+02  0.62332908716E+02  0.00000000000E+00 0.  1.
         13    1    3    3    0    0 -0.17854632952E+02 -0.42217048902E+02  0.24440974559E+02  0.51946399041E+02  0.00000000000E+00 0. -1.
         21    1    1    2  503  501 -0.76688246457E+02 -0.26032559794E+02  0.21363783425E+03  0.22847298645E+03  0.00000000000E+00 0. -1.
         -3    1    1    2    0  502  0.82621503641E+02 -0.34934431909E+02  0.17145230711E+03  0.19350095868E+03  0.00000000000E+00 0.  1.
<scales pt_clust_5="13000.00000" pt_clust_6="13000.00000" pt_clust_7="13000.00000" pt_clust_8="13000.00000" pt_clust_9="80.98630" pt_clust_10="13000.00000"></scales>
<clustering>
<clus scale="   80.986">  1  9  2 -1</clus>
<clus scale="   90.371">  7  8 -1 -1</clus>
<clus scale="   91.077">  5  6 -1 -1</clus>
<clus scale="   74.105">  5 10 -1 -1</clus>
<clus scale="   92.685">  2  7  1 -1</clus>
<clus scale="   80.986">  1  5  2 -1</clus>
</clustering>
</event>
<event>
10    2  0.4951045E-006  0.3568836E+03  0.7546771E-02  0.1066871E+00
         21   -1    0    0  501  502  0.00000000000E+00  0.00000000000E+00  0.10920492833E+03  0.10920492833E+03  0.00000000000E+00 0.  1.
          2   -1    0    0  503    0 -0.00000000000E+00 -0.00000000000E+00 -0.12696908314E+04  0.12696908314E+04  0.00000000000E+00 0. -1.
         23    2    1    2    0    0  0.26905951251E+03 -0.76222212348E+02 -0.24838848494E+03  0.38518861066E+03  0.92035750678E+02 0.  0.
         23    2    1    2    0    0 -0.23002889186E+02  0.40448234611E+02 -0.38519413579E+03  0.39819296541E+03  0.89542854877E+02 0.  0.
        -11    1    3    3    0    0  0.17100826091E+03 -0.60409512396E+02 -0.21300095138E+03  0.27975442762E+03  0.00000000000E+00 0.  1.
         11    1    3    3    0    0  0.98051251601E+02 -0.15812699952E+02 -0.35387533559E+02  0.10543418303E+03  0.00000000000E+00 0. -1.
        -11    1    4    4    0    0  0.24761190347E+02  0.45120093127E+02 -0.16550754993E+03  0.17332538312E+03  0.00000000000E+00 0.  1.
         11    1    4    4    0    0 -0.47764079533E+02 -0.46718585155E+01 -0.21968658587E+03  0.22486758229E+03  0.00000000000E+00 0. -1.
         21    1    1    2  503  502 -0.86241316401E+01 -0.22070656302E+02 -0.14397261951E+02  0.27726713975E+02  0.00000000000E+00 0.  1.
          2    1    1    2  501    0 -0.23743249168E+03  0.57844634039E+02 -0.51250602037E+03  0.56778746966E+03  0.00000000000E+00 0. -1.
<scales pt_clust_5="13000.00000" pt_clust_6="13000.00000" pt_clust_7="13000.00000" pt_clust_8="13000.00000" pt_clust_9="23.69577" pt_clust_10="13000.00000"></scales>
<clustering>
<clus scale="   23.696">  1  9  2 -1</clus>
<clus scale="   89.543">  7  8 -1 -1</clus>
<clus scale="   92.036">  5  6 -1 -1</clus>
<clus scale="  245.309">  7 10 -1 -1</clus>
<clus scale="  293.380">  2  5  1 -1</clus>
<clus scale="   23.696">  1  5  2 -1</clus>
</clustering>
</event>
<event>
10    2  0.4951045E-006  0.4058007E+03  0.7546771E-02  0.1088237E+00
          1   -1    0    0  503    0 -0.00000000000E+00  0.00000000000E+00  0.59921859504E+03  0.59921859504E+03  0.00000000000E+00 0. -1.
         21   -1    0    0  501  502  0.00000000000E+00 -0.00000000000E+00 -0.64094944781E+03  0.64094944781E+03  0.00000000000E+00 0. -1.
         23    2    1    2    0    0  0.53271262150E+02  0.37149651640E+02  0.43028038443E+03  0.44459978883E+03  0.91158318371E+02 0.  0.
         23    2    1    2    0    0 -0.30447016225E+02  0.16553910641E+02  0.45699118134E+02  0.10777950620E+03  0.91252176983E+02 0.  0.
        -11    1    3    3    0    0  0.36268544575E+02 -0.26371891325E+02  0.14188864286E+03  0.14880615226E+03  0.00000000000E+00 0.  1.
         11    1    3    3    0    0  0.17002717575E+02  0.63521542965E+02  0.28839174157E+03  0.29579363657E+03  0.00000000000E+00 0. -1.
        -13    1    4    4    0    0 -0.35605238601E+02 -0.25457854706E+02  0.48535980881E+02  0.65357301215E+02  0.00000000000E+00 0.  1.
         13    1    4    4    0    0  0.51582223764E+01  0.42011765346E+02 -0.28368627468E+01  0.42422204986E+02  0.00000000000E+00 0. -1.
         21    1    1    2  503  502  0.14965805330E+03  0.13129478532E+03 -0.20806482528E+03  0.28797018090E+03  0.00000000000E+00 0. -1.
          1    1    1    2  501    0 -0.17248229923E+03 -0.18499834760E+03 -0.30964553006E+03  0.39981856691E+03  0.00000000000E+00 0. -1.
<scales pt_clust_5="13000.00000" pt_clust_6="13000.00000" pt_clust_7="13000.00000" pt_clust_8="13000.00000" pt_clust_9="215.03480" pt_clust_10="13000.00000"></scales>
<clustering>
<clus scale="   91.158">  5  6 -1 -1</clus>
<clus scale="   91.252">  7  8 -1 -1</clus>
<clus scale="  111.927">  1  5  2 -1</clus>
<clus scale="  215.035">  2  9  1 -1</clus>
<clus scale="   51.394">  7 10 -1 -1</clus>
<clus scale="  215.035">  2  5  1 -1</clus>
</clustering>
</event>
<event>
10    2  0.4951045E-006  0.3514159E+03  0.7546771E-02  0.1091230E+00
         21   -1    0    0  503  502  0.00000000000E+00  0.00000000000E+00  0.40195279931E+03  0.40195279931E+03  0.00000000000E+00 0.  1.
          3   -1    0    0  502    0 -0.00000000000E+00 -0.00000000000E+00 -0.52528687557E+03  0.52528687557E+03  0.00000000000E+00 0. -1.
         23    2    1    2    0    0 -0.60317655345E+02 -0.50258831109E+02  0.39704975302E+02  0.12820657712E+03  0.93253802619E+02 0.  0.
         23    2    1    2    0    0 -0.40323653643E+02 -0.37582370552E+02 -0.24980365071E+03  0.27203082845E+03  0.92522840966E+02 0.  0.
        -11    1    4    4    0    0  0.21307795581E+02 -0.15992550990E+02 -0.15272679459E+03  0.15503308558E+03  0.00000000000E+00 0.  1.
         11    1    4    4    0    0 -0.61631449224E+02 -0.21589819562E+02 -0.97076856122E+02  0.11699774287E+03  0.00000000000E+00 0. -1.
        -11    1    3    3    0    0 -0.61881006576E+02 -0.27269692860E+01  0.49933354877E+02  0.79561518749E+02  0.00000000000E+00 0.  1.
         11    1    3    3    0    0  0.15633512309E+01 -0.47531861823E+02 -0.10228379575E+02  0.48645058373E+02  0.00000000000E+00 0. -1.
         21    1    1    2  503  501 -0.88180359329E+02 -0.39142243800E+02  0.23594780073E+03  0.25491028949E+03  0.00000000000E+00 0.  1.
          3    1    1    2  501    0  0.18882166832E+03  0.12698344546E+03 -0.14918320158E+03  0.27209197982E+03  0.00000000000E+00 0. -1.
<scales pt_clust_5="13000.00000" pt_clust_6="13000.00000" pt_clust_7="13000.00000" pt_clust_8="13000.00000" pt_clust_9="96.47741" pt_clust_10="13000.00000"></scales>
<clustering>
<clus scale="   92.523">  5  6 -1 -1</clus>
<clus scale="   93.254">  7  8 -1 -1</clus>
<clus scale="   96.477">  1  9  2 -1</clus>
<clus scale="  159.231">  2  7  1 -1</clus>
<clus scale="  145.007">  5 10 -1 -1</clus>
<clus scale="   96.477">  1  5  2 -1</clus>
</clustering>
</event>
<event>
10    2  0.4951045E-006  0.2294102E+03  0.7546771E-02  0.1129236E+00
         21   -1    0    0  501  502  0.00000000000E+00  0.00000000000E+00  0.31508993732E+03  0.31508993732E+03  0.00000000000E+00 0.  1.
         -1   -1    0    0    0  501 -0.00000000000E+00 -0.00000000000E+00 -0.20904479781E+03  0.20904479781E+03  0.00000000000E+00 0.  1.
         23    2    1    2    0    0 -0.19912341509E+03  0.29117041972E+02 -0.47448032462E+02  0.22585814569E+03  0.90899117802E+02 0.  0.
         23    2    1    2    0    0  0.11827728482E+03  0.63362112790E+01  0.64028801093E+02  0.16217802586E+03  0.90401111850E+02 0.  0.
        -11    1    4    4    0    0  0.53990950540E+02 -0.40087160600E+02  0.14837653977E+02  0.68863336840E+02  0.00000000000E+00 0. -1.
         11    1    4    4    0    0  0.64286334277E+02  0.46423371879E+02  0.49191147115E+02  0.93314689015E+02  0.00000000000E+00 0.  1.
        -13    1    3    3    0    0 -0.15643091894E+03  0.54942803443E+02 -0.15302768957E+02  0.16650381013E+03  0.00000000000E+00 0.  1.
         13    1    3    3    0    0 -0.42692496152E+02 -0.25825761472E+02 -0.32145263505E+02  0.59354335555E+02  0.00000000000E+00 0. -1.
         21    1    1    2  503  502  0.82819945597E+01 -0.26397861393E+02  0.36525154860E+02  0.45820578974E+02  0.00000000000E+00 0.  1.
         -1    1    1    2    0  503  0.72564135717E+02 -0.90553918581E+01  0.52939216013E+02  0.90277984615E+02  0.00000000000E+00 0.  1.
<scales pt_clust_5="13000.00000" pt_clust_6="13000.00000" pt_clust_7="13000.00000" pt_clust_8="13000.00000" pt_clust_9="27.66656" pt_clust_10="13000.00000"></scales>
<clustering>
<clus scale="   27.667">  1  9  2 -1</clus>
<clus scale="   90.401">  5  6 -1 -1</clus>
<clus scale="   76.414">  5 10 -1 -1</clus>
<clus scale="   90.899">  7  8 -1 -1</clus>
<clus scale="  217.410">  2  7  1 -1</clus>
<clus scale="   27.667">  1  5  2 -1</clus>
</clustering>
</event>
<event>
10    2  0.4951045E-006  0.2749320E+03  0.7546771E-02  0.1136616E+00
         -2   -1    0    0    0  501 -0.00000000000E+00  0.00000000000E+00  0.78529745287E+02  0.78529745287E+02  0.00000000000E+00 0.  1.
         21   -1    0    0  503  502  0.00000000000E+00 -0.00000000000E+00 -0.88413789058E+03  0.88413789058E+03  0.00000000000E+00 0. -1.
         23    2    1    2    0    0 -0.38544972127E+02  0.20558441890E+02 -0.48137242270E+02  0.11193425413E+03  0.91124742776E+02 0.  0.
         23    2    1    2    0    0  0.40995545820E+02 -0.33802090581E+02 -0.48553354802E+02  0.12043160915E+03  0.96556346845E+02 0.  0.
        -11    1    3    3    0    0 -0.12798560699E+02  0.45357926047E+02 -0.58112283981E+02  0.74821000800E+02  0.00000000000E+00 0.  1.
         11    1    3    3    0    0 -0.25746411429E+02 -0.24799484156E+02  0.99750417113E+01  0.37113253334E+02  0.00000000000E+00 0. -1.
        -11    1    4    4    0    0  0.54625600714E+02 -0.15795279179E+02  0.99439041246E+01  0.57726322652E+02  0.00000000000E+00 0.  1.
         11    1    4    4    0    0 -0.13630054894E+02 -0.18006811402E+02 -0.58497258927E+02  0.62705286502E+02  0.00000000000E+00 0. -1.
         21    1    1    2  503  501 -0.83688052860E+02 -0.18344710493E+01 -0.24046209800E+03  0.25461554558E+03  0.00000000000E+00 0. -1.
         -2    1    1    2    0  502  0.81237479167E+02  0.15078119740E+02 -0.46845545023E+03  0.47568622700E+03  0.00000000000E+00 0.  1.
<scales pt_clust_5="13000.00000" pt_clust_6="13000.00000" pt_clust_7="13000.00000" pt_clust_8="13000.00000" pt_clust_9="83.70816" pt_clust_10="13000.00000"></scales>
<clustering>
<clus scale="   83.708">  2  9  1 -1</clus>
<clus scale="   91.125">  5  6 -1 -1</clus>
<clus scale="   96.556">  7  8 -1 -1</clus>
<clus scale="   23.579">  7 10 -1 -1</clus>
<clus scale="  105.473">  1  5  2 -1</clus>
<clus scale="   83.708">  2  5  1 -1</clus>
</clustering>
</event>
<event>
10    2  0.4951045E-006  0.1932397E+03  0.7546771E-02  0.1181134E+00
         21   -1    0    0  501  502  0.00000000000E+00  0.00000000000E+00  0.40954382414E+03  0.40954382414E+03  0.00000000000E+00 0.  1.
          1   -1    0    0  503    0 -0.00000000000E+00 -0.00000000000E+00 -0.16878403765E+03  0.16878403765E+03  0.00000000000E+00 0. -1.
         23    2    1    2    0    0 -0.45824500618E+02 -0.81140206477E+02  0.68455554965E+00  0.12939113382E+03  0.89766246060E+02 0.  0.
         23    2    1    2    0    0 -0.51468410429E+01  0.72335180469E+02  0.23644390642E+02  0.12043117934E+03  0.93197336027E+02 0.  0.
        -11    1    4    4    0    0 -0.31561808342E+02  0.74237804320E+02 -0.57412926332E+01  0.80872503221E+02  0.00000000000E+00 0.  1.
         11    1    4    4    0    0  0.26414967299E+02 -0.19026238506E+01  0.29385683275E+02  0.39558676121E+02  0.00000000000E+00 0. -1.
        -13    1    3    3    0    0  0.35002540802E+01 -0.39797404889E+02  0.37881698795E+02  0.55055502160E+02  0.00000000000E+00 0.  1.
         13    1    3    3    0    0 -0.49324754699E+02 -0.41342801588E+02 -0.37197143245E+02  0.74335631664E+02  0.00000000000E+00 0. -1.
         21    1    1    2  503  502  0.10752673938E+03  0.59065774099E+02  0.22093368114E+03  0.25271022301E+03  0.00000000000E+00 0.  1.
          1    1    1    2  501    0 -0.56555397720E+02 -0.50260748091E+02 -0.45028408447E+01  0.75795325618E+02  0.00000000000E+00 0. -1.
<scales pt_clust_5="13000.00000" pt_clust_6="13000.00000" pt_clust_7="13000.00000" pt_clust_8="13000.00000" pt_clust_9="122.68156" pt_clust_10="13000.00000"></scales>
<clustering>
<clus scale="   89.766">  7  8 -1 -1</clus>
<clus scale="   93.197">  5  6 -1 -1</clus>
<clus scale="   75.661">  5 10 -1 -1</clus>
<clus scale="  122.682">  1  9  2 -1</clus>
<clus scale="  107.497">  2  7  1 -1</clus>
<clus scale="  122.682">  1  5  2 -1</clus>
</clustering>
</event>
<event>
10    2  0.6029450E-006  0.3327970E+03  0.7546771E-02  0.1117449E+00
          2   -1    0    0  502    0 -0.00000000000E+00  0.00000000000E+00  0.16083964428E+03  0.16083964428E+03  0.00000000000E+00 0. -1.
         21   -1    0    0  503  502  0.00000000000E+00 -0.00000000000E+00 -0.70778339123E+03  0.70778339123E+03  0.00000000000E+00 0.  1.
         23    2    1    2    0    0  0.46161520067E+02  0.36957445515E+01 -0.30385534170E+03  0.32068272415E+03  0.91459261012E+02 0.  0.
         23    2    1    2    0    0 -0.12370752629E+01  0.46040300814E+02  0.13155086160E+03  0.16624113205E+03  0.90604884765E+02 0.  0.
        -11    1    4    4    0    0 -0.17304725703E+02  0.29275593808E+02  0.13801008429E+03  0.14213830339E+03  0.00000000000E+00 0. -1.
         11    1    4    4    0    0  0.16067650441E+02  0.16764707006E+02 -0.64592226906E+01  0.24102828660E+02  0.00000000000E+00 0.  1.
        -13    1    3    3    0    0 -0.20823498985E+01  0.36089875735E+02 -0.60429645015E+02  0.70417024279E+02  0.00000000000E+00 0. -1.
         13    1    3    3    0    0  0.48243869965E+02 -0.32394131184E+02 -0.24342569669E+03  0.25026569987E+03  0.00000000000E+00 0.  1.
         21    1    1    2  503  501 -0.30700991313E+02 -0.14606690167E+02 -0.21151829382E+03  0.21423327213E+03  0.00000000000E+00 0.  1.
          2    1    1    2  501    0 -0.14223453491E+02 -0.35129355198E+02 -0.16312097303E+03  0.16746590718E+03  0.00000000000E+00 0. -1.
<scales pt_clust_5="13000.00000" pt_clust_6="13000.00000" pt_clust_7="13000.00000" pt_clust_8="13000.00000" pt_clust_9="33.99862" pt_clust_10="13000.00000"></scales>
<clustering>
<clus scale="   33.999">  2  9  1 -1</clus>
<clus scale="   90.605">  5  6 -1 -1</clus>
<clus scale="   46.902">  5 10 -1 -1</clus>
<clus scale="   91.459">  7  8 -1 -1</clus>
<clus scale="   95.462">  1  7  2 -1</clus>
<clus scale="   33.999">  2  5  1 -1</clus>
</clustering>
</event>
<event>
10    2  0.4951045E-006  0.2062768E+03  0.7546771E-02  0.1171191E+00
          2   -1    0    0  503    0 -0.00000000000E+00  0.00000000000E+00  0.96388074585E+02  0.96388074585E+02  0.00000000000E+00 0. -1.
         21   -1    0    0  501  502  0.00000000000E+00 -0.00000000000E+00 -0.51759401605E+03  0.51759401605E+03  0.00000000000E+00 0. -1.
         23    2    1    2    0    0  0.27143480321E+02  0.70921393095E+02 -0.10090657570E+02  0.11785597947E+03  0.89563374231E+02 0.  0.
         23    2    1    2    0    0 -0.32129401759E+01 -0.63647708474E+02 -0.20822272310E+03  0.23597714566E+03  0.90923908178E+02 0.  0.
        -11    1    4    4    0    0 -0.46512341519E+02 -0.35280865717E+02 -0.12515140184E+03  0.13809783047E+03  0.00000000000E+00 0.  1.
         11    1    4    4    0    0  0.43299401343E+02 -0.28366842757E+02 -0.83071321266E+02  0.97879315188E+02  0.00000000000E+00 0. -1.
        -13    1    3    3    0    0  0.49028089976E+02  0.31247714010E+02  0.22183043293E+02  0.62227491089E+02  0.00000000000E+00 0. -1.
         13    1    3    3    0    0 -0.21884609654E+02  0.39673679085E+02 -0.32273700864E+02  0.55628488379E+02  0.00000000000E+00 0.  1.
         21    1    1    2  503  502  0.10230505811E+02 -0.68154225860E+02 -0.16907054479E+03  0.18257741061E+03  0.00000000000E+00 0. -1.
          2    1    1    2  501    0 -0.34161045957E+02  0.60880541239E+02 -0.33822016007E+02  0.77571554897E+02  0.00000000000E+00 0. -1.
<scales pt_clust_5="13000.00000" pt_clust_6="13000.00000" pt_clust_7="13000.00000" pt_clust_8="13000.00000" pt_clust_9="68.91779" pt_clust_10="13000.00000"></scales>
<clustering>
<clus scale="   68.918">  2  9  1 -1</clus>
<clus scale="   89.563">  7  8 -1 -1</clus>
<clus scale="   90.924">  5  6 -1 -1</clus>
<clus scale="   59.441">  5 10 -1 -1</clus>
<clus scale="  110.675">  1  7  2 -1</clus>
<clus scale="   68.918">  2  5  1 -1</clus>
</clustering>
</event>
<event>
10    2  0.4951045E-006  0.3311761E+03  0.7546771E-02  0.1077097E+00
         21   -1    0    0  501  502  0.00000000000E+00  0.00000000000E+00  0.28410651969E+03  0.28410651969E+03  0.00000000000E+00 0. -1.
         -1   -1    0    0    0  501 -0.00000000000E+00 -0.00000000000E+00 -0.61508869239E+03  0.61508869239E+03  0.00000000000E+00 0.  1.
         23    2    1    2    0    0 -0.13293985776E+03 -0.23732457038E+03 -0.16928567913E+03  0.33390733282E+03  0.94023977093E+02 0.  0.
         23    2    1    2    0    0  0.43302166084E+02  0.92724309345E+01 -0.12318918100E+03  0.16010603500E+03  0.92180868755E+02 0.  0.
        -13    1    3    3    0    0  0.93053584864E+01 -0.58882171907E+02 -0.35064475293E+02  0.69160807490E+02  0.00000000000E+00 0.  1.
         13    1    3    3    0    0 -0.14224521624E+03 -0.17844239847E+03 -0.13422120384E+03  0.26474652533E+03  0.00000000000E+00 0. -1.
        -13    1    4    4    0    0  0.24268906895E+02  0.40745848195E+02 -0.11205305556E+03  0.12167617370E+03  0.00000000000E+00 0.  1.
         13    1    4    4    0    0  0.19033259189E+02 -0.31473417260E+02 -0.11136125442E+02  0.38429861296E+02  0.00000000000E+00 0. -1.
         21    1    1    2  503  502 -0.74690027836E+02  0.78514486973E+02  0.96577973020E+02  0.14515656993E+03  0.00000000000E+00 0. -1.
         -1    1    1    2    0  503  0.16432771951E+03  0.14953765247E+03 -0.13508528559E+03  0.26002527433E+03  0.00000000000E+00 0.  1.
<scales pt_clust_5="13000.00000" pt_clust_6="13000.00000" pt_clust_7="13000.00000" pt_clust_8="13000.00000" pt_clust_9="108.36570" pt_clust_10="13000.00000"></scales>
<clustering>
<clus scale="   92.181">  7  8 -1 -1</clus>
<clus scale="   94.024">  5  6 -1 -1</clus>
<clus scale="  108.366">  1  9  2 -1</clus>
<clus scale="  225.116">  7 10 -1 -1</clus>
<clus scale="  277.569">  2  5  1 -1</clus>
<clus scale="  108.366">  1  5  2 -1</clus>
</clustering>
</event>
<event>
10    2  0.4951045E-006  0.2160198E+03  0.7546771E-02  0.1150457E+00
         -2   -1    0    0    0  501 -0.00000000000E+00  0.00000000000E+00  0.21541983818E+03  0.21541983818E+03  0.00000000000E+00 0.  1.
         21   -1    0    0  501  502  0.00000000000E+00 -0.00000000000E+00 -0.20112457447E+03  0.20112457447E+03  0.00000000000E+00 0.  1.
         23    2    1    2    0    0 -0.34081192394E+02 -0.11712910438E+03  0.66275413853E+02  0.16671993935E+03  0.92316590757E+02 0.  0.
         23    2    1    2    0    0  0.74463893532E+02  0.37820397379E+02  0.72717608823E+01  0.12318523060E+03  0.90257789874E+02 0.  0.
        -13    1    4    4    0    0  0.21150129806E+01  0.38181784599E+02  0.28605581242E+02  0.47755640853E+02  0.00000000000E+00 0. -1.
         13    1    4    4    0    0  0.72348880552E+02 -0.36138722060E+00 -0.21333820359E+02  0.75429589744E+02  0.00000000000E+00 0.  1.
        -13    1    3    3    0    0 -0.47292403779E+02 -0.15306952556E+02  0.28612413048E+02  0.57354550231E+02  0.00000000000E+00 0. -1.
         13    1    3    3    0    0  0.13211211385E+02 -0.10182215182E+03  0.37663000806E+02  0.10936538912E+03  0.00000000000E+00 0.  1.
         21    1    1    2  503  502 -0.19460110353E+02 -0.87131883882E+01 -0.89735562445E+01  0.23133098766E+02  0.00000000000E+00 0.  1.
         -2    1    1    2    0  503 -0.20922590785E+02  0.88021895391E+02 -0.50278354773E+02  0.10350614393E+03  0.00000000000E+00 0.  1.
<scales pt_clust_5="13000.00000" pt_clust_6="13000.00000" pt_clust_7="13000.00000" pt_clust_8="13000.00000" pt_clust_9="21.32172" pt_clust_10="13000.00000"></scales>
<clustering>
<clus scale="   21.322">  2  9  1 -1</clus>
<clus scale="   90.258">  5  6 -1 -1</clus>
<clus scale="   89.248">  5 10 -1 -1</clus>
<clus scale="   92.317">  7  8 -1 -1</clus>
<clus scale="  156.046">  1  7  2 -1</clus>
<clus scale="   21.322">  2  5  1 -1</clus>
</clustering>
</event>
<event>
10    2  0.4951045E-006  0.1955262E+03  0.7546771E-02  0.1162227E+00
          2   -1    0    0  503    0 -0.00000000000E+00  0.00000000000E+00  0.51854796566E+03  0.51854796566E+03  0.00000000000E+00 0. -1.
         21   -1    0    0  501  502  0.00000000000E+00 -0.00000000000E+00 -0.12697788751E+03  0.12697788751E+03  0.00000000000E+00 0. -1.
         23    2    1    2    0    0 -0.38346647567E+02  0.10026422354E+03  0.90655481461E+02  0.16963592376E+03  0.95050252015E+02 0.  0.
         23    2    1    2    0    0  0.91261961174E+02 -0.98667859529E+02  0.29350670220E+03  0.33507090103E+03  0.89789934932E+02 0.  0.
        -11    1    4    4    0    0  0.25254669010E+02 -0.86237202169E+02  0.12743561879E+03  0.15593104335E+03  0.00000000000E+00 0.  1.
         11    1    4    4    0    0  0.66007292163E+02 -0.12430657360E+02  0.16607108342E+03  0.17913985768E+03  0.00000000000E+00 0. -1.
        -11    1    3    3    0    0  0.12342290060E+02  0.90040713469E+02  0.49101173043E+02  0.10329853532E+03  0.00000000000E+00 0. -1.
         11    1    3    3    0    0 -0.50688937627E+02  0.10223510070E+02  0.41554308418E+02  0.66337388432E+02  0.00000000000E+00 0.  1.
         21    1    1    2  503  502 -0.22676192379E+02  0.29260705213E+02 -0.54161369847E+02  0.65603754116E+02  0.00000000000E+00 0. -1.
          2    1    1    2  501    0 -0.30239121227E+02 -0.30857069224E+02  0.61569264325E+02  0.75215274268E+02  0.00000000000E+00 0. -1.
<scales pt_clust_5="13000.00000" pt_clust_6="13000.00000" pt_clust_7="13000.00000" pt_clust_8="13000.00000" pt_clust_9="37.01889" pt_clust_10="13000.00000"></scales>
<clustering>
<clus scale="   37.019">  2  9  1 -1</clus>
<clus scale="   89.790">  5  6 -1 -1</clus>
<clus scale="   42.855">  5 10 -1 -1</clus>
<clus scale="   95.050">  7  8 -1 -1</clus>
<clus scale="  159.718">  1  7  2 -1</clus>
<clus scale="   37.019">  2  5  1 -1</clus>
</clustering>
</event>
<event>
10    2  0.4951045E-006  0.1644135E+03  0.7546771E-02  0.1201097E+00
          1   -1    0    0  503    0 -0.00000000000E+00  0.00000000000E+00  0.67762253694E+03  0.67762253694E+03  0.00000000000E+00 0. -1.
         21   -1    0    0  501  502  0.00000000000E+00 -0.00000000000E+00 -0.47894185588E+02  0.47894185588E+02  0.00000000000E+00 0.  1.
         23    2    1    2    0    0  0.65130233370E+02 -0.19532225330E+02  0.42590611013E+03  0.44098646404E+03  0.91921660667E+02 0.  0.
         23    2    1    2    0    0 -0.56042873713E+02 -0.49582573934E+01  0.20347614417E+03  0.22917556748E+03  0.89182461687E+02 0.  0.
        -11    1    3    3    0    0  0.16202832933E+02  0.23120483457E+02  0.36179967981E+02  0.45892032352E+02  0.00000000000E+00 0.  1.
         11    1    3    3    0    0  0.48927400438E+02 -0.42652708787E+02  0.38972614215E+03  0.39509443169E+03  0.00000000000E+00 0. -1.
        -11    1    4    4    0    0  0.17233104570E+02 -0.23201541251E+02  0.71550724323E+02  0.77167334803E+02  0.00000000000E+00 0. -1.
         11    1    4    4    0    0 -0.73275978283E+02  0.18243283858E+02  0.13192541985E+03  0.15200823267E+03  0.00000000000E+00 0.  1.
         21    1    1    2  503  502 -0.18820070501E+02 -0.79332555952E+01 -0.51385261758E+01  0.21060295565E+02  0.00000000000E+00 0.  1.
          1    1    1    2  501    0  0.97327108441E+01  0.32423738319E+02  0.54846232337E+01  0.34294395445E+02  0.00000000000E+00 0. -1.
<scales pt_clust_5="13000.00000" pt_clust_6="13000.00000" pt_clust_7="13000.00000" pt_clust_8="13000.00000" pt_clust_9="20.42380" pt_clust_10="13000.00000"></scales>
<clustering>
<clus scale="   20.424">  2  9  1 -1</clus>
<clus scale="   89.182">  7  8 -1 -1</clus>
<clus scale="   29.204">  7 10 -1 -1</clus>
<clus scale="   91.922">  5  6 -1 -1</clus>
<clus scale="  112.377">  1  5  2 -1</clus>
<clus scale="   20.424">  2  5  1 -1</clus>
</clustering>
</event>
<event>
10    2  0.4951045E-006  0.5240040E+03  0.7546771E-02  0.1033836E+00
         21   -1    0    0  501  502  0.00000000000E+00  0.00000000000E+00  0.41089166914E+03  0.41089166914E+03  0.00000000000E+00 0.  1.
          2   -1    0    0  503    0 -0.00000000000E+00 -0.00000000000E+00 -0.13844349481E+04  0.13844349481E+04  0.00000000000E+00 0. -1.
         23    2    1    2    0    0 -0.15248234777E+03  0.11902645879E+03 -0.17256876129E+03  0.27460178788E+03  0.90598014667E+02 0.  0.
         23    2    1    2    0    0  0.30650016082E+03 -0.48999887972E+02 -0.54431291363E+03  0.63297184234E+03  0.89629613682E+02 0.  0.
        -13    1    3    3    0    0 -0.44365679573E+02  0.90527723000E+02 -0.68752966728E+02  0.12202685192E+03  0.00000000000E+00 0.  1.
         13    1    3    3    0    0 -0.10811666820E+03  0.28498735793E+02 -0.10381579456E+03  0.15257493596E+03  0.00000000000E+00 0. -1.
        -13    1    4    4    0    0  0.10313402939E+03  0.12693664558E+02 -0.12241170618E+03  0.16056893519E+03  0.00000000000E+00 0.  1.
         13    1    4    4    0    0  0.20336613142E+03 -0.61693552530E+02 -0.42190120745E+03  0.47240290715E+03  0.00000000000E+00 0. -1.
         21    1    1    2  503  502 -0.10348997198E+02  0.77688664060E+02  0.29165162585E+03  0.30199884292E+03  0.00000000000E+00 0.  1.
          2    1    1    2  501    0 -0.14366881584E+03 -0.14771523488E+03 -0.54831322984E+03  0.58575414406E+03  0.00000000000E+00 0. -1.
<scales pt_clust_5="13000.00000" pt_clust_6="13000.00000" pt_clust_7="13000.00000" pt_clust_8="13000.00000" pt_clust_9="78.37493" pt_clust_10="13000.00000"></scales>
<clustering>
<clus scale="   78.375">  1  9  2 -1</clus>
<clus scale="   89.630">  7  8 -1 -1</clus>
<clus scale="   90.598">  5  6 -1 -1</clus>
<clus scale="  198.361">  7 10 -1 -1</clus>
<clus scale="  237.777">  2  5  1 -1</clus>
<clus scale="   78.375">  1  5  2 -1</clus>
</clustering>
</event>
<event>
10    2  0.4951045E-006  0.2192767E+03  0.7546771E-02  0.1169188E+00
          1   -1    0    0  503    0 -0.00000000000E+00  0.00000000000E+00  0.16868406172E+03  0.16868406172E+03  0.00000000000E+00 0. -1.
         21   -1    0    0  501  502  0.00000000000E+00 -0.00000000000E+00 -0.40370415167E+03  0.40370415167E+03  0.00000000000E+00 0. -1.
         23    2    1    2    0    0  0.36840730669E+02  0.72230528340E+01 -0.10818095949E+03  0.14493541775E+03  0.88846741048E+02 0.  0.
         23    2    1    2    0    0  0.42959699213E+01 -0.13139613536E+03  0.71958388964E+02  0.17569819523E+03  0.91697580767E+02 0.  0.
        -11    1    3    3    0    0 -0.15856206194E+01  0.33925688221E+02 -0.87924644629E+01  0.35082387966E+02  0.00000000000E+00 0.  1.
         11    1    3    3    0    0  0.38426351288E+02 -0.26702635387E+02 -0.99388495028E+02  0.10985302979E+03  0.00000000000E+00 0. -1.
        -13    1    4    4    0    0 -0.21985547005E+02 -0.10385656031E+03  0.84430549223E+02  0.13563947449E+03  0.00000000000E+00 0. -1.
         13    1    4    4    0    0  0.26281516927E+02 -0.27539575055E+02 -0.12472160260E+02  0.40058720745E+02  0.00000000000E+00 0.  1.
         21    1    1    2  503  502 -0.56345954985E+02  0.85442210217E+02 -0.17778292006E+03  0.20513898848E+03  0.00000000000E+00 0. -1.
          1    1    1    2  501    0  0.15209254394E+02  0.38730872313E+02 -0.21014599357E+02  0.46615611929E+02  0.00000000000E+00 0. -1.
<scales pt_clust_5="13000.00000" pt_clust_6="13000.00000" pt_clust_7="13000.00000" pt_clust_8="13000.00000" pt_clust_9="101.10108" pt_clust_10="13000.00000"></scales>
<clustering>
<clus scale="   88.847">  5  6 -1 -1</clus>
<clus scale="   91.698">  7  8 -1 -1</clus>
<clus scale="   41.610">  7 10 -1 -1</clus>
<clus scale="   96.453">  1  5  2 -1</clus>
<clus scale="  101.101">  2  9  1 -1</clus>
<clus scale="  101.101">  2  5  1 -1</clus>
</clustering>
</event>
<event>
10    2  0.4951045E-006  0.1419248E+03  0.7546771E-02  0.1229055E+00
          1   -1    0    0  503    0 -0.00000000000E+00  0.00000000000E+00  0.19503152719E+03  0.19503152719E+03  0.00000000000E+00 0. -1.
         21   -1    0    0  501  502  0.00000000000E+00 -0.00000000000E+00 -0.14857579028E+03  0.14857579028E+03  0.00000000000E+00 0.  1.
         23    2    1    2    0    0 -0.28258133293E+02 -0.53896184603E+01  0.19009768937E+02  0.95181801417E+02  0.88716593270E+02 0.  0.
         23    2    1    2    0    0 -0.19250360245E+01 -0.55747980117E+01  0.48351688656E+02  0.10223601374E+03  0.89886220146E+02 0.  0.
        -11    1    3    3    0    0  0.68904991649E+01  0.35035246324E+02  0.21277226043E+02  0.41565223586E+02  0.00000000000E+00 0. -1.
         11    1    3    3    0    0 -0.35148632458E+02 -0.40424864784E+02 -0.22674571058E+01  0.53616577830E+02  0.00000000000E+00 0.  1.
        -13    1    4    4    0    0  0.20188679706E+02 -0.29345742545E+02 -0.86335938333E+01  0.36650980018E+02  0.00000000000E+00 0.  1.
         13    1    4    4    0    0 -0.22113715731E+02  0.23770944533E+02  0.56985282489E+02  0.65585033718E+02  0.00000000000E+00 0. -1.
         21    1    1    2  503  502 -0.14715524858E+02 -0.18138291334E+02 -0.69864166807E+02  0.73665094095E+02  0.00000000000E+00 0.  1.
          1    1    1    2  501    0  0.44898694176E+02  0.29102707806E+02  0.48958446122E+02  0.72524408215E+02  0.00000000000E+00 0. -1.
<scales pt_clust_5="13000.00000" pt_clust_6="13000.00000" pt_clust_7="13000.00000" pt_clust_8="13000.00000" pt_clust_9="23.35689" pt_clust_10="13000.00000"></scales>
<clustering>
<clus scale="   23.357">  2  9  1 -1</clus>
<clus scale="   88.717">  5  6 -1 -1</clus>
<clus scale="   89.886">  7  8 -1 -1</clus>
<clus scale="   50.110">  7 10 -1 -1</clus>
<clus scale="   96.652">  1  5  2 -1</clus>
<clus scale="   23.357">  2  5  1 -1</clus>
</clustering>
</event>
<event>
10    2  0.4951045E-006  0.3413775E+03  0.7546771E-02  0.1087237E+00
          1   -1    0    0  502    0 -0.00000000000E+00  0.00000000000E+00  0.45066351463E+03  0.45066351463E+03  0.00000000000E+00 0. -1.
         21   -1    0    0  503  502  0.00000000000E+00 -0.00000000000E+00 -0.27395097109E+03  0.27395097109E+03  0.00000000000E+00 0.  1.
         23    2    1    2    0    0  0.10732020252E+03  0.17936427318E+03  0.10491277045E+03  0.25116782616E+03  0.91593772356E+02 0.  0.
         23    2    1    2    0    0 -0.59014436347E+02 -0.17904410076E+02  0.21149909376E+03  0.23883349492E+03  0.92229604994E+02 0.  0.
        -11    1    3    3    0    0  0.78837869058E+02  0.17099671057E+03  0.60555571486E+02  0.19779348286E+03  0.00000000000E+00 0.  1.
         11    1    3    3    0    0  0.28482333463E+02  0.83675626101E+01  0.44357198962E+02  0.53374343306E+02  0.00000000000E+00 0. -1.
        -11    1    4    4    0    0 -0.15975719073E+02  0.29563364496E+02  0.25725184172E+02  0.42320222364E+02  0.00000000000E+00 0.  1.
         11    1    4    4    0    0 -0.43038717274E+02 -0.47467774572E+02  0.18577390959E+03  0.19651327256E+03  0.00000000000E+00 0. -1.
         21    1    1    2  503  501 -0.64906166998E+02 -0.70442201625E+02 -0.76216837775E+02  0.12240882584E+03  0.00000000000E+00 0.  1.
          1    1    1    2  501    0  0.16600400824E+02 -0.91017661478E+02 -0.63482482892E+02  0.11220433879E+03  0.00000000000E+00 0. -1.
<scales pt_clust_5="13000.00000" pt_clust_6="13000.00000" pt_clust_7="13000.00000" pt_clust_8="13000.00000" pt_clust_9="95.78577" pt_clust_10="13000.00000"></scales>
<clustering>
<clus scale="   91.594">  5  6 -1 -1</clus>
<clus scale="   92.230">  7  8 -1 -1</clus>
<clus scale="   92.519">  7 10 -1 -1</clus>
<clus scale="   95.786">  2  9  1 -1</clus>
<clus scale="  193.061">  1  5  2 -1</clus>
<clus scale="   95.786">  2  5  1 -1</clus>
</clustering>
</event>
<event>
10    2  0.4951045E-006  0.1945287E+03  0.7546771E-02  0.1165418E+00
         21   -1    0    0  501  502  0.00000000000E+00  0.00000000000E+00  0.19141035660E+03  0.19141035660E+03  0.00000000000E+00 0. -1.
         -3   -1    0    0    0  501 -0.00000000000E+00 -0.00000000000E+00 -0.20141814008E+03  0.20141814008E+03  0.00000000000E+00 0.  1.
         23    2    1    2    0    0 -0.35801518531E+02 -0.10902182191E+03  0.31368478020E+02  0.14976251882E+03  0.90979801325E+02 0.  0.
         23    2    1    2    0    0 -0.11347907580E+02  0.51566948535E+02 -0.25477210691E+02  0.10813199748E+03  0.90859866979E+02 0.  0.
        -11    1    3    3    0    0 -0.56123491936E+02 -0.87724611095E+02  0.49376390770E+02  0.11525398780E+03  0.00000000000E+00 0. -1.
         11    1    3    3    0    0  0.20321973405E+02 -0.21297210817E+02 -0.18007912750E+02  0.34508531022E+02  0.00000000000E+00 0.  1.
        -13    1    4    4    0    0 -0.11977100427E+02  0.76937928214E+02 -0.10252115356E+02  0.78536625862E+02  0.00000000000E+00 0. -1.
         13    1    4    4    0    0  0.62919284698E+00 -0.25370979678E+02 -0.15225095335E+02  0.29595371622E+02  0.00000000000E+00 0.  1.
         21    1    1    2  503  502 -0.23154304185E+02 -0.12415307541E+01  0.25465548380E+02  0.34440635232E+02  0.00000000000E+00 0. -1.
         -3    1    1    2    0  503  0.70303730296E+02  0.58696404131E+02 -0.41364599185E+02  0.10049334514E+03  0.00000000000E+00 0.  1.
<scales pt_clust_5="13000.00000" pt_clust_6="13000.00000" pt_clust_7="13000.00000" pt_clust_8="13000.00000" pt_clust_9="23.18757" pt_clust_10="13000.00000"></scales>
<clustering>
<clus scale="   23.188">  1  9  2 -1</clus>
<clus scale="   90.860">  7  8 -1 -1</clus>
<clus scale="   88.222">  7 10 -1 -1</clus>
<clus scale="   90.980">  5  6 -1 -1</clus>
<clus scale="  150.651">  2  5  1 -1</clus>
<clus scale="   23.188">  1  5  2 -1</clus>
</clustering>
</event>
<event>
10    2  0.4951045E-006  0.1569480E+03  0.7546771E-02  0.1216140E+00
         21   -1    0    0  501  502  0.00000000000E+00  0.00000000000E+00  0.42672930831E+03  0.42672930831E+03  0.00000000000E+00 0.  1.
          1   -1    0    0  503    0 -0.00000000000E+00 -0.00000000000E+00 -0.17611933039E+03  0.17611933039E+03  0.00000000000E+00 0. -1.
         23    2    1    2    0    0  0.11994955861E+02 -0.90181930674E+01 -0.10637181042E+03  0.14156946852E+03  0.92204910895E+02 0.  0.
         23    2    1    2    0    0 -0.60020925745E+02  0.18100674312E+02  0.81932372264E+02  0.13722884543E+03  0.90491416467E+02 0.  0.
        -13    1    3    3    0    0 -0.26129819312E+02  0.28481995967E+02 -0.56433029594E+02  0.68400865351E+02  0.00000000000E+00 0.  1.
         13    1    3    3    0    0  0.38124775173E+02 -0.37500189035E+02 -0.49938780827E+02  0.73168603172E+02  0.00000000000E+00 0. -1.
        -13    1    4    4    0    0 -0.28899928204E+02 -0.16393851646E+02  0.84400300924E+02  0.90704878689E+02  0.00000000000E+00 0. -1.
         13    1    4    4    0    0 -0.31120997541E+02  0.34494525958E+02 -0.24679286601E+01  0.46523966736E+02  0.00000000000E+00 0.  1.
         21    1    1    2  503  502  0.26159443447E+02  0.26467735513E+02  0.27960047874E+03  0.28206610079E+03  0.00000000000E+00 0.  1.
          1    1    1    2  501    0  0.21866526436E+02 -0.35550216757E+02 -0.45510626634E+01  0.41984223956E+02  0.00000000000E+00 0. -1.
<scales pt_clust_5="13000.00000" pt_clust_6="13000.00000" pt_clust_7="13000.00000" pt_clust_8="13000.00000" pt_clust_9="37.21367" pt_clust_10="13000.00000"></scales>
<clustering>
<clus scale="   37.214">  1  9  2 -1</clus>
<clus scale="   90.491">  7  8 -1 -1</clus>
<clus scale="   40.867">  7 10 -1 -1</clus>
<clus scale="   92.205">  5  6 -1 -1</clus>
<clus scale="   93.623">  2  5  1 -1</clus>
<clus scale="   37.214">  1  5  2 -1</clus>
</clustering>
</event>
<event>
10    2  0.4951045E-006  0.1372092E+03  0.7546771E-02  0.1234480E+00
         21   -1    0    0  501  502  0.00000000000E+00  0.00000000000E+00  0.14378824373E+03  0.14378824373E+03  0.00000000000E+00 0. -1.
          1   -1    0    0  503    0 -0.00000000000E+00 -0.00000000000E+00 -0.22182208937E+03  0.22182208937E+03  0.00000000000E+00 0. -1.
         23    2    1    2    0    0 -0.32406424237E+02 -0.19207929999E+02 -0.15669916167E+03  0.18373639793E+03  0.88234436299E+02 0.  0.
         23    2    1    2    0    0  0.93521099739E+01  0.12468977055E+02  0.15916581249E+02  0.92128126264E+02  0.89394165025E+02 0.  0.
        -11    1    3    3    0    0 -0.31385620907E+02 -0.52852770296E+02 -0.89465900541E+02  0.10854777698E+03  0.00000000000E+00 0. -1.
         11    1    3    3    0    0 -0.10208033304E+01  0.33644840297E+02 -0.67233261132E+02  0.75188620951E+02  0.00000000000E+00 0.  1.
        -13    1    4    4    0    0  0.21801716359E+02  0.47873602490E+02  0.40180365027E+01  0.52757381180E+02  0.00000000000E+00 0.  1.
         13    1    4    4    0    0 -0.12449606385E+02 -0.35404625436E+02  0.11898544746E+02  0.39370745084E+02  0.00000000000E+00 0. -1.
         21    1    1    2  503  502  0.18297439783E+02 -0.15807995562E+02  0.14098906719E+01  0.24221412387E+02  0.00000000000E+00 0. -1.
          1    1    1    2  501    0  0.47568744809E+01  0.22546948507E+02  0.61338844113E+02  0.65524396517E+02  0.00000000000E+00 0. -1.
<scales pt_clust_5="13000.00000" pt_clust_6="13000.00000" pt_clust_7="13000.00000" pt_clust_8="13000.00000" pt_clust_9="24.18034" pt_clust_10="13000.00000"></scales>
<clustering>
<clus scale="   24.180">  1  9  2 -1</clus>
<clus scale="   88.234">  5  6 -1 -1</clus>
<clus scale="   89.394">  7  8 -1 -1</clus>
<clus scale="   20.179">  7 10 -1 -1</clus>
<clus scale="   95.661">  2  5  1 -1</clus>
<clus scale="   24.180">  1  5  2 -1</clus>
</clustering>
</event>
<event>
10    2  0.4951045E-006  0.2607086E+03  0.7546771E-02  0.1131971E+00
         21   -1    0    0  501  502  0.00000000000E+00  0.00000000000E+00  0.13924067384E+03  0.13924067384E+03  0.00000000000E+00 0.  1.
         -3   -1    0    0    0  501 -0.00000000000E+00 -0.00000000000E+00 -0.46271095750E+03  0.46271095750E+03  0.00000000000E+00 0.  1.
         23    2    1    2    0    0  0.98707118346E+02 -0.27346154473E+02 -0.17449310143E+03  0.22452050461E+03  0.97317558362E+02 0.  0.
         23    2    1    2    0    0 -0.26091010380E+02  0.54284726167E+02 -0.23299586127E+03  0.25767547361E+03  0.92097806793E+02 0.  0.
        -11    1    4    4    0    0 -0.55975102531E+02  0.54210835791E+02 -0.14307259354E+03  0.16291652415E+03  0.00000000000E+00 0.  1.
         11    1    4    4    0    0  0.29884092152E+02  0.73890376585E-01 -0.89923267729E+02  0.94758949459E+02  0.00000000000E+00 0. -1.
        -13    1    3    3    0    0  0.18776366841E+02  0.24261981941E+02 -0.97234231003E+02  0.10195926343E+03  0.00000000000E+00 0. -1.
         13    1    3    3    0    0  0.79930751506E+02 -0.51608136414E+02 -0.77258870428E+02  0.12256124118E+03  0.00000000000E+00 0.  1.
         21    1    1    2  503  502 -0.18164576172E+02 -0.12857697523E+02  0.48162272295E+02  0.53055411465E+02  0.00000000000E+00 0. -1.
         -3    1    1    2    0  503 -0.54451531795E+02 -0.14080874172E+02  0.35856406749E+02  0.66700241657E+02  0.00000000000E+00 0.  1.
<scales pt_clust_5="13000.00000" pt_clust_6="13000.00000" pt_clust_7="13000.00000" pt_clust_8="13000.00000" pt_clust_9="22.25471" pt_clust_10="13000.00000"></scales>
<clustering>
<clus scale="   22.255">  1  9  2 -1</clus>
<clus scale="   92.098">  5  6 -1 -1</clus>
<clus scale="   68.432">  5 10 -1 -1</clus>
<clus scale="   97.318">  7  8 -1 -1</clus>
<clus scale="  138.519">  2  7  1 -1</clus>
<clus scale="   22.255">  1  5  2 -1</clus>
</clustering>
</event>
<event>
10    2  0.4951045E-006  0.2897026E+03  0.7546771E-02  0.1133070E+00
          2   -1    0    0  503    0 -0.00000000000E+00  0.00000000000E+00  0.33401445712E+03  0.33401445712E+03  0.00000000000E+00 0. -1.
         21   -1    0    0  501  502  0.00000000000E+00 -0.00000000000E+00 -0.93559097822E+03  0.93559097822E+03  0.00000000000E+00 0. -1.
         23    2    1    2    0    0  0.28756748642E+02  0.23061873945E+02  0.16054050714E+03  0.18823287435E+03  0.91101920567E+02 0.  0.
         23    2    1    2    0    0 -0.31800618067E+02  0.93923775952E+02  0.73117536968E+02  0.15718067746E+03  0.97604488404E+02 0.  0.
        -11    1    3    3    0    0  0.52321453807E+02 -0.12349823798E+02  0.70568783557E+02  0.88713053656E+02  0.00000000000E+00 0. -1.
         11    1    3    3    0    0 -0.23564705165E+02  0.35411697742E+02  0.89971723582E+02  0.99519820693E+02  0.00000000000E+00 0.  1.
        -11    1    4    4    0    0 -0.53203594593E+02  0.10042627187E+03  0.72497061987E+02  0.13480312517E+03  0.00000000000E+00 0. -1.
         11    1    4    4    0    0  0.21402976526E+02 -0.65024959171E+01  0.62047498048E+00  0.22377552291E+02  0.00000000000E+00 0.  1.
         21    1    1    2  503  502  0.10737941759E+03 -0.42990442832E+02 -0.77361221751E+03  0.78221121225E+03  0.00000000000E+00 0. -1.
          2    1    1    2  501    0 -0.10433554817E+03 -0.73995207065E+02 -0.61622347695E+02  0.14198067128E+03  0.00000000000E+00 0. -1.
<scales pt_clust_5="13000.00000" pt_clust_6="13000.00000" pt_clust_7="13000.00000" pt_clust_8="13000.00000" pt_clust_9="116.15695" pt_clust_10="13000.00000"></scales>
<clustering>
<clus scale="   91.102">  5  6 -1 -1</clus>
<clus scale="   97.604">  7  8 -1 -1</clus>
<clus scale="   98.277">  1  5  2 -1</clus>
<clus scale="  116.157">  2  9  1 -1</clus>
<clus scale="   99.050">  7 10 -1 -1</clus>
<clus scale="  116.157">  2  5  1 -1</clus>
</clustering>
</event>
<event>
10    2  0.4951045E-006  0.2622219E+03  0.7546771E-02  0.1131379E+00
         21   -1    0    0  501  502  0.00000000000E+00  0.00000000000E+00  0.78946025322E+03  0.78946025322E+03  0.00000000000E+00 0.  1.
          1   -1    0    0  503    0 -0.00000000000E+00 -0.00000000000E+00 -0.33568590833E+03  0.33568590833E+03  0.00000000000E+00 0. -1.
         23    2    1    2    0    0 -0.41673417568E+02 -0.11026773873E+03  0.12524207313E+03  0.19498495202E+03  0.91858079086E+02 0.  0.
         23    2    1    2    0    0  0.31546520534E+01 -0.52471426260E+02 -0.18688051635E+03  0.21159598884E+03  0.84174418306E+02 0.  0.
        -13    1    4    4    0    0  0.27089160311E+02 -0.64267389184E+02 -0.11029978839E+03  0.13049966757E+03  0.00000000000E+00 0. -1.
         13    1    4    4    0    0 -0.23934508257E+02  0.11795962924E+02 -0.76580727968E+02  0.81096321266E+02  0.00000000000E+00 0.  1.
        -13    1    3    3    0    0  0.87617086808E+01 -0.23330189049E+02  0.81761403584E+02  0.85475097988E+02  0.00000000000E+00 0. -1.
         13    1    3    3    0    0 -0.50435126249E+02 -0.86937549685E+02  0.43480669546E+02  0.10950985403E+03  0.00000000000E+00 0.  1.
         21    1    1    2  503  502 -0.57147124869E+02  0.67919567448E+02  0.56731461091E+03  0.57421662226E+03  0.00000000000E+00 0.  1.
          1    1    1    2  501    0  0.95665890384E+02  0.94819597547E+02 -0.51901822798E+02  0.14434859844E+03  0.00000000000E+00 0. -1.
<scales pt_clust_5="13000.00000" pt_clust_6="13000.00000" pt_clust_7="13000.00000" pt_clust_8="13000.00000" pt_clust_9="88.76295" pt_clust_10="13000.00000"></scales>
<clustering>
<clus scale="   84.174">  5  6 -1 -1</clus>
<clus scale="   88.763">  1  9  2 -1</clus>
<clus scale="   91.858">  7  8 -1 -1</clus>
<clus scale="  137.499">  5 10 -1 -1</clus>
<clus scale="  138.122">  2  7  1 -1</clus>
<clus scale="   88.763">  1  5  2 -1</clus>
</clustering>
</event>
<event>
10    2  0.4951045E-006  0.2289389E+03  0.7546771E-02  0.1149690E+00
          1   -1    0    0  503    0 -0.00000000000E+00  0.00000000000E+00  0.24513078372E+03  0.24513078372E+03  0.00000000000E+00 0. -1.
         21   -1    0    0  501  502  0.00000000000E+00 -0.00000000000E+00 -0.28899511681E+03  0.28899511681E+03  0.00000000000E+00 0. -1.
         23    2    1    2    0    0  0.29382743150E+02  0.92011500079E+02 -0.19943745614E+02  0.13331277431E+03  0.89694375868E+02 0.  0.
         23    2    1    2    0    0 -0.60231352027E+01 -0.10799890047E+03  0.66467930632E+02  0.15810448353E+03  0.94228452450E+02 0.  0.
        -11    1    4    4    0    0 -0.42868536623E+02 -0.76803168626E+02  0.65759368036E+02  0.10982136690E+03  0.00000000000E+00 0.  1.
         11    1    4    4    0    0  0.36845401420E+02 -0.31195731842E+02  0.70856259548E+00  0.48283116635E+02  0.00000000000E+00 0. -1.
        -13    1    3    3    0    0  0.58776684421E+01  0.59070266291E+02  0.32022586761E+02  0.67448420359E+02  0.00000000000E+00 0.  1.
         13    1    3    3    0    0  0.23505074708E+02  0.32941233788E+02 -0.51966332375E+02  0.65864353948E+02  0.00000000000E+00 0. -1.
         21    1    1    2  503  502  0.57779194361E+02 -0.24394203915E+02 -0.12958444255E+03  0.14396402410E+03  0.00000000000E+00 0. -1.
          1    1    1    2  501    0 -0.81138802309E+02  0.40381604304E+02  0.39195924436E+02  0.98744618581E+02  0.00000000000E+00 0. -1.
<scales pt_clust_5="13000.00000" pt_clust_6="13000.00000" pt_clust_7="13000.00000" pt_clust_8="13000.00000" pt_clust_9="62.71772" pt_clust_10="13000.00000"></scales>
<clustering>
<clus scale="   62.718">  2  9  1 -1</clus>
<clus scale="   89.694">  7  8 -1 -1</clus>
<clus scale="   94.228">  5  6 -1 -1</clus>
<clus scale="   78.392">  5 10 -1 -1</clus>
<clus scale="  133.495">  1  7  2 -1</clus>
<clus scale="   62.718">  2  5  1 -1</clus>
</clustering>
</event>
<event>
10    2  0.4951045E-006  0.3165166E+03  0.7546771E-02  0.1120248E+00
         21   -1    0    0  501  502  0.00000000000E+00  0.00000000000E+00  0.73427226200E+03  0.73427226200E+03  0.00000000000E+00 0. -1.
          1   -1    0    0  503    0 -0.00000000000E+00 -0.00000000000E+00 -0.79755578801E+02  0.79755578801E+02  0.00000000000E+00 0. -1.
         23    2    1    2    0    0  0.38844120362E+02 -0.45665503852E+01  0.40534322604E+02  0.11190864691E+03  0.96699508147E+02 0.  0.
         23    2    1    2    0    0  0.11662710381E+03 -0.51519086384E+02  0.21213622287E+03  0.26371270616E+03  0.91030306651E+02 0.  0.
        -13    1    3    3    0    0  0.31740498229E+02  0.40750684262E+02  0.41139007858E+02  0.66034047757E+02  0.00000000000E+00 0. -1.
         13    1    3    3    0    0  0.71036221334E+01 -0.45317234647E+02 -0.60468525372E+00  0.45874599156E+02  0.00000000000E+00 0.  1.
        -13    1    4    4    0    0  0.75051964696E+02 -0.77264056390E+02  0.14880295405E+03  0.18369771623E+03  0.00000000000E+00 0. -1.
         13    1    4    4    0    0  0.41575139119E+02  0.25744970006E+02  0.63333268817E+02  0.80014989923E+02  0.00000000000E+00 0.  1.
         21    1    1    2  503  502 -0.23083692994E+02 -0.94503703562E+01  0.35389002477E+02  0.43296049224E+02  0.00000000000E+00 0. -1.
          1    1    1    2  501    0 -0.13238753118E+03  0.65536007126E+02  0.36645713524E+03  0.39511043850E+03  0.00000000000E+00 0. -1.
<scales pt_clust_5="13000.00000" pt_clust_6="13000.00000" pt_clust_7="13000.00000" pt_clust_8="13000.00000" pt_clust_9="24.94326" pt_clust_10="13000.00000"></scales>
<clustering>
<clus scale="   24.943">  1  9  2 -1</clus>
<clus scale="   91.030">  7  8 -1 -1</clus>
<clus scale="   96.700">  5  6 -1 -1</clus>
<clus scale="  103.445">  2  5  1 -1</clus>
<clus scale="  142.491">  7 10 -1 -1</clus>
<clus scale="   24.943">  1  5  2 -1</clus>
</clustering>
</event>
<event>
10    2  0.4951045E-006  0.4001910E+03  0.7546771E-02  0.1092573E+00
          1   -1    0    0  503    0 -0.00000000000E+00  0.00000000000E+00  0.13652222857E+03  0.13652222857E+03  0.00000000000E+00 0. -1.
         21   -1    0    0  501  502  0.00000000000E+00 -0.00000000000E+00 -0.92082591930E+03  0.92082591930E+03  0.00000000000E+00 0. -1.
         23    2    1    2    0    0 -0.11844786253E+02  0.46666876109E+02  0.43615972332E+02  0.11225162718E+03  0.91542222361E+02 0.  0.
         23    2    1    2    0    0  0.10207535372E+03  0.48188590945E+02 -0.80730500584E+02  0.16547630068E+03  0.90130318022E+02 0.  0.
        -13    1    3    3    0    0 -0.36548436670E+02 -0.22132190781E+01  0.44307768201E+02  0.57479256125E+02  0.00000000000E+00 0. -1.
         13    1    3    3    0    0  0.24703650417E+02  0.48880095187E+02 -0.69179586929E+00  0.54772371054E+02  0.00000000000E+00 0.  1.
        -13    1    4    4    0    0 -0.15618064554E+02  0.13502646454E+02 -0.19288031177E+02  0.28253735122E+02  0.00000000000E+00 0.  1.
         13    1    4    4    0    0  0.11769341828E+03  0.34685944491E+02 -0.61442469407E+02  0.13722256556E+03  0.00000000000E+00 0. -1.
         21    1    1    2  503  502  0.25083316896E+02  0.38097515185E+02 -0.12698410849E+03  0.13492797063E+03  0.00000000000E+00 0. -1.
          1    1    1    2  501    0 -0.11531388437E+03 -0.13295298224E+03 -0.62020505400E+03  0.64469224939E+03  0.00000000000E+00 0. -1.
<scales pt_clust_5="13000.00000" pt_clust_6="13000.00000" pt_clust_7="13000.00000" pt_clust_8="13000.00000" pt_clust_9="45.61352" pt_clust_10="13000.00000"></scales>
<clustering>
<clus scale="   45.614">  2  9  1 -1</clus>
<clus scale="   90.130">  7  8 -1 -1</clus>
<clus scale="   91.542">  5  6 -1 -1</clus>
<clus scale="  104.071">  1  5  2 -1</clus>
<clus scale="  134.604">  7 10 -1 -1</clus>
<clus scale="   45.614">  2  5  1 -1</clus>
</clustering>
</event>
<event>
10    2  0.4951045E-006  0.2767807E+03  0.7546771E-02  0.1124321E+00
         21   -1    0    0  501  502  0.00000000000E+00  0.00000000000E+00  0.58138213276E+03  0.58138213276E+03  0.00000000000E+00 0. -1.
          1   -1    0    0  503    0 -0.00000000000E+00 -0.00000000000E+00 -0.10242694661E+03  0.10242694661E+03  0.00000000000E+00 0. -1.
         23    2    1    2    0    0 -0.71646589764E+02  0.42574106216E+02  0.17946533448E+03  0.21806980472E+03  0.91656124214E+02 0.  0.
         23    2    1    2    0    0  0.11341669054E+02  0.60797862967E+02  0.10505683973E+03  0.15303724893E+03  0.92511871592E+02 0.  0.
        -11    1    4    4    0    0  0.71785260153E+01  0.30962486179E+02 -0.10613151586E+02  0.33508890951E+02  0.00000000000E+00 0.  1.
         11    1    4    4    0    0  0.41631430389E+01  0.29835376788E+02  0.11566999132E+03  0.11952835797E+03  0.00000000000E+00 0. -1.
        -13    1    3    3    0    0 -0.15460699362E+02  0.61219957714E+02  0.75420289809E+02  0.98362272047E+02  0.00000000000E+00 0. -1.
         13    1    3    3    0    0 -0.56185890402E+02 -0.18645851498E+02  0.10404504467E+03  0.11970753267E+03  0.00000000000E+00 0.  1.
         21    1    1    2  503  502 -0.37574382405E+02  0.49705476078E+02  0.38304637762E+02  0.73141738012E+02  0.00000000000E+00 0. -1.
          1    1    1    2  501    0  0.97879303115E+02 -0.15307744526E+03  0.15612837418E+03  0.23956028772E+03  0.00000000000E+00 0. -1.
<scales pt_clust_5="13000.00000" pt_clust_6="13000.00000" pt_clust_7="13000.00000" pt_clust_8="13000.00000" pt_clust_9="62.30949" pt_clust_10="13000.00000"></scales>
<clustering>
<clus scale="   62.309">  1  9  2 -1</clus>
<clus scale="   91.656">  7  8 -1 -1</clus>
<clus scale="   92.512">  5  6 -1 -1</clus>
<clus scale="  139.779">  2  7  1 -1</clus>
<clus scale="  110.088">  5 10 -1 -1</clus>
<clus scale="   62.309">  1  5  2 -1</clus>
</clustering>
</event>
<event>
10    2  0.4951045E-006  0.4804785E+03  0.7546771E-02  0.1051931E+00
          1   -1    0    0  502    0 -0.00000000000E+00  0.00000000000E+00  0.13865632307E+04  0.13865632307E+04  0.00000000000E+00 0. -1.
         21   -1    0    0  503  502  0.00000000000E+00 -0.00000000000E+00 -0.94131914389E+02  0.94131914389E+02  0.00000000000E+00 0. -1.
         23    2    1    2    0    0 -0.13583733159E+03  0.86315114479E+02  0.52569469060E+03  0.55731575387E+03  0.91344743398E+02 0.  0.
         23    2    1    2    0    0  0.14829556119E+03 -0.26022694983E+03  0.41645237513E+03  0.52096585459E+03  0.90902156235E+02 0.  0.
        -13    1    3    3    0    0 -0.10567411616E+03  0.19360036597E+02  0.25209867456E+03  0.27403571219E+03  0.00000000000E+00 0.  1.
         13    1    3    3    0    0 -0.30163215433E+02  0.66955077881E+02  0.27359601604E+03  0.28328004167E+03  0.00000000000E+00 0. -1.
        -13    1    4    4    0    0  0.50158024138E+02 -0.27046950120E+02  0.10729007989E+03  0.12148467451E+03  0.00000000000E+00 0.  1.
         13    1    4    4    0    0  0.98137537054E+02 -0.23317999971E+03  0.30916229523E+03  0.39948118008E+03  0.00000000000E+00 0. -1.
         21    1    1    2  503  501  0.31102616427E+02  0.19826827207E+02  0.50371498700E+02  0.62432072743E+02  0.00000000000E+00 0.  1.
          1    1    1    2  501    0 -0.43560846026E+02  0.15408500815E+03  0.29991275185E+03  0.33998146385E+03  0.00000000000E+00 0. -1.
<scales pt_clust_5="13000.00000" pt_clust_6="13000.00000" pt_clust_7="13000.00000" pt_clust_8="13000.00000" pt_clust_9="36.88463" pt_clust_10="13000.00000"></scales>
<clustering>
<clus scale="   36.885">  2  9  1 -1</clus>
<clus scale="   90.902">  7  8 -1 -1</clus>
<clus scale="   91.345">  5  6 -1 -1</clus>
<clus scale="  162.737">  7 10 -1 -1</clus>
<clus scale="  182.723">  1  5  2 -1</clus>
<clus scale="   36.885">  2  5  1 -1</clus>
</clustering>
</event>
<event>
10    2  0.4951045E-006  0.2331399E+03  0.7546771E-02  0.1143140E+00
         -1   -1    0    0    0  501 -0.00000000000E+00  0.00000000000E+00  0.15675150896E+04  0.15675150896E+04  0.00000000000E+00 0.  1.
         21   -1    0    0  503  502  0.00000000000E+00 -0.00000000000E+00 -0.29235952922E+02  0.29235952922E+02  0.00000000000E+00 0.  1.
         23    2    1    2    0    0  0.12403712774E+03  0.45082647329E+02  0.57007696722E+03  0.59209817225E+03  0.90414837716E+02 0.  0.
         23    2    1    2    0    0 -0.14372081853E+03 -0.37433498950E+02  0.73314095229E+03  0.75200355720E+03  0.77180007757E+02 0.  0.
        -13    1    3    3    0    0  0.50886792189E+02  0.65519199234E+02  0.33152632101E+03  0.34174834690E+03  0.00000000000E+00 0.  1.
         13    1    3    3    0    0  0.73150335550E+02 -0.20436551905E+02  0.23855064621E+03  0.25034982535E+03  0.00000000000E+00 0. -1.
        -13    1    4    4    0    0 -0.13589021240E+02  0.19780155270E+02  0.14178876602E+03  0.14380532052E+03  0.00000000000E+00 0. -1.
         13    1    4    4    0    0 -0.13013179729E+03 -0.57213654220E+02  0.59135218626E+03  0.60819823667E+03  0.00000000000E+00 0.  1.
         21    1    1    2  503  501 -0.26439999189E+02 -0.31143988024E+02  0.10334308824E+03  0.11112522412E+03  0.00000000000E+00 0.  1.
         -1    1    1    2    0  502  0.46123689982E+02  0.23494839644E+02  0.13171812895E+03  0.14152408898E+03  0.00000000000E+00 0.  1.
<scales pt_clust_5="13000.00000" pt_clust_6="13000.00000" pt_clust_7="13000.00000" pt_clust_8="13000.00000" pt_clust_9="40.85366" pt_clust_10="13000.00000"></scales>
<clustering>
<clus scale="   40.854">  2  9  1 -1</clus>
<clus scale="   77.180">  7  8 -1 -1</clus>
<clus scale="   44.575">  7 10 -1 -1</clus>
<clus scale="   90.415">  5  6 -1 -1</clus>
<clus scale="  147.777">  1  5  2 -1</clus>
<clus scale="   40.854">  2  5  1 -1</clus>
</clustering>
</event>
<event>
10    2  0.4951045E-006  0.3114450E+03  0.7546771E-02  0.1109946E+00
          2   -1    0    0  502    0 -0.00000000000E+00  0.00000000000E+00  0.16498388590E+04  0.16498388590E+04  0.00000000000E+00 0. -1.
         21   -1    0    0  503  502  0.00000000000E+00 -0.00000000000E+00 -0.18272865957E+03  0.18272865957E+03  0.00000000000E+00 0. -1.
         23    2    1    2    0    0 -0.94748219623E+02  0.47630544436E+02  0.24305242639E+03  0.28090017601E+03  0.92652755055E+02 0.  0.
         23    2    1    2    0    0  0.10353289836E+03 -0.92221732169E+02  0.40070433321E+03  0.43362574596E+03  0.90793259554E+02 0.  0.
        -11    1    3    3    0    0 -0.89647737422E+02  0.69927022099E+02  0.22371826058E+03  0.25095092221E+03  0.00000000000E+00 0.  1.
         11    1    3    3    0    0 -0.51004822015E+01 -0.22296477663E+02  0.19334165816E+02  0.29949253792E+02  0.00000000000E+00 0. -1.
        -13    1    4    4    0    0  0.16944778787E+02 -0.59353646841E+02  0.87966397110E+02  0.10746193718E+03  0.00000000000E+00 0.  1.
         13    1    4    4    0    0  0.86588119575E+02 -0.32868085328E+02  0.31273793610E+03  0.32616380878E+03  0.00000000000E+00 0. -1.
         21    1    1    2  503  501 -0.85269019837E+02  0.22860370407E+03 -0.26235532240E+02  0.24539511488E+03  0.00000000000E+00 0. -1.
          2    1    1    2  501    0  0.76484341098E+02 -0.18401251633E+03  0.84958897211E+03  0.87264648176E+03  0.00000000000E+00 0. -1.
<scales pt_clust_5="13000.00000" pt_clust_6="13000.00000" pt_clust_7="13000.00000" pt_clust_8="13000.00000" pt_clust_9="250.19147" pt_clust_10="13000.00000"></scales>
<clustering>
<clus scale="   90.793">  7  8 -1 -1</clus>
<clus scale="   92.653">  5  6 -1 -1</clus>
<clus scale="  140.821">  1  5  2 -1</clus>
<clus scale="  155.470">  7 10 -1 -1</clus>
<clus scale="  250.191">  2  9  1 -1</clus>
<clus scale="  250.191">  2  5  1 -1</clus>
</clustering>
</event>
<event>
10    2  0.4951045E-006  0.2664417E+03  0.7546771E-02  0.1142664E+00
          1   -1    0    0  502    0 -0.00000000000E+00  0.00000000000E+00  0.12645369725E+04  0.12645369725E+04  0.00000000000E+00 0. -1.
         21   -1    0    0  503  502  0.00000000000E+00 -0.00000000000E+00 -0.30925860702E+02  0.30925860702E+02  0.00000000000E+00 0. -1.
         23    2    1    2    0    0  0.26615541985E+02  0.25339008612E+02  0.23243221486E+03  0.25189587099E+03  0.89868475470E+02 0.  0.
         23    2    1    2    0    0 -0.12235696781E+03 -0.71325250556E+02  0.47276964830E+03  0.50185966402E+03  0.91068452690E+02 0.  0.
        -13    1    3    3    0    0 -0.30719646495E+02  0.18756565959E+02  0.58986771030E+02  0.69100973972E+02  0.00000000000E+00 0. -1.
         13    1    3    3    0    0  0.57335188480E+02  0.65824426526E+01  0.17344544383E+03  0.18279489702E+03  0.00000000000E+00 0.  1.
        -13    1    4    4    0    0 -0.76033893451E+02 -0.84925464968E+02  0.26359723414E+03  0.28718807322E+03  0.00000000000E+00 0. -1.
         13    1    4    4    0    0 -0.46323074362E+02  0.13600214411E+02  0.20917241416E+03  0.21467159080E+03  0.00000000000E+00 0.  1.
         21    1    1    2  503  501  0.10284159937E+02  0.20321644740E+02  0.48602190259E+02  0.53674072777E+02  0.00000000000E+00 0. -1.
          1    1    1    2  501    0  0.85457265891E+02  0.25664597204E+02  0.47980705840E+03  0.48803322544E+03  0.00000000000E+00 0. -1.
<scales pt_clust_5="13000.00000" pt_clust_6="13000.00000" pt_clust_7="13000.00000" pt_clust_8="13000.00000" pt_clust_9="22.77571" pt_clust_10="13000.00000"></scales>
<clustering>
<clus scale="   22.776">  2  9  1 -1</clus>
<clus scale="   89.868">  5  6 -1 -1</clus>
<clus scale="   91.068">  7  8 -1 -1</clus>
<clus scale="   91.533">  7 10 -1 -1</clus>
<clus scale="  100.142">  1  5  2 -1</clus>
<clus scale="   22.776">  2  5  1 -1</clus>
</clustering>
</event>
<event>
10    2  0.4951045E-006  0.2380882E+03  0.7546771E-02  0.1145470E+00
         21   -1    0    0  501  502  0.00000000000E+00  0.00000000000E+00  0.51161333686E+02  0.51161333686E+02  0.00000000000E+00 0. -1.
          2   -1    0    0  503    0 -0.00000000000E+00 -0.00000000000E+00 -0.11873228073E+04  0.11873228073E+04  0.00000000000E+00 0. -1.
         23    2    1    2    0    0  0.96614324938E+01  0.84588195807E+02 -0.60619174533E+03  0.61911771758E+03  0.92681227662E+02 0.  0.
         23    2    1    2    0    0 -0.64289561597E+02 -0.74659272751E+02 -0.35390850602E+03  0.37868424695E+03  0.91887831155E+02 0.  0.
        -11    1    4    4    0    0 -0.39696698932E+02 -0.24496965061E+02 -0.45172820289E+02  0.64934681766E+02  0.00000000000E+00 0. -1.
         11    1    4    4    0    0 -0.24592862665E+02 -0.50162307690E+02 -0.30873568573E+03  0.31374956518E+03  0.00000000000E+00 0.  1.
        -13    1    3    3    0    0  0.15829946163E+02 -0.13199946587E+02 -0.45795128098E+02  0.50219712693E+02  0.00000000000E+00 0.  1.
         13    1    3    3    0    0 -0.61685136690E+01  0.97788142394E+02 -0.56039661723E+03  0.56889800488E+03  0.00000000000E+00 0. -1.
         21    1    1    2  503  502 -0.30070734801E+02  0.51169660801E+02 -0.71082080375E+02  0.92602621067E+02  0.00000000000E+00 0. -1.
          2    1    1    2  501    0  0.84698863904E+02 -0.61098583858E+02 -0.10497914190E+03  0.14807955541E+03  0.00000000000E+00 0. -1.
<scales pt_clust_5="13000.00000" pt_clust_6="13000.00000" pt_clust_7="13000.00000" pt_clust_8="13000.00000" pt_clust_9="59.35135" pt_clust_10="13000.00000"></scales>
<clustering>
<clus scale="   59.351">  1  9  2 -1</clus>
<clus scale="   91.888">  5  6 -1 -1</clus>
<clus scale="   76.530">  5 10 -1 -1</clus>
<clus scale="   92.681">  7  8 -1 -1</clus>
<clus scale="  131.226">  2  7  1 -1</clus>
<clus scale="   59.351">  1  5  2 -1</clus>
</clustering>
</event>
<event>
10    2  0.4951045E-006  0.3129829E+03  0.7546771E-02  0.1105610E+00
         21   -1    0    0  503  502  0.00000000000E+00  0.00000000000E+00  0.59611344618E+03  0.59611344618E+03  0.00000000000E+00 0. -1.
          1   -1    0    0  502    0 -0.00000000000E+00 -0.00000000000E+00 -0.55564335364E+03  0.55564335364E+03  0.00000000000E+00 0. -1.
         23    2    1    2    0    0 -0.33012779249E+02  0.12010500558E+03 -0.26746241798E+03  0.30680185042E+03  0.84120000174E+02 0.  0.
         23    2    1    2    0    0  0.96436735244E+02 -0.18488097904E+03 -0.20315521373E+03  0.30543400929E+03  0.92395199284E+02 0.  0.
        -11    1    4    4    0    0  0.35879103739E+02 -0.11571008394E+02 -0.10107603966E+02  0.39030270026E+02  0.00000000000E+00 0.  1.
         11    1    4    4    0    0  0.60557631505E+02 -0.17330997065E+03 -0.19304760976E+03  0.26640373926E+03  0.00000000000E+00 0. -1.
        -13    1    3    3    0    0 -0.59503106722E+02  0.60162674906E+02 -0.15751497232E+03  0.17880473614E+03  0.00000000000E+00 0.  1.
         13    1    3    3    0    0  0.26490327473E+02  0.59942330672E+02 -0.10994744566E+03  0.12799711428E+03  0.00000000000E+00 0. -1.
         21    1    1    2  503  501 -0.67326587856E+02  0.15711970476E+02  0.47098701080E+03  0.47603413721E+03  0.00000000000E+00 0. -1.
          1    1    1    2  501    0  0.39026318614E+01  0.49064002986E+02  0.40100713447E+02  0.63486802907E+02  0.00000000000E+00 0. -1.
<scales pt_clust_5="13000.00000" pt_clust_6="13000.00000" pt_clust_7="13000.00000" pt_clust_8="13000.00000" pt_clust_9="69.13563" pt_clust_10="13000.00000"></scales>
<clustering>
<clus scale="   69.136">  1  9  2 -1</clus>
<clus scale="   84.120">  7  8 -1 -1</clus>
<clus scale="   92.395">  5  6 -1 -1</clus>
<clus scale="   60.868">  5 10 -1 -1</clus>
<clus scale="  155.026">  2  7  1 -1</clus>
<clus scale="   69.136">  1  5  2 -1</clus>
</clustering>
</event>
<event>
10    2  0.4951045E-006  0.2819893E+03  0.7546771E-02  0.1113294E+00
          2   -1    0    0  502    0 -0.00000000000E+00  0.00000000000E+00  0.81068750490E+03  0.81068750490E+03  0.00000000000E+00 0. -1.
         21   -1    0    0  503  502  0.00000000000E+00 -0.00000000000E+00 -0.22803927630E+03  0.22803927630E+03  0.00000000000E+00 0. -1.
         23    2    1    2    0    0  0.14585334809E+03 -0.69918088639E+02  0.14705213525E+02  0.18863847819E+03  0.95950476184E+02 0.  0.
         23    2    1    2    0    0 -0.14584060140E+03  0.22950547880E+02  0.67291784630E+03  0.69353658875E+03  0.79864656720E+02 0.  0.
        -11    1    4    4    0    0 -0.19761389214E+02 -0.25434082162E+02  0.10791974159E+03  0.11262360172E+03  0.00000000000E+00 0.  1.
         11    1    4    4    0    0 -0.12607921219E+03  0.48384630042E+02  0.56499810471E+03  0.58091298703E+03  0.00000000000E+00 0. -1.
        -13    1    3    3    0    0  0.11543744130E+03 -0.60096721653E+01  0.21354174272E+02  0.11754964812E+03  0.00000000000E+00 0.  1.
         13    1    3    3    0    0  0.30415906793E+02 -0.63908416473E+02 -0.66489607462E+01  0.71088830073E+02  0.00000000000E+00 0. -1.
         21    1    1    2  503  501 -0.18902659623E+02  0.10193641767E+02 -0.11249917462E+03  0.11453071712E+03  0.00000000000E+00 0. -1.
          2    1    1    2  501    0  0.18889912932E+02  0.36773898992E+02  0.75243433991E+01  0.42020997147E+02  0.00000000000E+00 0. -1.
<scales pt_clust_5="13000.00000" pt_clust_6="13000.00000" pt_clust_7="13000.00000" pt_clust_8="13000.00000" pt_clust_9="21.47605" pt_clust_10="13000.00000"></scales>
<clustering>
<clus scale="   21.476">  2  9  1 -1</clus>
<clus scale="   79.865">  5  6 -1 -1</clus>
<clus scale="   41.533">  5 10 -1 -1</clus>
<clus scale="   95.950">  7  8 -1 -1</clus>
<clus scale="  174.254">  1  7  2 -1</clus>
<clus scale="   21.476">  2  5  1 -1</clus>
</clustering>
</event>
<event>
10    2  0.4951045E-006  0.3162378E+03  0.7546771E-02  0.1110847E+00
         21   -1    0    0  503  502  0.00000000000E+00  0.00000000000E+00  0.83093662869E+02  0.83093662869E+02  0.00000000000E+00 0.  1.
         -1   -1    0    0    0  501 -0.00000000000E+00 -0.00000000000E+00 -0.70463810268E+03  0.70463810268E+03  0.00000000000E+00 0.  1.
         23    2    1    2    0    0  0.94366288587E+02  0.13205829614E+02 -0.11525652163E+03  0.17562913752E+03  0.92098522308E+02 0.  0.
         23    2    1    2    0    0 -0.12796357881E+03 -0.98625752489E+02 -0.37940579102E+03  0.42237635936E+03  0.91385546633E+02 0.  0.
        -11    1    4    4    0    0 -0.73072459911E+02 -0.46415212584E+02 -0.97114648385E+02  0.13009693035E+03  0.00000000000E+00 0. -1.
         11    1    4    4    0    0 -0.54891118895E+02 -0.52210539905E+02 -0.28229114264E+03  0.29227942901E+03  0.00000000000E+00 0.  1.
        -13    1    3    3    0    0  0.97809287361E+02 -0.13057948686E+02 -0.11146976585E+03  0.14887133846E+03  0.00000000000E+00 0. -1.
         13    1    3    3    0    0 -0.34429987734E+01  0.26263778299E+02 -0.37867557808E+01  0.26757799058E+02  0.00000000000E+00 0.  1.
         21    1    1    2  503  501 -0.15787064131E+01 -0.25012268318E+02 -0.19944802661E+02  0.32029689876E+02  0.00000000000E+00 0. -1.
         -1    1    1    2    0  502  0.35175996631E+02  0.11043219119E+03 -0.10693732450E+03  0.15769657879E+03  0.00000000000E+00 0.  1.
<scales pt_clust_5="13000.00000" pt_clust_6="13000.00000" pt_clust_7="13000.00000" pt_clust_8="13000.00000" pt_clust_9="25.06204" pt_clust_10="13000.00000"></scales>
<clustering>
<clus scale="   25.062">  1  9  2 -1</clus>
<clus scale="   91.386">  5  6 -1 -1</clus>
<clus scale="   92.099">  7  8 -1 -1</clus>
<clus scale="  107.910">  5 10 -1 -1</clus>
<clus scale="  131.463">  2  7  1 -1</clus>
<clus scale="   25.062">  1  5  2 -1</clus>
</clustering>
</event>
<event>
10    2  0.4951045E-006  0.5482146E+03  0.7546771E-02  0.1039027E+00
          2   -1    0    0  503    0 -0.00000000000E+00  0.00000000000E+00  0.18254642547E+04  0.18254642547E+04  0.00000000000E+00 0. -1.
         21   -1    0    0  501  502  0.00000000000E+00 -0.00000000000E+00 -0.41627096282E+03  0.41627096282E+03  0.00000000000E+00 0.  1.
         23    2    1    2    0    0  0.12598960837E+03  0.85242892770E+02  0.99214105409E+02  0.20408940995E+03  0.93109163670E+02 0.  0.
         23    2    1    2    0    0 -0.88831367878E+02 -0.14882977423E+03  0.89493566652E+03  0.91610379361E+03  0.91076889742E+02 0.  0.
        -11    1    3    3    0    0  0.59483064364E+00  0.39726373003E+02  0.34607142356E+01  0.39881262248E+02  0.00000000000E+00 0.  1.
         11    1    3    3    0    0  0.12539477772E+03  0.45516519767E+02  0.95753391174E+02  0.16420814771E+03  0.00000000000E+00 0. -1.
        -13    1    4    4    0    0 -0.20596887129E+02 -0.11366341972E+03  0.44969828579E+03  0.46429748328E+03  0.00000000000E+00 0.  1.
         13    1    4    4    0    0 -0.68234480748E+02 -0.35166354506E+02  0.44523738073E+03  0.45180631033E+03  0.00000000000E+00 0. -1.
         21    1    1    2  503  502  0.41519508035E+02 -0.24215376270E+03 -0.27133535267E+03  0.36603987207E+03  0.00000000000E+00 0.  1.
          2    1    1    2  501    0 -0.78677748524E+02  0.30574064416E+03  0.68637887260E+03  0.75550214186E+03  0.00000000000E+00 0. -1.
<scales pt_clust_5="13000.00000" pt_clust_6="13000.00000" pt_clust_7="13000.00000" pt_clust_8="13000.00000" pt_clust_9="243.94443" pt_clust_10="13000.00000"></scales>
<clustering>
<clus scale="   91.077">  7  8 -1 -1</clus>
<clus scale="   93.109">  5  6 -1 -1</clus>
<clus scale="  178.351">  1  5  2 -1</clus>
<clus scale="  243.944">  2  9  1 -1</clus>
<clus scale="  208.400">  7 10 -1 -1</clus>
<clus scale="  243.944">  2  5  1 -1</clus>
</clustering>
</event>
<event>
10    2  0.4951045E-006  0.2614796E+03  0.7546771E-02  0.1143722E+00
         -3   -1    0    0    0  501 -0.00000000000E+00  0.00000000000E+00  0.57155981537E+03  0.57155981537E+03  0.00000000000E+00 0.  1.
         21   -1    0    0  503  502  0.00000000000E+00 -0.00000000000E+00 -0.11205025698E+03  0.11205025698E+03  0.00000000000E+00 0.  1.
         23    2    1    2    0    0 -0.38042358338E+02 -0.40384212409E+02  0.29310244370E+03  0.31171609759E+03  0.90442121560E+02 0.  0.
         23    2    1    2    0    0  0.23603855531E+02 -0.60793784103E+02  0.18718890233E+03  0.21653415473E+03  0.87145446375E+02 0.  0.
        -11    1    3    3    0    0 -0.47955593992E+02  0.18909844649E+01  0.23103806402E+03  0.23597012913E+03  0.00000000000E+00 0.  1.
         11    1    3    3    0    0  0.99132356537E+01 -0.42275196874E+02  0.62064379679E+02  0.75745968453E+02  0.00000000000E+00 0. -1.
        -13    1    4    4    0    0 -0.30196671152E+02 -0.11094128003E+02  0.84370170976E+02  0.90295317571E+02  0.00000000000E+00 0.  1.
         13    1    4    4    0    0  0.53800526682E+02 -0.49699656100E+02  0.10281873136E+03  0.12623883715E+03  0.00000000000E+00 0. -1.
         21    1    1    2  503  501  0.55240480556E+02  0.13213807559E+02 -0.11487425684E+02  0.57948911561E+02  0.00000000000E+00 0.  1.
         -3    1    1    2    0  502 -0.40801977748E+02  0.87964188954E+02 -0.92943619645E+01  0.97410908479E+02  0.00000000000E+00 0.  1.
<scales pt_clust_5="13000.00000" pt_clust_6="13000.00000" pt_clust_7="13000.00000" pt_clust_8="13000.00000" pt_clust_9="56.79890" pt_clust_10="13000.00000"></scales>
<clustering>
<clus scale="   56.799">  2  9  1 -1</clus>
<clus scale="   87.145">  7  8 -1 -1</clus>
<clus scale="   90.442">  5  6 -1 -1</clus>
<clus scale="   97.118">  7 10 -1 -1</clus>
<clus scale="  103.297">  1  5  2 -1</clus>
<clus scale="   56.799">  2  5  1 -1</clus>
</clustering>
</event>
<event>
10    2  0.4951045E-006  0.4651240E+03  0.7546771E-02  0.1079482E+00
         21   -1    0    0  503  502  0.00000000000E+00  0.00000000000E+00  0.64077546019E+03  0.64077546019E+03  0.00000000000E+00 0.  1.
          2   -1    0    0  502    0 -0.00000000000E+00 -0.00000000000E+00 -0.56382651307E+03  0.56382651307E+03  0.00000000000E+00 0. -1.
         23    2    1    2    0    0  0.22689206446E+02 -0.95380912486E+01 -0.13261838654E+03  0.16251822037E+03  0.90657378238E+02 0.  0.
         23    2    1    2    0    0 -0.14649680414E+02  0.10483965450E+03 -0.11174714473E+03  0.17918751898E+03  0.91732089869E+02 0.  0.
        -13    1    4    4    0    0 -0.96857623756E+01  0.57048005632E+02 -0.11732275750E+03  0.13081635359E+03  0.00000000000E+00 0. -1.
         13    1    4    4    0    0 -0.49639180387E+01  0.47791648866E+02  0.55756127689E+01  0.48371165392E+02  0.00000000000E+00 0.  1.
        -13    1    3    3    0    0  0.54790632544E+02 -0.18816405497E+02 -0.10143691044E+03  0.11681402883E+03  0.00000000000E+00 0. -1.
         13    1    3    3    0    0 -0.32101426098E+02  0.92783142488E+01 -0.31181476100E+02  0.45704191543E+02  0.00000000000E+00 0.  1.
         21    1    1    2  503  501 -0.22449630643E+03 -0.31561970012E+03  0.38656825169E+03  0.54721969987E+03  0.00000000000E+00 0.  1.
          2    1    1    2  501    0  0.21645678040E+03  0.22031813687E+03 -0.65253773303E+02  0.31567653404E+03  0.00000000000E+00 0. -1.
<scales pt_clust_5="13000.00000" pt_clust_6="13000.00000" pt_clust_7="13000.00000" pt_clust_8="13000.00000" pt_clust_9="386.30679" pt_clust_10="13000.00000"></scales>
<clustering>
<clus scale="   90.657">  7  8 -1 -1</clus>
<clus scale="   91.732">  5  6 -1 -1</clus>
<clus scale="   93.939">  2  7  1 -1</clus>
<clus scale="  313.196">  5 10 -1 -1</clus>
<clus scale="  386.307">  1  9  2 -1</clus>
<clus scale="  386.307">  1  5  2 -1</clus>
</clustering>
</event>
<event>
10    2  0.4951045E-006  0.2528014E+03  0.7546771E-02  0.1148939E+00
         21   -1    0    0  503  502  0.00000000000E+00  0.00000000000E+00  0.45234397973E+03  0.45234397973E+03  0.00000000000E+00 0.  1.
         -3   -1    0    0    0  501 -0.00000000000E+00 -0.00000000000E+00 -0.12467639192E+03  0.12467639192E+03  0.00000000000E+00 0.  1.
         23    2    1    2    0    0  0.34753986207E+02 -0.37686338545E+02 -0.18092122957E+02  0.10607267041E+03  0.91082307966E+02 0.  0.
         23    2    1    2    0    0  0.80965946892E+02  0.79386664766E+01  0.26769009264E+03  0.29374978100E+03  0.89512240276E+02 0.  0.
        -13    1    3    3    0    0  0.42019411708E+02  0.95329715568E+01  0.17491403207E+02  0.46502233206E+02  0.00000000000E+00 0. -1.
         13    1    3    3    0    0 -0.72654255011E+01 -0.47219310102E+02 -0.35583526165E+02  0.59570437203E+02  0.00000000000E+00 0.  1.
        -13    1    4    4    0    0  0.37085673871E+02 -0.24932177173E+02  0.20781273716E+03  0.21256315389E+03  0.00000000000E+00 0.  1.
         13    1    4    4    0    0  0.43880273022E+02  0.32870843650E+02  0.59877355481E+02  0.81186627114E+02  0.00000000000E+00 0. -1.
         21    1    1    2  503  501 -0.35610690973E+02  0.58579180581E+02  0.57824258249E+02  0.89684371834E+02  0.00000000000E+00 0.  1.
         -3    1    1    2    0  502 -0.80109242126E+02 -0.28831508513E+02  0.20245359879E+02  0.87513548401E+02  0.00000000000E+00 0.  1.
<scales pt_clust_5="13000.00000" pt_clust_6="13000.00000" pt_clust_7="13000.00000" pt_clust_8="13000.00000" pt_clust_9="68.55393" pt_clust_10="13000.00000"></scales>
<clustering>
<clus scale="   68.554">  1  9  2 -1</clus>
<clus scale="   89.512">  7  8 -1 -1</clus>
<clus scale="   87.608">  7 10 -1 -1</clus>
<clus scale="   91.082">  5  6 -1 -1</clus>
<clus scale="  100.930">  2  5  1 -1</clus>
<clus scale="   68.554">  1  5  2 -1</clus>
</clustering>
</event>
<event>
10    2  0.4951045E-006  0.3214105E+03  0.7546771E-02  0.1111466E+00
         21   -1    0    0  503  502  0.00000000000E+00  0.00000000000E+00  0.72235646561E+03  0.72235646561E+03  0.00000000000E+00 0. -1.
          2   -1    0    0  502    0 -0.00000000000E+00 -0.00000000000E+00 -0.11439025884E+03  0.11439025884E+03  0.00000000000E+00 0. -1.
         23    2    1    2    0    0 -0.75120970398E+02 -0.19356332003E+02  0.10116303184E+03  0.15792338377E+03  0.93209486366E+02 0.  0.
         23    2    1    2    0    0  0.20542621794E+02 -0.92120149069E+01 -0.47206049897E+02  0.10644483912E+03  0.92710474590E+02 0.  0.
        -11    1    4    4    0    0 -0.17401147956E+02  0.21013719173E+02 -0.50944111819E+02  0.57789954773E+02  0.00000000000E+00 0.  1.
         11    1    4    4    0    0  0.37943769749E+02 -0.30225734080E+02  0.37380619225E+01  0.48654884342E+02  0.00000000000E+00 0. -1.
        -13    1    3    3    0    0 -0.72530734430E+02 -0.40610494196E+02  0.38320713768E+02  0.91533582797E+02  0.00000000000E+00 0. -1.
         13    1    3    3    0    0 -0.25902359680E+01  0.21254162193E+02  0.62842318071E+02  0.66389800975E+02  0.00000000000E+00 0.  1.
         21    1    1    2  503  501  0.54061149740E+01 -0.47303243361E+02  0.27484790048E+03  0.27894119687E+03  0.00000000000E+00 0. -1.
          2    1    1    2  501    0  0.49172233631E+02  0.75871590272E+02  0.27916132435E+03  0.29343730469E+03  0.00000000000E+00 0. -1.
<scales pt_clust_5="13000.00000" pt_clust_6="13000.00000" pt_clust_7="13000.00000" pt_clust_8="13000.00000" pt_clust_9="47.61116" pt_clust_10="13000.00000"></scales>
<clustering>
<clus scale="   47.611">  1  9  2 -1</clus>
<clus scale="   92.710">  5  6 -1 -1</clus>
<clus scale="   69.564">  5 10 -1 -1</clus>
<clus scale="   93.209">  7  8 -1 -1</clus>
<clus scale="  123.263">  2  7  1 -1</clus>
<clus scale="   47.611">  1  5  2 -1</clus>
</clustering>
</event>
<event>
10    2  0.4951045E-006  0.2399586E+03  0.7546771E-02  0.1148601E+00
         21   -1    0    0  501  502  0.00000000000E+00  0.00000000000E+00  0.21446081454E+03  0.21446081454E+03  0.00000000000E+00 0.  1.
          1   -1    0    0  503    0 -0.00000000000E+00 -0.00000000000E+00 -0.22874840635E+03  0.22874840635E+03  0.00000000000E+00 0. -1.
         23    2    1    2    0    0 -0.36289874455E+02 -0.52719382572E+02 -0.29934838440E+02  0.11471619431E+03  0.90373792647E+02 0.  0.
         23    2    1    2    0    0  0.24653064442E+02  0.49210749166E+02 -0.11447877534E+03  0.15614491172E+03  0.90809537127E+02 0.  0.
        -13    1    3    3    0    0  0.13740094163E+02 -0.44703226828E+02 -0.41746862343E+02  0.62689466356E+02  0.00000000000E+00 0. -1.
         13    1    3    3    0    0 -0.50029968618E+02 -0.80161557440E+01  0.11812023903E+02  0.52026727953E+02  0.00000000000E+00 0.  1.
        -13    1    4    4    0    0  0.89203938231E+01  0.74544843524E+02 -0.70364434384E+02  0.10289635926E+03  0.00000000000E+00 0.  1.
         13    1    4    4    0    0  0.15732670618E+02 -0.25334094358E+02 -0.44114340951E+02  0.53248552462E+02  0.00000000000E+00 0. -1.
         21    1    1    2  503  502 -0.81016230257E+01 -0.52164356590E+02  0.49236100607E+02  0.72186910150E+02  0.00000000000E+00 0.  1.
          1    1    1    2  501    0  0.19738433039E+02  0.55672989996E+02  0.80889921353E+02  0.10016120472E+03  0.00000000000E+00 0. -1.
<scales pt_clust_5="13000.00000" pt_clust_6="13000.00000" pt_clust_7="13000.00000" pt_clust_8="13000.00000" pt_clust_9="52.78974" pt_clust_10="13000.00000"></scales>
<clustering>
<clus scale="   52.790">  1  9  2 -1</clus>
<clus scale="   90.374">  5  6 -1 -1</clus>
<clus scale="   90.810">  7  8 -1 -1</clus>
<clus scale="   29.104">  7 10 -1 -1</clus>
<clus scale="  118.971">  2  5  1 -1</clus>
<clus scale="   52.790">  1  5  2 -1</clus>
</clustering>
</event>
<event>
10    2  0.4951045E-006  0.6415533E+03  0.7546771E-02  0.1021527E+00
         21   -1    0    0  501  502  0.00000000000E+00  0.00000000000E+00  0.21090501972E+03  0.21090501972E+03  0.00000000000E+00 0. -1.
          2   -1    0    0  503    0 -0.00000000000E+00 -0.00000000000E+00 -0.13359289916E+04  0.13359289916E+04  0.00000000000E+00 0. -1.
         23    2    1    2    0    0 -0.16545753807E+03 -0.27682234881E+02 -0.72413397608E+03  0.74762159685E+03  0.80159426941E+02 0.  0.
         23    2    1    2    0    0  0.39193553064E+03  0.90082596843E+02 -0.15452857589E+03  0.44025124263E+03  0.90629693998E+02 0.  0.
        -11    1    4    4    0    0  0.11842995489E+03  0.23450443607E+02 -0.92249300756E+02  0.15193916878E+03  0.00000000000E+00 0.  1.
         11    1    4    4    0    0  0.27350557576E+03  0.66632153236E+02 -0.62279275134E+02  0.28831207385E+03  0.00000000000E+00 0. -1.
        -11    1    3    3    0    0 -0.95899327135E+02  0.22176869956E+02 -0.44018314719E+03  0.45105398522E+03  0.00000000000E+00 0.  1.
         11    1    3    3    0    0 -0.69558210939E+02 -0.49859104837E+02 -0.28395082889E+03  0.29656761163E+03  0.00000000000E+00 0. -1.
         21    1    1    2  503  502 -0.25745617379E+02  0.30058005312E+02 -0.45677482883E+02  0.60438009068E+02  0.00000000000E+00 0.  1.
          2    1    1    2  501    0 -0.20073237519E+03 -0.92458367275E+02 -0.20068393703E+03  0.29852316277E+03  0.00000000000E+00 0. -1.
<scales pt_clust_5="13000.00000" pt_clust_6="13000.00000" pt_clust_7="13000.00000" pt_clust_8="13000.00000" pt_clust_9="39.57679" pt_clust_10="13000.00000"></scales>
<clustering>
<clus scale="   39.577">  1  9  2 -1</clus>
<clus scale="   80.159">  7  8 -1 -1</clus>
<clus scale="   90.630">  5  6 -1 -1</clus>
<clus scale="  187.000">  2  7  1 -1</clus>
<clus scale="  302.761">  5 10 -1 -1</clus>
<clus scale="   39.577">  1  5  2 -1</clus>
</clustering>
</event>
<event>
10    2  0.4951045E-006  0.3926688E+03  0.7546771E-02  0.1087811E+00
         21   -1    0    0  501  502  0.00000000000E+00  0.00000000000E+00  0.19208779124E+03  0.19208779124E+03  0.00000000000E+00 0. -1.
          2   -1    0    0  503    0 -0.00000000000E+00 -0.00000000000E+00 -0.14554938421E+04  0.14554938421E+04  0.00000000000E+00 0. -1.
         23    2    1    2    0    0 -0.72591851578E+02 -0.50727876114E+02 -0.51317210370E+03  0.52816271266E+03  0.88132563209E+02 0.  0.
         23    2    1    2    0    0  0.17034376017E+03  0.25664010216E+03 -0.68784588027E+03  0.75899247423E+03  0.89757909210E+02 0.  0.
        -11    1    4    4    0    0  0.10215761313E+03  0.10488406597E+03 -0.23872863782E+03  0.28005036641E+03  0.00000000000E+00 0. -1.
         11    1    4    4    0    0  0.68186147033E+02  0.15175603619E+03 -0.44911724245E+03  0.47894210781E+03  0.00000000000E+00 0.  1.
        -13    1    3    3    0    0 -0.91439681989E+02 -0.34858979675E+02 -0.44612639298E+03  0.45673309757E+03  0.00000000000E+00 0.  1.
         13    1    3    3    0    0  0.18847830411E+02 -0.15868896439E+02 -0.67045710724E+02  0.71429615090E+02  0.00000000000E+00 0. -1.
         21    1    1    2  503  502 -0.14371772524E+03 -0.10882530991E+03  0.66946778092E+02  0.19230081571E+03  0.00000000000E+00 0. -1.
          2    1    1    2  501    0  0.45965816657E+02 -0.97086916134E+02 -0.12933484498E+03  0.16812563074E+03  0.00000000000E+00 0. -1.
<scales pt_clust_5="13000.00000" pt_clust_6="13000.00000" pt_clust_7="13000.00000" pt_clust_8="13000.00000" pt_clust_9="186.20475" pt_clust_10="13000.00000"></scales>
<clustering>
<clus scale="   88.133">  7  8 -1 -1</clus>
<clus scale="   89.758">  5  6 -1 -1</clus>
<clus scale="  107.419">  5 10 -1 -1</clus>
<clus scale="  124.941">  2  7  1 -1</clus>
<clus scale="  186.205">  1  9  2 -1</clus>
<clus scale="  186.205">  1  5  2 -1</clus>
</clustering>
</event>
<event>
10    2  0.4951045E-006  0.2545580E+03  0.7546771E-02  0.1114281E+00
          3   -1    0    0  502    0 -0.00000000000E+00  0.00000000000E+00  0.11035514887E+04  0.11035514887E+04  0.00000000000E+00 0. -1.
         21   -1    0    0  503  502  0.00000000000E+00 -0.00000000000E+00 -0.80096079092E+02  0.80096079092E+02  0.00000000000E+00 0.  1.
         23    2    1    2    0    0 -0.18044775248E+03  0.75401584476E+02  0.15613351493E+03  0.26679343411E+03  0.92489305765E+02 0.  0.
         23    2    1    2    0    0  0.98629197317E+02 -0.70123246743E+02  0.58052288465E+03  0.60035803045E+03  0.93690751016E+02 0.  0.
        -11    1    4    4    0    0  0.95660569518E+01 -0.27714071667E+02  0.33524827712E+02  0.44536426519E+02  0.00000000000E+00 0.  1.
         11    1    4    4    0    0  0.89063140365E+02 -0.42409175076E+02  0.54699805694E+03  0.55582160393E+03  0.00000000000E+00 0. -1.
        -11    1    3    3    0    0 -0.13137293803E+03  0.45754559834E+02  0.53140220262E+02  0.14891679422E+03  0.00000000000E+00 0.  1.
         11    1    3    3    0    0 -0.49074814451E+02  0.29647024643E+02  0.10299329467E+03  0.11787663989E+03  0.00000000000E+00 0. -1.
         21    1    1    2  503  501 -0.19649289174E+02  0.94560868804E+01  0.16324615632E+02  0.27239772754E+02  0.00000000000E+00 0.  1.
          3    1    1    2  501    0  0.10146784433E+03 -0.14734424614E+02  0.27047439440E+03  0.28925633049E+03  0.00000000000E+00 0. -1.
<scales pt_clust_5="13000.00000" pt_clust_6="13000.00000" pt_clust_7="13000.00000" pt_clust_8="13000.00000" pt_clust_9="21.80624" pt_clust_10="13000.00000"></scales>
<clustering>
<clus scale="   21.806">  2  9  1 -1</clus>
<clus scale="   92.489">  7  8 -1 -1</clus>
<clus scale="   93.691">  5  6 -1 -1</clus>
<clus scale="   99.918">  5 10 -1 -1</clus>
<clus scale="  231.033">  1  7  2 -1</clus>
<clus scale="   21.806">  2  5  1 -1</clus>
</clustering>
</event>
<event>
10    2  0.4951045E-006  0.2262178E+03  0.7546771E-02  0.1143208E+00
         -2   -1    0    0    0  501 -0.00000000000E+00  0.00000000000E+00  0.92446638030E+02  0.92446638030E+02  0.00000000000E+00 0.  1.
         21   -1    0    0  501  502  0.00000000000E+00 -0.00000000000E+00 -0.90520148815E+03  0.90520148815E+03  0.00000000000E+00 0.  1.
         23    2    1    2    0    0 -0.17535304770E+03  0.70450812438E+02 -0.29615185390E+03  0.36232962464E+03  0.88683865561E+02 0.  0.
         23    2    1    2    0    0  0.91743248552E+01 -0.45666195020E+01 -0.12992745889E+02  0.92829985600E+02  0.91343158094E+02 0.  0.
        -13    1    3    3    0    0 -0.63373315343E+01  0.26023641087E+02 -0.80029781040E+02  0.84392876001E+02  0.00000000000E+00 0. -1.
         13    1    3    3    0    0 -0.16901571617E+03  0.44427171351E+02 -0.21612207286E+03  0.27793674864E+03  0.00000000000E+00 0.  1.
        -13    1    4    4    0    0  0.13415996245E+02  0.36299928509E+02 -0.29387950377E+02  0.48593470676E+02  0.00000000000E+00 0.  1.
         13    1    4    4    0    0 -0.42416713894E+01 -0.40866548011E+02  0.16395204488E+02  0.44236514925E+02  0.00000000000E+00 0. -1.
         21    1    1    2  503  502  0.79590483000E+02 -0.34662889103E+02 -0.37128268792E+03  0.38129646630E+03  0.00000000000E+00 0.  1.
         -2    1    1    2    0  503  0.86588239848E+02 -0.31221303834E+02 -0.13232756241E+03  0.16119204964E+03  0.00000000000E+00 0.  1.
<scales pt_clust_5="13000.00000" pt_clust_6="13000.00000" pt_clust_7="13000.00000" pt_clust_8="13000.00000" pt_clust_9="86.81106" pt_clust_10="13000.00000"></scales>
<clustering>
<clus scale="   86.811">  2  9  1 -1</clus>
<clus scale="   88.684">  5  6 -1 -1</clus>
<clus scale="   91.343">  7  8 -1 -1</clus>
<clus scale="  116.093">  7 10 -1 -1</clus>
<clus scale="  161.497">  1  5  2 -1</clus>
<clus scale="   86.811">  2  5  1 -1</clus>
</clustering>
</event>
<event>
10    2  0.4951045E-006  0.3994202E+03  0.7546771E-02  0.1044892E+00
         -3   -1    0    0    0  501 -0.00000000000E+00  0.00000000000E+00  0.43846271601E+03  0.43846271601E+03  0.00000000000E+00 0.  1.
         21   -1    0    0  503  502  0.00000000000E+00 -0.00000000000E+00 -0.10449590156E+04  0.10449590156E+04  0.00000000000E+00 0.  1.
         23    2    1    2    0    0  0.76656510729E+02 -0.37243412862E+03  0.48756739234E+02  0.39395287964E+03  0.90764811220E+02 0.  0.
         23    2    1    2    0    0  0.77110509099E+02  0.19566194619E+03 -0.10066830591E+02  0.22919681947E+03  0.90555028432E+02 0.  0.
        -13    1    3    3    0    0 -0.16444548988E+02 -0.10055996280E+03 -0.30784330068E+01  0.10194217018E+03  0.00000000000E+00 0. -1.
         13    1    3    3    0    0  0.93101059717E+02 -0.27187416582E+03  0.51835172241E+02  0.29201070946E+03  0.00000000000E+00 0.  1.
        -13    1    4    4    0    0  0.93787419703E+02  0.14592878533E+03  0.81741177359E+01  0.17366089567E+03  0.00000000000E+00 0.  1.
         13    1    4    4    0    0 -0.16676910604E+02  0.49733160863E+02 -0.18240948327E+02  0.55535923802E+02  0.00000000000E+00 0. -1.
         21    1    1    2  503  501 -0.19720653159E+03 -0.13201185768E+02 -0.63508950140E+03  0.66513409340E+03  0.00000000000E+00 0.  1.
         -3    1    1    2    0  502  0.43439511762E+02  0.18997336820E+03 -0.10096706874E+02  0.19513793915E+03  0.00000000000E+00 0.  1.
<scales pt_clust_5="13000.00000" pt_clust_6="13000.00000" pt_clust_7="13000.00000" pt_clust_8="13000.00000" pt_clust_9="197.64789" pt_clust_10="13000.00000"></scales>
<clustering>
<clus scale="   90.555">  7  8 -1 -1</clus>
<clus scale="   90.765">  5  6 -1 -1</clus>
<clus scale="  194.877">  7 10 -1 -1</clus>
<clus scale="  197.648">  2  9  1 -1</clus>
<clus scale="  389.061">  1  5  2 -1</clus>
<clus scale="  197.648">  2  5  1 -1</clus>
</clustering>
</event>
<event>
10    2  0.4951045E-006  0.1500138E+03  0.7546771E-02  0.1208600E+00
          2   -1    0    0  503    0 -0.00000000000E+00  0.00000000000E+00  0.66379696128E+03  0.66379696128E+03  0.00000000000E+00 0. -1.
         21   -1    0    0  501  502  0.00000000000E+00 -0.00000000000E+00 -0.58593426497E+02  0.58593426497E+02  0.00000000000E+00 0.  1.
         23    2    1    2    0    0 -0.70508570618E+02 -0.75264163353E+02  0.17790216990E+03  0.22785613305E+03  0.98148267931E+02 0.  0.
         23    2    1    2    0    0  0.26989567700E+02  0.17410488910E+02  0.35575749559E+03  0.37002147633E+03  0.96544991548E+02 0.  0.
        -11    1    3    3    0    0 -0.78064845270E+02 -0.12431023836E+02  0.96258004507E+02  0.12455622767E+03  0.00000000000E+00 0.  1.
         11    1    3    3    0    0  0.75562746519E+01 -0.62833139517E+02  0.81644165393E+02  0.10329990538E+03  0.00000000000E+00 0. -1.
        -13    1    4    4    0    0 -0.14946905355E+02 -0.32955788440E+02  0.12299516146E+03  0.12820804855E+03  0.00000000000E+00 0.  1.
         13    1    4    4    0    0  0.41936473055E+02  0.50366277350E+02  0.23276233413E+03  0.24181342778E+03  0.00000000000E+00 0. -1.
         21    1    1    2  503  502  0.29551364084E+02  0.21559572628E+02 -0.66524007709E+01  0.37180004399E+02  0.00000000000E+00 0. -1.
          2    1    1    2  501    0  0.13967638833E+02  0.36294101815E+02  0.78196270067E+02  0.87332773995E+02  0.00000000000E+00 0. -1.
<scales pt_clust_5="13000.00000" pt_clust_6="13000.00000" pt_clust_7="13000.00000" pt_clust_8="13000.00000" pt_clust_9="36.58003" pt_clust_10="13000.00000"></scales>
<clustering>
<clus scale="   36.580">  2  9  1 -1</clus>
<clus scale="   96.545">  7  8 -1 -1</clus>
<clus scale="   42.789">  7 10 -1 -1</clus>
<clus scale="   98.148">  5  6 -1 -1</clus>
<clus scale="  125.865">  1  5  2 -1</clus>
<clus scale="   36.580">  2  5  1 -1</clus>
</clustering>
</event>
<event>
10    2  0.4951045E-006  0.2905809E+03  0.7546771E-02  0.1126618E+00
         -3   -1    0    0    0  501 -0.00000000000E+00  0.00000000000E+00  0.26957238345E+03  0.26957238345E+03  0.00000000000E+00 0.  1.
         21   -1    0    0  503  502  0.00000000000E+00 -0.00000000000E+00 -0.25031451526E+03  0.25031451526E+03  0.00000000000E+00 0. -1.
         23    2    1    2    0    0 -0.62212836166E+02  0.30601381372E+02  0.13515467144E+03  0.17707296283E+03  0.91000919928E+02 0.  0.
         23    2    1    2    0    0 -0.36985162452E+02  0.68079202381E+02 -0.56759956760E+00  0.13685011266E+03  0.11280492510E+03 0.  0.
        -11    1    3    3    0    0  0.37142368871E+01 -0.21312542377E+02  0.49858080857E+01  0.22200862607E+02  0.00000000000E+00 0.  1.
         11    1    3    3    0    0 -0.65927073054E+02  0.51913923750E+02  0.13016886336E+03  0.15487210023E+03  0.00000000000E+00 0. -1.
        -11    1    4    4    0    0 -0.76625593190E+01  0.95171159929E+02 -0.94689225463E+01  0.95947511649E+02  0.00000000000E+00 0. -1.
         11    1    4    4    0    0 -0.29322603133E+02 -0.27091957548E+02  0.89013229787E+01  0.40902601006E+02  0.00000000000E+00 0.  1.
         21    1    1    2  503  501  0.14087198926E+02  0.16981851932E+02 -0.35129536462E+02  0.41483934248E+02  0.00000000000E+00 0.  1.
         -3    1    1    2    0  502  0.85110799692E+02 -0.11566243569E+03 -0.80199667226E+02  0.16447988897E+03  0.00000000000E+00 0.  1.
<scales pt_clust_5="13000.00000" pt_clust_6="13000.00000" pt_clust_7="13000.00000" pt_clust_8="13000.00000" pt_clust_9="22.06428" pt_clust_10="13000.00000"></scales>
<clustering>
<clus scale="   22.064">  2  9  1 -1</clus>
<clus scale="   91.001">  5  6 -1 -1</clus>
<clus scale="  112.805">  7  8 -1 -1</clus>
<clus scale="  114.115">  1  5  2 -1</clus>
<clus scale="  117.507">  7 10 -1 -1</clus>
<clus scale="   22.064">  2  5  1 -1</clus>
</clustering>
</event>
<event>
10    2  0.4951045E-006  0.1619043E+03  0.7546771E-02  0.1213396E+00
         21   -1    0    0  501  502  0.00000000000E+00  0.00000000000E+00  0.25261428236E+03  0.25261428236E+03  0.00000000000E+00 0.  1.
          1   -1    0    0  503    0 -0.00000000000E+00 -0.00000000000E+00 -0.92163795747E+02  0.92163795747E+02  0.00000000000E+00 0. -1.
         23    2    1    2    0    0 -0.30561549601E+01 -0.15411643876E+02  0.25426083413E+02  0.94975647881E+02  0.90150036731E+02 0.  0.
         23    2    1    2    0    0  0.27739881147E+02 -0.76289468582E+01  0.64818060985E+01  0.94246004768E+02  0.89513092720E+02 0.  0.
        -11    1    3    3    0    0 -0.31733299177E+02  0.69817656329E+01  0.43543090359E+02  0.54329992141E+02  0.00000000000E+00 0. -1.
         11    1    3    3    0    0  0.28677144217E+02 -0.22393409509E+02 -0.18117006946E+02  0.40645655741E+02  0.00000000000E+00 0.  1.
        -13    1    4    4    0    0  0.93403642948E+01  0.22235606289E+02 -0.33358755159E+02  0.41163954352E+02  0.00000000000E+00 0. -1.
         13    1    4    4    0    0  0.18399516852E+02 -0.29864553147E+02  0.39840561257E+02  0.53082050416E+02  0.00000000000E+00 0.  1.
         21    1    1    2  503  502  0.22439882662E+02  0.32456695884E+02  0.54443920230E+02  0.67239318048E+02  0.00000000000E+00 0.  1.
          1    1    1    2  501    0 -0.47123608849E+02 -0.94161051492E+01  0.74098676874E+02  0.88317107412E+02  0.00000000000E+00 0. -1.
<scales pt_clust_5="13000.00000" pt_clust_6="13000.00000" pt_clust_7="13000.00000" pt_clust_8="13000.00000" pt_clust_9="39.45865" pt_clust_10="13000.00000"></scales>
<clustering>
<clus scale="   39.459">  1  9  2 -1</clus>
<clus scale="   89.513">  7  8 -1 -1</clus>
<clus scale="   37.869">  7 10 -1 -1</clus>
<clus scale="   90.150">  5  6 -1 -1</clus>
<clus scale="   90.389">  2  5  1 -1</clus>
<clus scale="   39.459">  1  5  2 -1</clus>
</clustering>
</event>
<event>
10    2  0.4951045E-006  0.1398836E+03  0.7546771E-02  0.1225251E+00
          2   -1    0    0  502    0 -0.00000000000E+00  0.00000000000E+00  0.17106085272E+03  0.17106085272E+03  0.00000000000E+00 0. -1.
         21   -1    0    0  503  502  0.00000000000E+00 -0.00000000000E+00 -0.38322091710E+03  0.38322091710E+03  0.00000000000E+00 0.  1.
         23    2    1    2    0    0  0.27599425347E+02 -0.28764084932E+02  0.34700069382E+02  0.10598401624E+03  0.91866294261E+02 0.  0.
         23    2    1    2    0    0 -0.20668751512E+02  0.57946134106E+02 -0.25963392632E+01  0.10790202515E+03  0.88606739624E+02 0.  0.
        -11    1    3    3    0    0 -0.62307647468E+01 -0.48074576918E+02  0.44513182227E+02  0.65813454302E+02  0.00000000000E+00 0. -1.
         11    1    3    3    0    0  0.33830190094E+02  0.19310491986E+02 -0.98131128448E+01  0.40170561936E+02  0.00000000000E+00 0.  1.
        -13    1    4    4    0    0  0.15279860788E+02  0.21555445638E+02  0.35405932009E+02  0.44177951557E+02  0.00000000000E+00 0.  1.
         13    1    4    4    0    0 -0.35948612300E+02  0.36390688467E+02 -0.38002271272E+02  0.63724073592E+02  0.00000000000E+00 0. -1.
         21    1    1    2  503  501 -0.29414470157E+02 -0.89923384157E+02 -0.25746197293E+03  0.27429563171E+03  0.00000000000E+00 0.  1.
          2    1    1    2  501    0  0.22483796321E+02  0.60741334983E+02  0.13198178429E+02  0.66100096720E+02  0.00000000000E+00 0. -1.
<scales pt_clust_5="13000.00000" pt_clust_6="13000.00000" pt_clust_7="13000.00000" pt_clust_8="13000.00000" pt_clust_9="94.61198" pt_clust_10="13000.00000"></scales>
<clustering>
<clus scale="   88.607">  7  8 -1 -1</clus>
<clus scale="   64.769">  7 10 -1 -1</clus>
<clus scale="   91.866">  5  6 -1 -1</clus>
<clus scale="   94.612">  2  9  1 -1</clus>
<clus scale="  109.236">  1  5  2 -1</clus>
<clus scale="   94.612">  2  5  1 -1</clus>
</clustering>
</event>
<event>
10    2  0.4951045E-006  0.2939057E+03  0.7546771E-02  0.1104317E+00
         21   -1    0    0  501  502  0.00000000000E+00  0.00000000000E+00  0.26212649644E+03  0.26212649644E+03  0.00000000000E+00 0. -1.
          1   -1    0    0  503    0 -0.00000000000E+00 -0.00000000000E+00 -0.65072561334E+03  0.65072561334E+03  0.00000000000E+00 0. -1.
         23    2    1    2    0    0 -0.67520207216E+02  0.16524421038E+03 -0.52508254193E+03  0.56043656047E+03  0.80702137696E+02 0.  0.
         23    2    1    2    0    0  0.28760718241E+02  0.18881493170E+02  0.99619259356E+02  0.14045573969E+03  0.92844645944E+02 0.  0.
        -11    1    4    4    0    0 -0.25339181911E+02 -0.77525005525E+01  0.31424307711E+01  0.26684270196E+02  0.00000000000E+00 0.  1.
         11    1    4    4    0    0  0.54099900153E+02  0.26633993723E+02  0.96476828585E+02  0.11377146950E+03  0.00000000000E+00 0. -1.
        -13    1    3    3    0    0 -0.65367815519E+02  0.57587597699E+02 -0.20555699466E+03  0.22325537120E+03  0.00000000000E+00 0.  1.
         13    1    3    3    0    0 -0.21523916977E+01  0.10765661268E+03 -0.31952554727E+03  0.33718118928E+03  0.00000000000E+00 0. -1.
         21    1    1    2  503  502  0.40448032227E+02 -0.21022879649E+02  0.65033982065E+01  0.46046704204E+02  0.00000000000E+00 0.  1.
          1    1    1    2  501    0 -0.16885432522E+01 -0.16310282390E+03  0.30360767470E+02  0.16591310540E+03  0.00000000000E+00 0. -1.
<scales pt_clust_5="13000.00000" pt_clust_6="13000.00000" pt_clust_7="13000.00000" pt_clust_8="13000.00000" pt_clust_9="45.58514" pt_clust_10="13000.00000"></scales>
<clustering>
<clus scale="   45.585">  1  9  2 -1</clus>
<clus scale="   80.702">  7  8 -1 -1</clus>
<clus scale="   92.845">  5  6 -1 -1</clus>
<clus scale="  172.516">  5 10 -1 -1</clus>
<clus scale="  193.543">  2  7  1 -1</clus>
<clus scale="   45.585">  1  5  2 -1</clus>
</clustering>
</event>
<event>
10    2  0.4951045E-006  0.3851264E+03  0.7546771E-02  0.1056365E+00
         21   -1    0    0  503  502  0.00000000000E+00  0.00000000000E+00  0.12958343058E+03  0.12958343058E+03  0.00000000000E+00 0.  1.
          1   -1    0    0  502    0 -0.00000000000E+00 -0.00000000000E+00 -0.11632958477E+04  0.11632958477E+04  0.00000000000E+00 0. -1.
         23    2    1    2    0    0 -0.19447643183E+03  0.20322164624E+03 -0.34858640052E+03  0.45691924818E+03  0.90236360138E+02 0.  0.
         23    2    1    2    0    0 -0.20584802382E+00 -0.11244340945E+02 -0.13517395486E+03  0.16156371076E+03  0.87774466600E+02 0.  0.
        -13    1    3    3    0    0 -0.39372400208E+02  0.63695004466E+02 -0.15578120442E+03  0.17284392713E+03  0.00000000000E+00 0.  1.
         13    1    3    3    0    0 -0.15510403162E+03  0.13952664177E+03 -0.19280519609E+03  0.28407532105E+03  0.00000000000E+00 0. -1.
        -13    1    4    4    0    0 -0.24846825322E+02 -0.41037004383E+02 -0.90918490975E+02  0.10279869872E+03  0.00000000000E+00 0. -1.
         13    1    4    4    0    0  0.24640977298E+02  0.29792663438E+02 -0.44255463883E+02  0.58765012043E+02  0.00000000000E+00 0.  1.
         21    1    1    2  503  501 -0.33959423618E+02  0.18028460203E+02  0.47376906237E+01  0.38739044157E+02  0.00000000000E+00 0.  1.
          1    1    1    2  501    0  0.22864170348E+03 -0.21000576549E+03 -0.55468975233E+03  0.63565727515E+03  0.00000000000E+00 0. -1.
<scales pt_clust_5="13000.00000" pt_clust_6="13000.00000" pt_clust_7="13000.00000" pt_clust_8="13000.00000" pt_clust_9="38.44825" pt_clust_10="13000.00000"></scales>
<clustering>
<clus scale="   38.448">  1  9  2 -1</clus>
<clus scale="   87.774">  7  8 -1 -1</clus>
<clus scale="   90.236">  5  6 -1 -1</clus>
<clus scale="  296.506">  7 10 -1 -1</clus>
<clus scale="  312.970">  2  5  1 -1</clus>
<clus scale="   38.448">  1  5  2 -1</clus>
</clustering>
</event>
<event>
10    2  0.4951045E-006  0.3980507E+03  0.7546771E-02  0.1095624E+00
          2   -1    0    0  502    0 -0.00000000000E+00  0.00000000000E+00  0.12215163997E+04  0.12215163997E+04  0.00000000000E+00 0. -1.
         21   -1    0    0  503  502  0.00000000000E+00 -0.00000000000E+00 -0.22920142221E+03  0.22920142221E+03  0.00000000000E+00 0. -1.
         23    2    1    2    0    0  0.42508507339E+01 -0.35712666405E+02  0.37544153448E+03  0.38792605531E+03  0.90756896700E+02 0.  0.
         23    2    1    2    0    0 -0.10759425373E+03 -0.12926788392E+02  0.43534420792E+03  0.45703304680E+03  0.87241052287E+02 0.  0.
        -11    1    4    4    0    0 -0.34981477472E+02  0.34865620006E+02  0.11617915289E+03  0.12624147809E+03  0.00000000000E+00 0.  1.
         11    1    4    4    0    0 -0.72612776258E+02 -0.47792408398E+02  0.31916505503E+03  0.33079156871E+03  0.00000000000E+00 0. -1.
        -11    1    3    3    0    0  0.63816134877E+01  0.26365259105E+02  0.52809404363E+02  0.59369058166E+02  0.00000000000E+00 0.  1.
         11    1    3    3    0    0 -0.21307627538E+01 -0.62077925509E+02  0.32263213012E+03  0.32855699714E+03  0.00000000000E+00 0. -1.
         21    1    1    2  503  501 -0.11586383646E+03  0.10975574510E+03 -0.13969237672E+03  0.21209599783E+03  0.00000000000E+00 0. -1.
          2    1    1    2  501    0  0.21920723945E+03 -0.61116290303E+02  0.32122161181E+03  0.39366272196E+03  0.00000000000E+00 0. -1.
<scales pt_clust_5="13000.00000" pt_clust_6="13000.00000" pt_clust_7="13000.00000" pt_clust_8="13000.00000" pt_clust_9="158.40698" pt_clust_10="13000.00000"></scales>
<clustering>
<clus scale="   87.241">  5  6 -1 -1</clus>
<clus scale="   90.757">  7  8 -1 -1</clus>
<clus scale="   97.623">  1  7  2 -1</clus>
<clus scale="  158.407">  2  9  1 -1</clus>
<clus scale="  138.016">  5 10 -1 -1</clus>
<clus scale="  158.407">  2  5  1 -1</clus>
</clustering>
</event>
<event>
10    2  0.4951045E-006  0.1305510E+03  0.7546771E-02  0.1237273E+00
         -1   -1    0    0    0  501 -0.00000000000E+00  0.00000000000E+00  0.71256026727E+03  0.71256026727E+03  0.00000000000E+00 0.  1.
         21   -1    0    0  501  502  0.00000000000E+00 -0.00000000000E+00 -0.17573179447E+03  0.17573179447E+03  0.00000000000E+00 0.  1.
         23    2    1    2    0    0 -0.41973297830E+02  0.50446928179E+01  0.26322494266E+03  0.28191867708E+03  0.91670951742E+02 0.  0.
         23    2    1    2    0    0  0.43093836921E+02 -0.13585052296E+02  0.26305325236E+03  0.28133556298E+03  0.88944100392E+02 0.  0.
        -11    1    4    4    0    0 -0.23422977939E+02 -0.12755850886E+02  0.36423008586E+02  0.45144027090E+02  0.00000000000E+00 0. -1.
         11    1    4    4    0    0  0.66516814860E+02 -0.82920141002E+00  0.22663024377E+03  0.23619153589E+03  0.00000000000E+00 0.  1.
        -11    1    3    3    0    0  0.35593029536E+01 -0.36013229303E+02  0.13536734140E+03  0.14012115629E+03  0.00000000000E+00 0. -1.
         11    1    3    3    0    0 -0.45532600784E+02  0.41057922120E+02  0.12785760126E+03  0.14179752079E+03  0.00000000000E+00 0.  1.
         21    1    1    2  503  502 -0.18948223045E+02 -0.14084513907E+02 -0.15510767312E+03  0.15689422854E+03  0.00000000000E+00 0.  1.
         -1    1    1    2    0  503  0.17827683955E+02  0.22624873385E+02  0.16565795091E+03  0.16814359313E+03  0.00000000000E+00 0.  1.
<scales pt_clust_5="13000.00000" pt_clust_6="13000.00000" pt_clust_7="13000.00000" pt_clust_8="13000.00000" pt_clust_9="23.60950" pt_clust_10="13000.00000"></scales>
<clustering>
<clus scale="   23.610">  2  9  1 -1</clus>
<clus scale="   88.944">  5  6 -1 -1</clus>
<clus scale="   27.372">  5 10 -1 -1</clus>
<clus scale="   91.671">  7  8 -1 -1</clus>
<clus scale="  104.891">  1  7  2 -1</clus>
<clus scale="   23.610">  2  5  1 -1</clus>
</clustering>
</event>
<event>
10    2  0.4951045E-006  0.1503821E+03  0.7546771E-02  0.1203653E+00
         21   -1    0    0  501  502  0.00000000000E+00  0.00000000000E+00  0.21375169292E+03  0.21375169292E+03  0.00000000000E+00 0.  1.
          1   -1    0    0  503    0 -0.00000000000E+00 -0.00000000000E+00 -0.20395831851E+03  0.20395831851E+03  0.00000000000E+00 0. -1.
         23    2    1    2    0    0  0.64616089258E+02 -0.59046578235E+02  0.66475335062E+02  0.14161036694E+03  0.89290472405E+02 0.  0.
         23    2    1    2    0    0 -0.68017776235E+02  0.50997046333E+02 -0.10888098666E+03  0.16436548353E+03  0.89072028725E+02 0.  0.
        -13    1    3    3    0    0  0.14053852921E+02 -0.66726399914E+02  0.58509704794E+02  0.89851593099E+02  0.00000000000E+00 0.  1.
         13    1    3    3    0    0  0.50562236337E+02  0.76798216789E+01  0.79656302686E+01  0.51758773845E+02  0.00000000000E+00 0. -1.
        -13    1    4    4    0    0  0.21006795832E+02  0.13247049928E+02 -0.33793405707E+02  0.41937621203E+02  0.00000000000E+00 0.  1.
         13    1    4    4    0    0 -0.89024572067E+02  0.37749996405E+02 -0.75087580950E+02  0.12242786232E+03  0.00000000000E+00 0. -1.
         21    1    1    2  503  502  0.15509104926E+02 -0.20885590071E+02  0.70689041337E+02  0.75323839343E+02  0.00000000000E+00 0.  1.
          1    1    1    2  501    0 -0.12107417949E+02  0.28935121973E+02 -0.18490015339E+02  0.36410321617E+02  0.00000000000E+00 0. -1.
<scales pt_clust_5="13000.00000" pt_clust_6="13000.00000" pt_clust_7="13000.00000" pt_clust_8="13000.00000" pt_clust_9="26.01423" pt_clust_10="13000.00000"></scales>
<clustering>
<clus scale="   26.014">  1  9  2 -1</clus>
<clus scale="   89.072">  7  8 -1 -1</clus>
<clus scale="   29.761">  7 10 -1 -1</clus>
<clus scale="   89.290">  5  6 -1 -1</clus>
<clus scale="  138.958">  2  5  1 -1</clus>
<clus scale="   26.014">  1  5  2 -1</clus>
</clustering>
</event>
<event>
10    2  0.4951045E-006  0.2649949E+03  0.7546771E-02  0.1144040E+00
         -1   -1    0    0    0  501 -0.00000000000E+00  0.00000000000E+00  0.32075289270E+03  0.32075289270E+03  0.00000000000E+00 0.  1.
         21   -1    0    0  503  502  0.00000000000E+00 -0.00000000000E+00 -0.14732823669E+03  0.14732823669E+03  0.00000000000E+00 0.  1.
         23    2    1    2    0    0  0.54099793603E+02 -0.15702005074E+02  0.80457703305E+02  0.12996873643E+03  0.85118093242E+02 0.  0.
         23    2    1    2    0    0 -0.10369037265E+03  0.65481283204E+02  0.92751045932E+02  0.17877750058E+03  0.91209354580E+02 0.  0.
        -11    1    3    3    0    0  0.56526799330E+02  0.23786714043E+02  0.58332901361E+02  0.84639318220E+02  0.00000000000E+00 0. -1.
         11    1    3    3    0    0 -0.24270057270E+01 -0.39488719118E+02  0.22124801943E+02  0.45329418211E+02  0.00000000000E+00 0.  1.
        -13    1    4    4    0    0 -0.77376757042E+02  0.86822663756E+02  0.56974481518E+02  0.12950455211E+03  0.00000000000E+00 0.  1.
         13    1    4    4    0    0 -0.26313615606E+02 -0.21341380553E+02  0.35776564414E+02  0.49272948475E+02  0.00000000000E+00 0. -1.
         21    1    1    2  503  501 -0.23661807011E+02  0.28127740405E+02 -0.30839271723E+02  0.47980324840E+02  0.00000000000E+00 0. -1.
         -1    1    1    2    0  502  0.73252386056E+02 -0.77907018534E+02  0.31055178496E+02  0.11135456754E+03  0.00000000000E+00 0.  1.
<scales pt_clust_5="13000.00000" pt_clust_6="13000.00000" pt_clust_7="13000.00000" pt_clust_8="13000.00000" pt_clust_9="36.75664" pt_clust_10="13000.00000"></scales>
<clustering>
<clus scale="   36.757">  2  9  1 -1</clus>
<clus scale="   85.118">  5  6 -1 -1</clus>
<clus scale="   91.209">  7  8 -1 -1</clus>
<clus scale="   93.286">  7 10 -1 -1</clus>
<clus scale="   98.487">  1  5  2 -1</clus>
<clus scale="   36.757">  2  5  1 -1</clus>
</clustering>
</event>
<event>
10    2  0.1871377E-005  0.2323860E+03  0.7546771E-02  0.1157111E+00
         -4   -1    0    0    0  501 -0.00000000000E+00  0.00000000000E+00  0.39038064983E+03  0.39038064983E+03  0.00000000000E+00 0.  1.
         21   -1    0    0  501  502  0.00000000000E+00 -0.00000000000E+00 -0.59416023689E+03  0.59416023689E+03  0.00000000000E+00 0. -1.
         23    2    1    2    0    0 -0.43175318474E+02 -0.13202811407E+02  0.53328331422E+02  0.11780289392E+03  0.94842967743E+02 0.  0.
         23    2    1    2    0    0  0.63102749402E+02 -0.23210712179E+02  0.28501900738E+03  0.30640232273E+03  0.90143522613E+02 0.  0.
        -11    1    3    3    0    0 -0.62050475894E+01 -0.40923504395E+02 -0.68248293506E+01  0.41950138536E+02  0.00000000000E+00 0.  1.
         11    1    3    3    0    0 -0.36970270885E+02  0.27720692988E+02  0.60153160772E+02  0.75852755388E+02  0.00000000000E+00 0. -1.
        -13    1    4    4    0    0  0.34368960824E+02 -0.33120586884E+02  0.26664987008E+03  0.27088808013E+03  0.00000000000E+00 0.  1.
         13    1    4    4    0    0  0.28733788578E+02  0.99098747054E+01  0.18369137299E+02  0.35514242605E+02  0.00000000000E+00 0. -1.
         21    1    1    2  503  502 -0.11740180888E+02  0.67079107260E+02 -0.51221568252E+03  0.51672269536E+03  0.00000000000E+00 0. -1.
         -4    1    1    2    0  503 -0.81872500399E+01 -0.30665583675E+02 -0.29911243338E+02  0.43612974713E+02  0.00000000000E+00 0.  1.
<scales pt_clust_5="13000.00000" pt_clust_6="13000.00000" pt_clust_7="13000.00000" pt_clust_8="13000.00000" pt_clust_9="68.09874" pt_clust_10="13000.00000"></scales>
<clustering>
<clus scale="   68.099">  2  9  1 -1</clus>
<clus scale="   90.144">  7  8 -1 -1</clus>
<clus scale="   13.606">  7 10 -1 -1</clus>
<clus scale="   94.843">  5  6 -1 -1</clus>
<clus scale="  107.173">  1  5  2 -1</clus>
<clus scale="   68.099">  2  5  1 -1</clus>
</clustering>
</event>
<event>
10    2  0.4951045E-006  0.4907655E+03  0.7546771E-02  0.1063772E+00
         21   -1    0    0  503  502  0.00000000000E+00  0.00000000000E+00  0.15421692235E+03  0.15421692235E+03  0.00000000000E+00 0.  1.
         -1   -1    0    0    0  501 -0.00000000000E+00 -0.00000000000E+00 -0.15933119715E+04  0.15933119715E+04  0.00000000000E+00 0.  1.
         23    2    1    2    0    0 -0.40213490652E+02  0.70641144523E+02 -0.38940431123E+03  0.40834834926E+03  0.92224511964E+02 0.  0.
         23    2    1    2    0    0  0.83091802671E+02  0.74161106367E+02 -0.72460166828E+03  0.73870351752E+03  0.90725915490E+02 0.  0.
        -11    1    4    4    0    0  0.28092506475E+02  0.82038161474E+02 -0.48988565119E+03  0.49750115587E+03  0.00000000000E+00 0.  1.
         11    1    4    4    0    0  0.54999296195E+02 -0.78770551069E+01 -0.23471601710E+03  0.24120236164E+03  0.00000000000E+00 0. -1.
        -11    1    3    3    0    0 -0.64675573736E+02  0.58275321504E+02 -0.34777315297E+03  0.35850398723E+03  0.00000000000E+00 0.  1.
         11    1    3    3    0    0  0.24462083084E+02  0.12365823019E+02 -0.41631158264E+02  0.49844362030E+02  0.00000000000E+00 0. -1.
         21    1    1    2  503  501  0.19182451406E+03 -0.48074037788E+02 -0.13002426029E+02  0.19818380455E+03  0.00000000000E+00 0.  1.
         -1    1    1    2    0  502 -0.23470282608E+03 -0.96728213102E+02 -0.31208664362E+03  0.40229322254E+03  0.00000000000E+00 0.  1.
<scales pt_clust_5="13000.00000" pt_clust_6="13000.00000" pt_clust_7="13000.00000" pt_clust_8="13000.00000" pt_clust_9="192.86022" pt_clust_10="13000.00000"></scales>
<clustering>
<clus scale="   90.726">  5  6 -1 -1</clus>
<clus scale="   92.225">  7  8 -1 -1</clus>
<clus scale="  122.934">  2  7  1 -1</clus>
<clus scale="  192.860">  1  9  2 -1</clus>
<clus scale="  150.491">  5 10 -1 -1</clus>
<clus scale="  192.860">  1  5  2 -1</clus>
</clustering>
</event>
<event>
10    2  0.4951045E-006  0.1620391E+03  0.7546771E-02  0.1209828E+00
          1   -1    0    0  503    0 -0.00000000000E+00  0.00000000000E+00  0.42886559557E+03  0.42886559557E+03  0.00000000000E+00 0. -1.
         21   -1    0    0  501  502  0.00000000000E+00 -0.00000000000E+00 -0.52189248713E+02  0.52189248713E+02  0.00000000000E+00 0.  1.
         23    2    1    2    0    0 -0.16296489280E+02 -0.30435687063E+02  0.15995620245E+03  0.18744147469E+03  0.91413418728E+02 0.  0.
         23    2    1    2    0    0  0.44870395275E+02  0.51981300723E+01  0.11848308892E+03  0.15578946633E+03  0.90508245658E+02 0.  0.
        -11    1    4    4    0    0  0.25595772306E+02 -0.11846123551E+02 -0.58648443561E+01  0.28807474767E+02  0.00000000000E+00 0.  1.
         11    1    4    4    0    0  0.19274622969E+02  0.17044253624E+02  0.12434793328E+03  0.12698199157E+03  0.00000000000E+00 0. -1.
        -13    1    3    3    0    0 -0.40888872111E+02  0.12222930368E+02  0.43190955920E+02  0.60718683802E+02  0.00000000000E+00 0. -1.
         13    1    3    3    0    0  0.24592382832E+02 -0.42658617431E+02  0.11676524653E+03  0.12672279089E+03  0.00000000000E+00 0.  1.
         21    1    1    2  503  502  0.23558987022E+02 -0.52618787072E+01  0.20245993633E+01  0.24224207719E+02  0.00000000000E+00 0.  1.
          1    1    1    2  501    0 -0.52132893018E+02  0.30499435698E+02  0.96212456128E+02  0.11359969554E+03  0.00000000000E+00 0. -1.
<scales pt_clust_5="13000.00000" pt_clust_6="13000.00000" pt_clust_7="13000.00000" pt_clust_8="13000.00000" pt_clust_9="24.13945" pt_clust_10="13000.00000"></scales>
<clustering>
<clus scale="   24.139">  2  9  1 -1</clus>
<clus scale="   90.508">  5  6 -1 -1</clus>
<clus scale="   55.556">  5 10 -1 -1</clus>
<clus scale="   91.413">  7  8 -1 -1</clus>
<clus scale="   97.282">  1  7  2 -1</clus>
<clus scale="   24.139">  2  5  1 -1</clus>
</clustering>
</event>
<event>
10    2  0.4951045E-006  0.1967892E+03  0.7546771E-02  0.1185890E+00
         21   -1    0    0  501  502  0.00000000000E+00  0.00000000000E+00  0.97977939882E+02  0.97977939882E+02  0.00000000000E+00 0. -1.
          2   -1    0    0  503    0 -0.00000000000E+00 -0.00000000000E+00 -0.28911182574E+03  0.28911182574E+03  0.00000000000E+00 0. -1.
         23    2    1    2    0    0 -0.15957987306E+01 -0.14776047476E+02 -0.11132957868E+03  0.14454809471E+03  0.90989001778E+02 0.  0.
         23    2    1    2    0    0  0.78393425286E+02 -0.36538215157E+02 -0.43684706939E+02  0.13251984299E+03  0.90402349920E+02 0.  0.
        -11    1    4    4    0    0  0.24664438422E+02  0.26410933112E+02 -0.33244863785E+02  0.49102880553E+02  0.00000000000E+00 0.  1.
         11    1    4    4    0    0  0.53728986864E+02 -0.62949148269E+02 -0.10439843154E+02  0.83416962438E+02  0.00000000000E+00 0. -1.
        -11    1    3    3    0    0  0.27818639157E+02 -0.42836318794E+02 -0.54715640746E+02  0.74850706307E+02  0.00000000000E+00 0. -1.
         11    1    3    3    0    0 -0.29414437888E+02  0.28060271318E+02 -0.56613937930E+02  0.69697388407E+02  0.00000000000E+00 0.  1.
         21    1    1    2  503  502 -0.93374777135E+01  0.27525018227E+02  0.16850874659E+01  0.29114509067E+02  0.00000000000E+00 0. -1.
          2    1    1    2  501    0 -0.67460148842E+02  0.23789244406E+02 -0.37804687714E+02  0.80907318855E+02  0.00000000000E+00 0. -1.
<scales pt_clust_5="13000.00000" pt_clust_6="13000.00000" pt_clust_7="13000.00000" pt_clust_8="13000.00000" pt_clust_9="29.06570" pt_clust_10="13000.00000"></scales>
<clustering>
<clus scale="   29.066">  1  9  2 -1</clus>
<clus scale="   90.402">  5  6 -1 -1</clus>
<clus scale="   76.452">  5 10 -1 -1</clus>
<clus scale="   90.989">  7  8 -1 -1</clus>
<clus scale="   91.523">  2  7  1 -1</clus>
<clus scale="   29.066">  1  5  2 -1</clus>
</clustering>
</event>
<event>
10    2  0.4951045E-006  0.4004983E+03  0.7546771E-02  0.1083043E+00
         21   -1    0    0  501  502  0.00000000000E+00  0.00000000000E+00  0.70505616391E+03  0.70505616391E+03  0.00000000000E+00 0. -1.
          2   -1    0    0  503    0 -0.00000000000E+00 -0.00000000000E+00 -0.25259805917E+03  0.25259805917E+03  0.00000000000E+00 0. -1.
         23    2    1    2    0    0 -0.91166380330E+02  0.10829315358E+02 -0.35654979843E+02  0.13398241229E+03  0.90837361481E+02 0.  0.
         23    2    1    2    0    0  0.23097337373E+03  0.12578709329E+03  0.58988370244E+02  0.28464014979E+03  0.91483850153E+02 0.  0.
        -11    1    4    4    0    0  0.20845545154E+03  0.10616203109E+03  0.18964631435E+02  0.23469918910E+03  0.00000000000E+00 0. -1.
         11    1    4    4    0    0  0.22517922197E+02  0.19625062203E+02  0.40023738810E+02  0.49940960692E+02  0.00000000000E+00 0.  1.
        -11    1    3    3    0    0 -0.24106358799E+01 -0.20986214465E+02  0.15976369313E+02  0.26485406158E+02  0.00000000000E+00 0.  1.
         11    1    3    3    0    0 -0.88755744450E+02  0.31815529823E+02 -0.51631349157E+02  0.10749700613E+03  0.00000000000E+00 0. -1.
         21    1    1    2  503  502 -0.42904688497E+02 -0.44548891253E+02  0.39669587996E+03  0.40148852684E+03  0.00000000000E+00 0. -1.
          2    1    1    2  501    0 -0.96902304906E+02 -0.92067517396E+02  0.32428834386E+02  0.13754313416E+03  0.00000000000E+00 0. -1.
<scales pt_clust_5="13000.00000" pt_clust_6="13000.00000" pt_clust_7="13000.00000" pt_clust_8="13000.00000" pt_clust_9="61.84995" pt_clust_10="13000.00000"></scales>
<clustering>
<clus scale="   61.850">  1  9  2 -1</clus>
<clus scale="   90.837">  7  8 -1 -1</clus>
<clus scale="   91.484">  5  6 -1 -1</clus>
<clus scale="  133.719">  2  7  1 -1</clus>
<clus scale="  182.759">  5 10 -1 -1</clus>
<clus scale="   61.850">  1  5  2 -1</clus>
</clustering>
</event>
<event>
10    2  0.5039394E-006  0.1592664E+03  0.7546771E-02  0.1217443E+00
          2   -1    0    0  502    0 -0.00000000000E+00  0.00000000000E+00  0.45258980566E+03  0.45258980566E+03  0.00000000000E+00 0. -1.
         21   -1    0    0  503  502  0.00000000000E+00 -0.00000000000E+00 -0.14320084599E+03  0.14320084599E+03  0.00000000000E+00 0.  1.
         23    2    1    2    0    0 -0.32135711668E+02 -0.27066562947E+01  0.13080912572E+03  0.15807327742E+03  0.82680733616E+02 0.  0.
         23    2    1    2    0    0 -0.13360709253E+02 -0.15865679139E+02  0.25811253513E+03  0.27450642023E+03  0.91112379147E+02 0.  0.
        -11    1    4    4    0    0 -0.24221123712E+02  0.27046720639E+02  0.50316205281E+02  0.62047630455E+02  0.00000000000E+00 0.  1.
         11    1    4    4    0    0  0.10860414459E+02 -0.42912399779E+02  0.20779632984E+03  0.21245878978E+03  0.00000000000E+00 0. -1.
        -11    1    3    3    0    0 -0.11765756347E+02  0.39821705747E+02  0.58146530694E+02  0.71450824368E+02  0.00000000000E+00 0.  1.
         11    1    3    3    0    0 -0.20369955321E+02 -0.42528362042E+02  0.72662595025E+02  0.86622453056E+02  0.00000000000E+00 0. -1.
         21    1    1    2  503  501  0.14552026265E+02 -0.13915410748E+02 -0.10814113366E+03  0.10999956779E+03  0.00000000000E+00 0.  1.
          2    1    1    2  501    0  0.30944394656E+02  0.32487746183E+02  0.28608432488E+02  0.53211386207E+02  0.00000000000E+00 0. -1.
<scales pt_clust_5="13000.00000" pt_clust_6="13000.00000" pt_clust_7="13000.00000" pt_clust_8="13000.00000" pt_clust_9="20.13455" pt_clust_10="13000.00000"></scales>
<clustering>
<clus scale="   20.135">  2  9  1 -1</clus>
<clus scale="   82.681">  7  8 -1 -1</clus>
<clus scale="   87.163">  1  7  2 -1</clus>
<clus scale="   91.112">  5  6 -1 -1</clus>
<clus scale="   41.860">  5 10 -1 -1</clus>
<clus scale="   20.135">  2  5  1 -1</clus>
</clustering>
</event>
<event>
10    2  0.4951045E-006  0.2320218E+03  0.7546771E-02  0.1132046E+00
          2   -1    0    0  502    0 -0.00000000000E+00  0.00000000000E+00  0.10927571979E+04  0.10927571979E+04  0.00000000000E+00 0. -1.
         21   -1    0    0  503  502  0.00000000000E+00 -0.00000000000E+00 -0.10234965784E+03  0.10234965784E+03  0.00000000000E+00 0. -1.
         23    2    1    2    0    0 -0.85418867059E+02 -0.14464446997E+03  0.74107816159E+03  0.76553301837E+03  0.92873866588E+02 0.  0.
         23    2    1    2    0    0  0.85746933951E+01  0.12349905202E+03  0.18207320907E+03  0.23845033537E+03  0.91555271636E+02 0.  0.
        -11    1    4    4    0    0  0.41522972707E+02  0.25392902003E+02  0.41969934278E+02  0.64268437960E+02  0.00000000000E+00 0.  1.
         11    1    4    4    0    0 -0.32948279312E+02  0.98106150014E+02  0.14010327479E+03  0.17418189741E+03  0.00000000000E+00 0. -1.
        -13    1    3    3    0    0 -0.21072241001E+02 -0.11163011215E+03  0.54064311661E+03  0.55244936493E+03  0.00000000000E+00 0. -1.
         13    1    3    3    0    0 -0.64346626058E+02 -0.33014357815E+02  0.20043504498E+03  0.21308365344E+03  0.00000000000E+00 0.  1.
         21    1    1    2  503  501 -0.26247875016E+01 -0.24320914501E+02 -0.41983337465E+02  0.48590091750E+02  0.00000000000E+00 0. -1.
          2    1    1    2  501    0  0.79468961165E+02  0.45466332454E+02  0.10923950689E+03  0.14253341027E+03  0.00000000000E+00 0. -1.
<scales pt_clust_5="13000.00000" pt_clust_6="13000.00000" pt_clust_7="13000.00000" pt_clust_8="13000.00000" pt_clust_9="24.46214" pt_clust_10="13000.00000"></scales>
<clustering>
<clus scale="   24.462">  2  9  1 -1</clus>
<clus scale="   91.555">  5  6 -1 -1</clus>
<clus scale="   87.559">  5 10 -1 -1</clus>
<clus scale="   92.874">  7  8 -1 -1</clus>
<clus scale="  196.151">  1  7  2 -1</clus>
<clus scale="   24.462">  2  5  1 -1</clus>
</clustering>
</event>
<event>
10    2  0.4951045E-006  0.5442342E+03  0.7546771E-02  0.1035480E+00
          2   -1    0    0  502    0 -0.00000000000E+00  0.00000000000E+00  0.63127042358E+03  0.63127042358E+03  0.00000000000E+00 0. -1.
         21   -1    0    0  503  502  0.00000000000E+00 -0.00000000000E+00 -0.40485777099E+03  0.40485777099E+03  0.00000000000E+00 0.  1.
         23    2    1    2    0    0 -0.18665174094E+03 -0.79891354293E+01  0.11163017786E+03  0.23604953748E+03  0.91407816155E+02 0.  0.
         23    2    1    2    0    0  0.18217043822E+03 -0.18370654752E+03  0.22441179155E+03  0.35477006007E+03  0.92557977350E+02 0.  0.
        -11    1    4    4    0    0  0.51890021826E+01 -0.55601790269E+02  0.37705191341E+02  0.67380755997E+02  0.00000000000E+00 0.  1.
         11    1    4    4    0    0  0.17698143604E+03 -0.12810475725E+03  0.18670660020E+03  0.28738930407E+03  0.00000000000E+00 0. -1.
        -13    1    3    3    0    0 -0.72869582479E+02  0.32217245979E+02  0.14152430653E+02  0.80921062045E+02  0.00000000000E+00 0.  1.
         13    1    3    3    0    0 -0.11378215846E+03 -0.40206381408E+02  0.97477747206E+02  0.15512847543E+03  0.00000000000E+00 0. -1.
         21    1    1    2  503  501  0.28428308579E+02 -0.57948362145E+02 -0.17467636450E+03  0.18622033648E+03  0.00000000000E+00 0.  1.
          2    1    1    2  501    0 -0.23947005866E+02  0.24964404509E+03  0.65047047678E+02  0.25908826054E+03  0.00000000000E+00 0. -1.
<scales pt_clust_5="13000.00000" pt_clust_6="13000.00000" pt_clust_7="13000.00000" pt_clust_8="13000.00000" pt_clust_9="64.54596" pt_clust_10="13000.00000"></scales>
<clustering>
<clus scale="   64.546">  2  9  1 -1</clus>
<clus scale="   91.408">  7  8 -1 -1</clus>
<clus scale="   92.558">  5  6 -1 -1</clus>
<clus scale="  202.220">  1  7  2 -1</clus>
<clus scale="  226.724">  5 10 -1 -1</clus>
<clus scale="   64.546">  2  5  1 -1</clus>
</clustering>
</event>
<event>
10    2  0.4951045E-006  0.5459194E+03  0.7546771E-02  0.1050963E+00
          1   -1    0    0  503    0 -0.00000000000E+00  0.00000000000E+00  0.78197304489E+03  0.78197304489E+03  0.00000000000E+00 0. -1.
         21   -1    0    0  501  502  0.00000000000E+00 -0.00000000000E+00 -0.38197801339E+03  0.38197801339E+03  0.00000000000E+00 0. -1.
         23    2    1    2    0    0 -0.67635363970E+02 -0.43666067774E+02  0.45091882918E+03  0.46876240173E+03  0.99645024117E+02 0.  0.
         23    2    1    2    0    0 -0.19084704043E+03  0.11876012595E+02  0.32389519344E+02  0.21511003650E+03  0.93057048761E+02 0.  0.
        -11    1    3    3    0    0 -0.48696625666E+01 -0.50193635837E+02  0.97662098585E+02  0.10991360331E+03  0.00000000000E+00 0.  1.
         11    1    3    3    0    0 -0.62765701403E+02  0.65275680630E+01  0.35325673060E+03  0.35884879842E+03  0.00000000000E+00 0. -1.
        -13    1    4    4    0    0 -0.94778475854E+02  0.45994675361E+02  0.40442166842E+02  0.11284519709E+03  0.00000000000E+00 0. -1.
         13    1    4    4    0    0 -0.96068564573E+02 -0.34118662766E+02 -0.80526474985E+01  0.10226483941E+03  0.00000000000E+00 0.  1.
         21    1    1    2  503  502 -0.62998484485E+02  0.10807601294E+03  0.33709680534E+02  0.12955916093E+03  0.00000000000E+00 0.  1.
          1    1    1    2  501    0  0.32148088888E+03 -0.76285957757E+02 -0.11702299756E+03  0.35051945912E+03  0.00000000000E+00 0. -1.
<scales pt_clust_5="13000.00000" pt_clust_6="13000.00000" pt_clust_7="13000.00000" pt_clust_8="13000.00000" pt_clust_9="125.09690" pt_clust_10="13000.00000"></scales>
<clustering>
<clus scale="   93.057">  7  8 -1 -1</clus>
<clus scale="   99.645">  5  6 -1 -1</clus>
<clus scale="  125.097">  2  9  1 -1</clus>
<clus scale="  128.051">  1  5  2 -1</clus>
<clus scale="  247.670">  7 10 -1 -1</clus>
<clus scale="  125.097">  2  5  1 -1</clus>
</clustering>
</event>
<event>
10    2  0.4951045E-006  0.2896480E+03  0.7546771E-02  0.1126718E+00
         21   -1    0    0  501  502  0.00000000000E+00  0.00000000000E+00  0.14776821167E+03  0.14776821167E+03  0.00000000000E+00 0. -1.
          1   -1    0    0  503    0 -0.00000000000E+00 -0.00000000000E+00 -0.81856618751E+03  0.81856618751E+03  0.00000000000E+00 0. -1.
         23    2    1    2    0    0  0.90067484054E+01 -0.70050858996E+02 -0.26477140817E+02  0.11794666571E+03  0.90675975882E+02 0.  0.
         23    2    1    2    0    0  0.17734616192E+03  0.14358407920E+03 -0.37872743530E+03  0.45154328374E+03  0.91590490217E+02 0.  0.
        -11    1    3    3    0    0 -0.33647022159E+02 -0.22444197035E+02  0.13400164184E+02  0.42607845297E+02  0.00000000000E+00 0.  1.
         11    1    3    3    0    0  0.42653770564E+02 -0.47606661961E+02 -0.39877305001E+02  0.75338820408E+02  0.00000000000E+00 0. -1.
        -11    1    4    4    0    0  0.15483381097E+03  0.15595319159E+03 -0.33035159244E+03  0.39677081749E+03  0.00000000000E+00 0.  1.
         11    1    4    4    0    0  0.22512350955E+02 -0.12369112393E+02 -0.48375842856E+02  0.54772466248E+02  0.00000000000E+00 0. -1.
         21    1    1    2  503  502 -0.21865524812E+03 -0.10534149154E+03 -0.25115916533E+03  0.34926762476E+03  0.00000000000E+00 0. -1.
          1    1    1    2  501    0  0.32302337793E+02  0.31808271345E+02 -0.14434234391E+02  0.47576824981E+02  0.00000000000E+00 0. -1.
<scales pt_clust_5="13000.00000" pt_clust_6="13000.00000" pt_clust_7="13000.00000" pt_clust_8="13000.00000" pt_clust_9="253.11297" pt_clust_10="13000.00000"></scales>
<clustering>
<clus scale="   90.676">  5  6 -1 -1</clus>
<clus scale="   91.590">  7  8 -1 -1</clus>
<clus scale="   45.334">  7 10 -1 -1</clus>
<clus scale="  114.936">  2  5  1 -1</clus>
<clus scale="  253.113">  1  9  2 -1</clus>
<clus scale="  253.113">  1  5  2 -1</clus>
</clustering>
</event>
<event>
10    2  0.4951045E-006  0.4426088E+03  0.7546771E-02  0.1078408E+00
          2   -1    0    0  503    0 -0.00000000000E+00  0.00000000000E+00  0.36471872153E+03  0.36471872153E+03  0.00000000000E+00 0. -1.
         21   -1    0    0  501  502  0.00000000000E+00 -0.00000000000E+00 -0.12811081405E+04  0.12811081405E+04  0.00000000000E+00 0. -1.
         23    2    1    2    0    0 -0.14524630638E+02 -0.61121498119E+02 -0.34661835713E+01  0.11227701187E+03  0.92990916426E+02 0.  0.
         23    2    1    2    0    0  0.87547661196E+02 -0.88082956417E+02  0.24053781080E+03  0.28570048192E+03  0.91340717948E+02 0.  0.
        -11    1    4    4    0    0  0.47582279315E+02 -0.83570253891E+02  0.22093737577E+03  0.24095930082E+03  0.00000000000E+00 0. -1.
         11    1    4    4    0    0  0.39965381880E+02 -0.45127025264E+01  0.19600435025E+02  0.44741181099E+02  0.00000000000E+00 0.  1.
        -11    1    3    3    0    0 -0.45539873067E+02 -0.25622603782E+02 -0.27842344394E+02  0.59208056926E+02  0.00000000000E+00 0.  1.
         11    1    3    3    0    0  0.31015242429E+02 -0.35498894337E+02  0.24376160823E+02  0.53068954941E+02  0.00000000000E+00 0. -1.
         21    1    1    2  503  502  0.25574791156E+02  0.23318570962E+03 -0.10661486217E+04  0.10916512853E+04  0.00000000000E+00 0. -1.
          2    1    1    2  501    0 -0.98597821714E+02 -0.83981255083E+02 -0.87312424528E+02  0.15619808299E+03  0.00000000000E+00 0. -1.
<scales pt_clust_5="13000.00000" pt_clust_6="13000.00000" pt_clust_7="13000.00000" pt_clust_8="13000.00000" pt_clust_9="232.02251" pt_clust_10="13000.00000"></scales>
<clustering>
<clus scale="   91.341">  5  6 -1 -1</clus>
<clus scale="   92.991">  7  8 -1 -1</clus>
<clus scale="  112.223">  1  7  2 -1</clus>
<clus scale="  135.205">  5 10 -1 -1</clus>
<clus scale="  232.023">  2  9  1 -1</clus>
<clus scale="  232.023">  2  5  1 -1</clus>
</clustering>
</event>
<event>
10    2  0.4951045E-006  0.1322643E+04  0.7546771E-02  0.9366857E-01
          2   -1    0    0  502    0 -0.00000000000E+00  0.00000000000E+00  0.14349588675E+04  0.14349588675E+04  0.00000000000E+00 0. -1.
         21   -1    0    0  503  502  0.00000000000E+00 -0.00000000000E+00 -0.80830030527E+03  0.80830030527E+03  0.00000000000E+00 0. -1.
         23    2    1    2    0    0 -0.32143776638E+03 -0.11381032729E+03  0.48502596359E+03  0.60045899398E+03  0.95004156989E+02 0.  0.
         23    2    1    2    0    0  0.19089898735E+03 -0.52447328238E+03  0.49779796841E+03  0.75352383447E+03  0.92090740391E+02 0.  0.
        -11    1    3    3    0    0 -0.11723373075E+03  0.11841490099E+01  0.13000094337E+03  0.17505826205E+03  0.00000000000E+00 0. -1.
         11    1    3    3    0    0 -0.20420403563E+03 -0.11499447630E+03  0.35502502022E+03  0.42540073194E+03  0.00000000000E+00 0.  1.
        -13    1    4    4    0    0 -0.10019566837E+02 -0.35876027294E+02  0.37015328311E+02  0.52513003951E+02  0.00000000000E+00 0.  1.
         13    1    4    4    0    0  0.20091855419E+03 -0.48859725509E+03  0.46078264010E+03  0.70101083052E+03  0.00000000000E+00 0. -1.
         21    1    1    2  503  501  0.31548756112E+02  0.31503695029E+02 -0.26384076187E+03  0.26758130435E+03  0.00000000000E+00 0. -1.
          2    1    1    2  501    0  0.98990022920E+02  0.60677991464E+03 -0.92324607939E+02  0.62169503994E+03  0.00000000000E+00 0. -1.
<scales pt_clust_5="13000.00000" pt_clust_6="13000.00000" pt_clust_7="13000.00000" pt_clust_8="13000.00000" pt_clust_9="44.58483" pt_clust_10="13000.00000"></scales>
<clustering>
<clus scale="   44.585">  2  9  1 -1</clus>
<clus scale="   92.091">  7  8 -1 -1</clus>
<clus scale="   95.004">  5  6 -1 -1</clus>
<clus scale="  349.862">  1  5  2 -1</clus>
<clus scale="  592.703">  7 10 -1 -1</clus>
<clus scale="   44.585">  2  5  1 -1</clus>
</clustering>
</event>
<event>
10    2  0.4951045E-006  0.3183169E+03  0.7546771E-02  0.1089725E+00
          2   -1    0    0  502    0 -0.00000000000E+00  0.00000000000E+00  0.43971944471E+03  0.43971944471E+03  0.00000000000E+00 0. -1.
         21   -1    0    0  503  502  0.00000000000E+00 -0.00000000000E+00 -0.32853883471E+03  0.32853883471E+03  0.00000000000E+00 0. -1.
         23    2    1    2    0    0 -0.23407061516E+02 -0.19912482363E+03  0.19455574610E+03  0.29370520268E+03  0.90621309989E+02 0.  0.
         23    2    1    2    0    0 -0.65476899732E+02  0.13217399695E+03  0.80190498973E+02  0.19655251502E+03  0.10220168868E+03 0.  0.
        -11    1    4    4    0    0 -0.88738329218E+02  0.11227691439E+03  0.45236091545E+02  0.15008964173E+03  0.00000000000E+00 0.  1.
         11    1    4    4    0    0  0.23261429486E+02  0.19897082559E+02  0.34954407428E+02  0.46462873294E+02  0.00000000000E+00 0. -1.
        -13    1    3    3    0    0 -0.53900905817E+02 -0.12681397277E+03  0.97046510126E+02  0.16853817510E+03  0.00000000000E+00 0. -1.
         13    1    3    3    0    0  0.30493844301E+02 -0.72310850856E+02  0.97509235978E+02  0.12516702758E+03  0.00000000000E+00 0.  1.
         21    1    1    2  503  501 -0.18214715844E+02 -0.96209416591E+01 -0.14332472330E+03  0.14479749549E+03  0.00000000000E+00 0. -1.
          2    1    1    2  501    0  0.10709867709E+03  0.76571768342E+02 -0.20240911780E+02  0.13320306622E+03  0.00000000000E+00 0. -1.
<scales pt_clust_5="13000.00000" pt_clust_6="13000.00000" pt_clust_7="13000.00000" pt_clust_8="13000.00000" pt_clust_9="20.59948" pt_clust_10="13000.00000"></scales>
<clustering>
<clus scale="   20.599">  2  9  1 -1</clus>
<clus scale="   90.621">  7  8 -1 -1</clus>
<clus scale="  102.202">  5  6 -1 -1</clus>
<clus scale="  123.172">  5 10 -1 -1</clus>
<clus scale="  222.936">  1  7  2 -1</clus>
<clus scale="   20.599">  2  5  1 -1</clus>
</clustering>
</event>
<event>
10    2  0.4951045E-006  0.3203231E+03  0.7546771E-02  0.1080897E+00
         -1   -1    0    0    0  501 -0.00000000000E+00  0.00000000000E+00  0.47371565050E+03  0.47371565050E+03  0.00000000000E+00 0.  1.
         21   -1    0    0  501  502  0.00000000000E+00 -0.00000000000E+00 -0.51630041542E+03  0.51630041542E+03  0.00000000000E+00 0. -1.
         23    2    1    2    0    0 -0.52695617849E+02 -0.25676337932E+03  0.87592983123E+02  0.29037168194E+03  0.89100627820E+02 0.  0.
         23    2    1    2    0    0  0.31370014342E+02 -0.65818672545E+02  0.16231280890E+03  0.20117568566E+03  0.93861776631E+02 0.  0.
        -13    1    3    3    0    0  0.17161846793E+01 -0.35739137983E+02  0.47140868088E+02  0.59181861391E+02  0.00000000000E+00 0. -1.
         13    1    3    3    0    0 -0.54411802529E+02 -0.22102424134E+03  0.40452115035E+02  0.23118982054E+03  0.00000000000E+00 0.  1.
        -13    1    4    4    0    0  0.25620365951E+02 -0.28742697858E+02  0.15890357696E+03  0.16350196514E+03  0.00000000000E+00 0.  1.
         13    1    4    4    0    0  0.57496483908E+01 -0.37075974687E+02  0.34092319352E+01  0.37673720523E+02  0.00000000000E+00 0. -1.
         21    1    1    2  503  502  0.70412986066E+01  0.36011899464E+03 -0.28058675316E+03  0.45657879521E+03  0.00000000000E+00 0. -1.
         -1    1    1    2    0  503  0.14284304900E+02 -0.37536942774E+02 -0.11903803784E+02  0.41889903126E+02  0.00000000000E+00 0.  1.
<scales pt_clust_5="13000.00000" pt_clust_6="13000.00000" pt_clust_7="13000.00000" pt_clust_8="13000.00000" pt_clust_9="280.91914" pt_clust_10="13000.00000"></scales>
<clustering>
<clus scale="   89.101">  5  6 -1 -1</clus>
<clus scale="   93.862">  7  8 -1 -1</clus>
<clus scale="   40.163">  7 10 -1 -1</clus>
<clus scale="  276.845">  1  5  2 -1</clus>
<clus scale="  280.919">  2  9  1 -1</clus>
<clus scale="  280.919">  2  5  1 -1</clus>
</clustering>
</event>
<event>
10    2  0.4951045E-006  0.4232598E+03  0.7546771E-02  0.1060766E+00
         -1   -1    0    0    0  501 -0.00000000000E+00  0.00000000000E+00  0.99270476787E+03  0.99270476787E+03  0.00000000000E+00 0.  1.
         21   -1    0    0  503  502  0.00000000000E+00 -0.00000000000E+00 -0.56289497184E+03  0.56289497184E+03  0.00000000000E+00 0. -1.
         23    2    1    2    0    0 -0.23945933373E+02  0.18720203288E+03  0.20442438037E+03  0.29190937600E+03  0.88338823096E+02 0.  0.
         23    2    1    2    0    0 -0.11431929545E+02 -0.78891216588E+02  0.28866993823E+03  0.31530430648E+03  0.98650693754E+02 0.  0.
        -11    1    4    4    0    0 -0.47674809722E+02 -0.29698069078E+02  0.19914946426E+03  0.20691875677E+03  0.00000000000E+00 0. -1.
         11    1    4    4    0    0  0.36242880176E+02 -0.49193147510E+02  0.89520473975E+02  0.10838554971E+03  0.00000000000E+00 0.  1.
        -13    1    3    3    0    0  0.88874499896E+01  0.17100164588E+03  0.16010618718E+03  0.23442384869E+03  0.00000000000E+00 0. -1.
         13    1    3    3    0    0 -0.32833383362E+02  0.16200386993E+02  0.44318193188E+02  0.57485527302E+02  0.00000000000E+00 0.  1.
         21    1    1    2  503  501 -0.75128275898E+02 -0.28934044650E+03 -0.43062485810E+03  0.52421362080E+03  0.00000000000E+00 0. -1.
         -1    1    1    2    0  502  0.11050613882E+03  0.18102963021E+03  0.36734033552E+03  0.42417243643E+03  0.00000000000E+00 0.  1.
<scales pt_clust_5="13000.00000" pt_clust_6="13000.00000" pt_clust_7="13000.00000" pt_clust_8="13000.00000" pt_clust_9="287.95903" pt_clust_10="13000.00000"></scales>
<clustering>
<clus scale="   88.339">  7  8 -1 -1</clus>
<clus scale="   98.651">  5  6 -1 -1</clus>
<clus scale="  208.379">  1  7  2 -1</clus>
<clus scale="  287.959">  2  9  1 -1</clus>
<clus scale="  117.431">  5 10 -1 -1</clus>
<clus scale="  287.959">  2  5  1 -1</clus>
</clustering>
</event>
<event>
10    2  0.4951045E-006  0.5037083E+03  0.7546771E-02  0.1057237E+00
          1   -1    0    0  503    0 -0.00000000000E+00  0.00000000000E+00  0.10038069882E+04  0.10038069882E+04  0.00000000000E+00 0. -1.
         21   -1    0    0  501  502  0.00000000000E+00 -0.00000000000E+00 -0.12916841912E+03  0.12916841912E+03  0.00000000000E+00 0. -1.
         23    2    1    2    0    0 -0.78468663634E+02 -0.60655298542E+02  0.34515976608E+03  0.37069171294E+03  0.91873203443E+02 0.  0.
         23    2    1    2    0    0  0.13870399245E+03  0.14843282084E+03  0.57669474667E+03  0.61815868503E+03  0.90951796091E+02 0.  0.
        -13    1    4    4    0    0  0.11360377629E+03  0.10277540342E+03  0.30274113541E+03  0.33929455728E+03  0.00000000000E+00 0.  1.
         13    1    4    4    0    0  0.25100216161E+02  0.45657417416E+02  0.27395361127E+03  0.27886412775E+03  0.00000000000E+00 0. -1.
        -13    1    3    3    0    0 -0.81728572923E+02 -0.34730613137E+02  0.32707269008E+03  0.33891343986E+03  0.00000000000E+00 0.  1.
         13    1    3    3    0    0  0.32599092889E+01 -0.25924685405E+02  0.18087075997E+02  0.31778273081E+02  0.00000000000E+00 0. -1.
         21    1    1    2  503  502 -0.27841055362E+02  0.10615479609E+02  0.11136646031E+01  0.29816992133E+02  0.00000000000E+00 0. -1.
          1    1    1    2  501    0 -0.32394273450E+02 -0.98393001908E+02 -0.48329608233E+02  0.11430801725E+03  0.00000000000E+00 0. -1.
<scales pt_clust_5="13000.00000" pt_clust_6="13000.00000" pt_clust_7="13000.00000" pt_clust_8="13000.00000" pt_clust_9="29.79619" pt_clust_10="13000.00000"></scales>
<clustering>
<clus scale="   29.796">  2  9  1 -1</clus>
<clus scale="   90.952">  5  6 -1 -1</clus>
<clus scale="   91.873">  7  8 -1 -1</clus>
<clus scale="  104.757">  5 10 -1 -1</clus>
<clus scale="  136.494">  1  7  2 -1</clus>
<clus scale="   29.796">  2  5  1 -1</clus>
</clustering>
</event>
<event>
10    2  0.4951045E-006  0.3612445E+03  0.7546771E-02  0.1096774E+00
         -3   -1    0    0    0  501 -0.00000000000E+00  0.00000000000E+00  0.46467337660E+03  0.46467337660E+03  0.00000000000E+00 0.  1.
         21   -1    0    0  503  502  0.00000000000E+00 -0.00000000000E+00 -0.18912035560E+03  0.18912035560E+03  0.00000000000E+00 0.  1.
         23    2    1    2    0    0 -0.98059625379E+02  0.30405057473E+02 -0.42068594551E+02  0.14312677288E+03  0.90417635551E+02 0.  0.
         23    2    1    2    0    0  0.85783694876E+01  0.12376754231E+03  0.21539751422E+03  0.26849644434E+03  0.10150004207E+03 0.  0.
        -11    1    3    3    0    0 -0.32278093584E+02 -0.31875268118E+02 -0.21655860342E+02  0.50268124394E+02  0.00000000000E+00 0. -1.
         11    1    3    3    0    0 -0.65781531795E+02  0.62280325591E+02 -0.20412734209E+02  0.92858648488E+02  0.00000000000E+00 0.  1.
        -11    1    4    4    0    0 -0.42778737859E+02  0.70200997899E+02  0.83631466383E+02  0.11727072392E+03  0.00000000000E+00 0.  1.
         11    1    4    4    0    0  0.51357107347E+02  0.53566544407E+02  0.13176604783E+03  0.15122572042E+03  0.00000000000E+00 0. -1.
         21    1    1    2  503  501  0.35431196239E+02  0.17518307309E+02  0.19480110463E+02  0.44065127500E+02  0.00000000000E+00 0. -1.
         -3    1    1    2    0  502  0.54050059652E+02 -0.17169090709E+03  0.82743990862E+02  0.19810538748E+03  0.00000000000E+00 0.  1.
<scales pt_clust_5="13000.00000" pt_clust_6="13000.00000" pt_clust_7="13000.00000" pt_clust_8="13000.00000" pt_clust_9="39.52546" pt_clust_10="13000.00000"></scales>
<clustering>
<clus scale="   39.525">  2  9  1 -1</clus>
<clus scale="   90.418">  5  6 -1 -1</clus>
<clus scale="  101.500">  7  8 -1 -1</clus>
<clus scale="  126.740">  1  5  2 -1</clus>
<clus scale="  155.923">  7 10 -1 -1</clus>
<clus scale="   39.525">  2  5  1 -1</clus>
</clustering>
</event>
<event>
10    2  0.4951045E-006  0.2679261E+03  0.7546771E-02  0.1111631E+00
         -1   -1    0    0    0  501 -0.00000000000E+00  0.00000000000E+00  0.12262037781E+04  0.12262037781E+04  0.00000000000E+00 0.  1.
         21   -1    0    0  503  502  0.00000000000E+00 -0.00000000000E+00 -0.11645087876E+03  0.11645087876E+03  0.00000000000E+00 0.  1.
         23    2    1    2    0    0 -0.86364533778E+02 -0.15864344285E+03  0.33326552567E+03  0.38988659815E+03  0.91208958799E+02 0.  0.
         23    2    1    2    0    0  0.12155733892E+03  0.14698904520E+03  0.76064853477E+03  0.78939266699E+03  0.90402561965E+02 0.  0.
        -11    1    3    3    0    0 -0.52555325513E+02 -0.14907440467E+02  0.85731793343E+02  0.10165743657E+03  0.00000000000E+00 0. -1.
         11    1    3    3    0    0 -0.33809208265E+02 -0.14373600238E+03  0.24753373233E+03  0.28822916158E+03  0.00000000000E+00 0.  1.
        -13    1    4    4    0    0  0.43124838265E+02  0.57681685272E+01  0.96069857070E+02  0.10546298346E+03  0.00000000000E+00 0. -1.
         13    1    4    4    0    0  0.78432500651E+02  0.14122087667E+03  0.66457867770E+03  0.68392968353E+03  0.00000000000E+00 0.  1.
         21    1    1    2  503  501  0.24920903804E+01 -0.22501827966E+02 -0.64462377295E+02  0.68322330630E+02  0.00000000000E+00 0.  1.
         -1    1    1    2    0  502 -0.37684895519E+02  0.34156225615E+02  0.80301216201E+02  0.95053061087E+02  0.00000000000E+00 0.  1.
<scales pt_clust_5="13000.00000" pt_clust_6="13000.00000" pt_clust_7="13000.00000" pt_clust_8="13000.00000" pt_clust_9="22.63941" pt_clust_10="13000.00000"></scales>
<clustering>
<clus scale="   22.639">  2  9  1 -1</clus>
<clus scale="   90.403">  7  8 -1 -1</clus>
<clus scale="   48.412">  7 10 -1 -1</clus>
<clus scale="   91.209">  5  6 -1 -1</clus>
<clus scale="  211.905">  1  5  2 -1</clus>
<clus scale="   22.639">  2  5  1 -1</clus>
</clustering>
</event>
<event>
10    2  0.4951045E-006  0.2714151E+03  0.7546771E-02  0.1125023E+00
          1   -1    0    0  503    0 -0.00000000000E+00  0.00000000000E+00  0.17314156790E+03  0.17314156790E+03  0.00000000000E+00 0. -1.
         21   -1    0    0  501  502  0.00000000000E+00 -0.00000000000E+00 -0.35134658984E+03  0.35134658984E+03  0.00000000000E+00 0. -1.
         23    2    1    2    0    0  0.92621139237E+02  0.86083402065E+02 -0.55511587391E+01  0.15526864699E+03  0.89936143065E+02 0.  0.
         23    2    1    2    0    0 -0.97788024416E+02 -0.77655589688E+02 -0.19806839575E+03  0.25149423924E+03  0.91789839555E+02 0.  0.
        -13    1    4    4    0    0 -0.10303622238E+03 -0.34647863334E+02 -0.11789533106E+03  0.16036285930E+03  0.00000000000E+00 0.  1.
         13    1    4    4    0    0  0.52481979653E+01 -0.43007726354E+02 -0.80173064689E+02  0.91131379940E+02  0.00000000000E+00 0. -1.
        -13    1    3    3    0    0  0.61065354169E+02  0.21574528653E+02 -0.39474104744E+02  0.75846177964E+02  0.00000000000E+00 0. -1.
         13    1    3    3    0    0  0.31555785068E+02  0.64508873412E+02  0.33922946005E+02  0.79422469024E+02  0.00000000000E+00 0.  1.
         21    1    1    2  503  502 -0.13116894223E+02 -0.57010680223E+02 -0.29448049707E+01  0.58574247326E+02  0.00000000000E+00 0. -1.
          1    1    1    2  501    0  0.18283779401E+02  0.48582867846E+02  0.28359337523E+02  0.59151024185E+02  0.00000000000E+00 0. -1.
<scales pt_clust_5="13000.00000" pt_clust_6="13000.00000" pt_clust_7="13000.00000" pt_clust_8="13000.00000" pt_clust_9="58.50021" pt_clust_10="13000.00000"></scales>
<clustering>
<clus scale="   58.500">  2  9  1 -1</clus>
<clus scale="   89.936">  7  8 -1 -1</clus>
<clus scale="   91.790">  5  6 -1 -1</clus>
<clus scale="   49.127">  5 10 -1 -1</clus>
<clus scale="  145.676">  1  7  2 -1</clus>
<clus scale="   58.500">  2  5  1 -1</clus>
</clustering>
</event>
<event>
10    2  0.4951045E-006  0.3466859E+03  0.7546771E-02  0.1071622E+00
          1   -1    0    0  503    0 -0.00000000000E+00  0.00000000000E+00  0.11735851363E+04  0.11735851363E+04  0.00000000000E+00 0. -1.
         21   -1    0    0  501  502  0.00000000000E+00 -0.00000000000E+00 -0.10241442021E+03  0.10241442021E+03  0.00000000000E+00 0. -1.
         23    2    1    2    0    0  0.73766248885E+02 -0.26548573380E+03  0.57930223342E+03  0.64792473959E+03  0.91056335261E+02 0.  0.
         23    2    1    2    0    0  0.70833492165E+02  0.87251387464E+02  0.22265146012E+03  0.26296380421E+03  0.83343274513E+02 0.  0.
        -11    1    3    3    0    0 -0.14608553219E+02 -0.52435414805E+02  0.68754080631E+02  0.87692680176E+02  0.00000000000E+00 0.  1.
         11    1    3    3    0    0  0.88374802103E+02 -0.21305031900E+03  0.51054815279E+03  0.56023205941E+03  0.00000000000E+00 0. -1.
        -13    1    4    4    0    0  0.17676558126E+02 -0.15578579418E+02  0.29157790546E+02  0.37487725903E+02  0.00000000000E+00 0. -1.
         13    1    4    4    0    0  0.53156934038E+02  0.10282996688E+03  0.19349366957E+03  0.22547607831E+03  0.00000000000E+00 0.  1.
         21    1    1    2  503  502 -0.34542009178E+02  0.16975783271E+02  0.85336099754E+01  0.39422710649E+02  0.00000000000E+00 0.  1.
          1    1    1    2  501    0 -0.11005773187E+03  0.16125856307E+03  0.26068341256E+03  0.32568830205E+03  0.00000000000E+00 0. -1.
<scales pt_clust_5="13000.00000" pt_clust_6="13000.00000" pt_clust_7="13000.00000" pt_clust_8="13000.00000" pt_clust_9="38.48802" pt_clust_10="13000.00000"></scales>
<clustering>
<clus scale="   38.488">  2  9  1 -1</clus>
<clus scale="   83.343">  7  8 -1 -1</clus>
<clus scale="   91.056">  5  6 -1 -1</clus>
<clus scale="  207.874">  7 10 -1 -1</clus>
<clus scale="  280.855">  1  5  2 -1</clus>
<clus scale="   38.488">  2  5  1 -1</clus>
</clustering>
</event>
<event>
10    2  0.4951045E-006  0.2091313E+03  0.7546771E-02  0.1155559E+00
         21   -1    0    0  501  502  0.00000000000E+00  0.00000000000E+00  0.13381481483E+03  0.13381481483E+03  0.00000000000E+00 0. -1.
          1   -1    0    0  503    0 -0.00000000000E+00 -0.00000000000E+00 -0.10619710037E+04  0.10619710037E+04  0.00000000000E+00 0. -1.
         23    2    1    2    0    0 -0.84925323175E+01 -0.89186557175E+02 -0.25421269821E+03  0.28471648062E+03  0.91722479897E+02 0.  0.
         23    2    1    2    0    0  0.46133092210E+02  0.84605984535E+02 -0.62107294978E+03  0.63512397900E+03  0.91457230141E+02 0.  0.
        -11    1    3    3    0    0 -0.45236865767E+02 -0.55243533706E+02 -0.10210028003E+03  0.12459008477E+03  0.00000000000E+00 0.  1.
         11    1    3    3    0    0  0.36744333450E+02 -0.33943023468E+02 -0.15211241817E+03  0.16012639584E+03  0.00000000000E+00 0. -1.
        -13    1    4    4    0    0 -0.21500871881E+02  0.35379629333E+02 -0.11591038477E+03  0.12308217970E+03  0.00000000000E+00 0.  1.
         13    1    4    4    0    0  0.67633964090E+02  0.49226355203E+02 -0.50516256501E+03  0.51204179930E+03  0.00000000000E+00 0. -1.
         21    1    1    2  503  502 -0.70120605569E+01 -0.68400925304E+02  0.89614096289E+02  0.11295371543E+03  0.00000000000E+00 0. -1.
          1    1    1    2  501    0 -0.30628499335E+02  0.72981497944E+02 -0.14248463721E+03  0.16299164351E+03  0.00000000000E+00 0. -1.
<scales pt_clust_5="13000.00000" pt_clust_6="13000.00000" pt_clust_7="13000.00000" pt_clust_8="13000.00000" pt_clust_9="68.75940" pt_clust_10="13000.00000"></scales>
<clustering>
<clus scale="   68.759">  1  9  2 -1</clus>
<clus scale="   91.457">  7  8 -1 -1</clus>
<clus scale="   61.013">  7 10 -1 -1</clus>
<clus scale="   91.722">  5  6 -1 -1</clus>
<clus scale="  152.495">  2  5  1 -1</clus>
<clus scale="   68.759">  1  5  2 -1</clus>
</clustering>
</event>
<event>
10    2  0.4951045E-006  0.9763268E+03  0.7546771E-02  0.9814851E-01
          1   -1    0    0  502    0 -0.00000000000E+00  0.00000000000E+00  0.18569448774E+04  0.18569448774E+04  0.00000000000E+00 0. -1.
         21   -1    0    0  503  502  0.00000000000E+00 -0.00000000000E+00 -0.23347870317E+03  0.23347870317E+03  0.00000000000E+00 0. -1.
         23    2    1    2    0    0 -0.13064294286E+03  0.35364369301E+02  0.27081477289E+03  0.32821958293E+03  0.12676449137E+03 0.  0.
         23    2    1    2    0    0 -0.13573172952E+03 -0.38876728637E+03  0.11686801902E+04  0.12421659758E+04  0.87176941875E+02 0.  0.
        -11    1    4    4    0    0 -0.20881489246E+02 -0.18464621678E+03  0.55695855365E+03  0.58713975547E+03  0.00000000000E+00 0. -1.
         11    1    4    4    0    0 -0.11485024027E+03 -0.20412106959E+03  0.61172163651E+03  0.65502622033E+03  0.00000000000E+00 0.  1.
        -13    1    3    3    0    0  0.24520149670E+02  0.29058448444E+01  0.21312156106E+02  0.32617321656E+02  0.00000000000E+00 0.  1.
         13    1    3    3    0    0 -0.15516309253E+03  0.32458524457E+02  0.24950261678E+03  0.29560226128E+03  0.00000000000E+00 0. -1.
         21    1    1    2  503  501  0.31452978571E+01  0.51659202359E+02 -0.36121641010E+02  0.63113699276E+02  0.00000000000E+00 0.  1.
          1    1    1    2  501    0  0.26322937452E+03  0.30174371471E+03  0.22009285223E+03  0.45692432260E+03  0.00000000000E+00 0. -1.
<scales pt_clust_5="13000.00000" pt_clust_6="13000.00000" pt_clust_7="13000.00000" pt_clust_8="13000.00000" pt_clust_9="51.75487" pt_clust_10="13000.00000"></scales>
<clustering>
<clus scale="   51.755">  2  9  1 -1</clus>
<clus scale="   87.177">  5  6 -1 -1</clus>
<clus scale="  126.764">  7  8 -1 -1</clus>
<clus scale="  186.802">  1  7  2 -1</clus>
<clus scale="  416.675">  5 10 -1 -1</clus>
<clus scale="   51.755">  2  5  1 -1</clus>
</clustering>
</event>
<event>
10    2  0.4951045E-006  0.2670834E+03  0.7546771E-02  0.1109911E+00
         21   -1    0    0  501  502  0.00000000000E+00  0.00000000000E+00  0.14534790672E+03  0.14534790672E+03  0.00000000000E+00 0. -1.
          2   -1    0    0  503    0 -0.00000000000E+00 -0.00000000000E+00 -0.16979791045E+04  0.16979791045E+04  0.00000000000E+00 0. -1.
         23    2    1    2    0    0  0.10946072683E+03  0.24688301491E+03 -0.10225974058E+04  0.10616843293E+04  0.92386616822E+02 0.  0.
         23    2    1    2    0    0 -0.11670817697E+03  0.38519244530E+02 -0.26214477207E+03  0.30375914288E+03  0.91897794276E+02 0.  0.
        -11    1    3    3    0    0  0.11115692207E+03  0.17525390297E+03 -0.65227427467E+03  0.68449362395E+03  0.00000000000E+00 0. -1.
         11    1    3    3    0    0 -0.16961952363E+01  0.71629111940E+02 -0.37032313111E+03  0.37719070534E+03  0.00000000000E+00 0.  1.
        -13    1    4    4    0    0 -0.24692044640E+01 -0.20201993308E+02 -0.67913726606E+02  0.70897755718E+02  0.00000000000E+00 0.  1.
         13    1    4    4    0    0 -0.11423897250E+03  0.58721237838E+02 -0.19423104546E+03  0.23286138717E+03  0.00000000000E+00 0. -1.
         21    1    1    2  503  502  0.81953825576E+02 -0.25419893704E+03 -0.88991621154E+02  0.28151916054E+03  0.00000000000E+00 0. -1.
          2    1    1    2  501    0 -0.74706375443E+02 -0.31203322405E+02 -0.17889739881E+03  0.19636437855E+03  0.00000000000E+00 0. -1.
<scales pt_clust_5="13000.00000" pt_clust_6="13000.00000" pt_clust_7="13000.00000" pt_clust_8="13000.00000" pt_clust_9="267.08337" pt_clust_10="13000.00000"></scales>
<clustering>
<clus scale="   91.898">  7  8 -1 -1</clus>
<clus scale="   80.961">  7 10 -1 -1</clus>
<clus scale="   92.387">  5  6 -1 -1</clus>
<clus scale="  267.083">  1  9  2 -1</clus>
<clus scale="  223.484">  2  5  1 -1</clus>
<clus scale="  267.083">  1  5  2 -1</clus>
</clustering>
</event>
<event>
10    2  0.4951045E-006  0.2944510E+03  0.7546771E-02  0.1131728E+00
         21   -1    0    0  501  502  0.00000000000E+00  0.00000000000E+00  0.15745781728E+04  0.15745781728E+04  0.00000000000E+00 0.  1.
         -1   -1    0    0    0  501 -0.00000000000E+00 -0.00000000000E+00 -0.35865723849E+03  0.35865723849E+03  0.00000000000E+00 0.  1.
         23    2    1    2    0    0  0.14749956522E+02 -0.26090614727E+02 -0.23691104617E+03  0.25589374895E+03  0.91959151570E+02 0.  0.
         23    2    1    2    0    0  0.10891653570E+03 -0.22232297516E+02 -0.39178928757E+02  0.14900397123E+03  0.91159794772E+02 0.  0.
        -13    1    4    4    0    0  0.30755187293E+02 -0.16694519694E+02 -0.58620209532E+02  0.68270912538E+02  0.00000000000E+00 0.  1.
         13    1    4    4    0    0  0.78161348406E+02 -0.55377778220E+01  0.19441280775E+02  0.80733058694E+02  0.00000000000E+00 0. -1.
        -13    1    3    3    0    0  0.33345777558E+02  0.13694150516E+02 -0.38750333412E+02  0.52925031685E+02  0.00000000000E+00 0. -1.
         13    1    3    3    0    0 -0.18595821036E+02 -0.39784765242E+02 -0.19816071276E+03  0.20296871726E+03  0.00000000000E+00 0.  1.
         21    1    1    2  503  502 -0.19768652002E+03  0.59763783869E+02  0.13677144432E+04  0.13832188793E+04  0.00000000000E+00 0.  1.
         -1    1    1    2    0  503  0.74020027799E+02 -0.11440871626E+02  0.12429646608E+03  0.14511881180E+03  0.00000000000E+00 0.  1.
<scales pt_clust_5="13000.00000" pt_clust_6="13000.00000" pt_clust_7="13000.00000" pt_clust_8="13000.00000" pt_clust_9="205.03135" pt_clust_10="13000.00000"></scales>
<clustering>
<clus scale="   91.160">  5  6 -1 -1</clus>
<clus scale="   74.899">  5 10 -1 -1</clus>
<clus scale="   91.959">  7  8 -1 -1</clus>
<clus scale="   96.720">  2  7  1 -1</clus>
<clus scale="  205.031">  1  9  2 -1</clus>
<clus scale="  205.031">  1  5  2 -1</clus>
</clustering>
</event>
<event>
10    2  0.4951045E-006  0.1409483E+03  0.7546771E-02  0.1223556E+00
         21   -1    0    0  501  502  0.00000000000E+00  0.00000000000E+00  0.39044033122E+03  0.39044033122E+03  0.00000000000E+00 0.  1.
          3   -1    0    0  503    0 -0.00000000000E+00 -0.00000000000E+00 -0.58203972257E+02  0.58203972257E+02  0.00000000000E+00 0. -1.
         23    2    1    2    0    0 -0.98030210829E+00 -0.58722693167E+02  0.60439254772E+02  0.12295361182E+03  0.89528606916E+02 0.  0.
         23    2    1    2    0    0 -0.21983117991E+02  0.64354410626E+02  0.14818807167E+03  0.18729341533E+03  0.92164913047E+02 0.  0.
        -11    1    4    4    0    0  0.35964404956E+02  0.17669947108E+02  0.54645919834E+02  0.67763131637E+02  0.00000000000E+00 0. -1.
         11    1    4    4    0    0 -0.57947522947E+02  0.46684463518E+02  0.93542151832E+02  0.11953028369E+03  0.00000000000E+00 0.  1.
        -13    1    3    3    0    0 -0.57945778567E+01  0.22501332689E+02  0.25219679273E+02  0.34291680157E+02  0.00000000000E+00 0.  1.
         13    1    3    3    0    0  0.48142757484E+01 -0.81224025857E+02  0.35219575499E+02  0.88661931660E+02  0.00000000000E+00 0. -1.
         21    1    1    2  503  502 -0.73511489989E+01 -0.20708955273E+02  0.81254753273E+02  0.84173838867E+02  0.00000000000E+00 0. -1.
          3    1    1    2  501    0  0.30314569099E+02  0.15077237814E+02  0.42354279256E+02  0.54223437469E+02  0.00000000000E+00 0. -1.
<scales pt_clust_5="13000.00000" pt_clust_6="13000.00000" pt_clust_7="13000.00000" pt_clust_8="13000.00000" pt_clust_9="21.97499" pt_clust_10="13000.00000"></scales>
<clustering>
<clus scale="   21.975">  1  9  2 -1</clus>
<clus scale="   89.529">  7  8 -1 -1</clus>
<clus scale="   92.165">  5  6 -1 -1</clus>
<clus scale="   31.468">  5 10 -1 -1</clus>
<clus scale="  110.619">  2  7  1 -1</clus>
<clus scale="   21.975">  1  5  2 -1</clus>
</clustering>
</event>
<event>
10    2  0.4951045E-006  0.6302606E+03  0.7546771E-02  0.1037087E+00
         21   -1    0    0  503  502  0.00000000000E+00  0.00000000000E+00  0.61350745812E+03  0.61350745812E+03  0.00000000000E+00 0. -1.
         -4   -1    0    0    0  501 -0.00000000000E+00 -0.00000000000E+00 -0.67331788712E+03  0.67331788712E+03  0.00000000000E+00 0.  1.
         23    2    1    2    0    0  0.84310079143E+02 -0.31127548454E+02 -0.24720329319E+03  0.27665607362E+03  0.85743811371E+02 0.  0.
         23    2    1    2    0    0 -0.92839994445E+02 -0.42065961064E+03 -0.10431004188E+02  0.44078361756E+03  0.92777255113E+02 0.  0.
        -11    1    3    3    0    0  0.60927886230E+02 -0.48342429014E+02 -0.10036084240E+03  0.12697045503E+03  0.00000000000E+00 0.  1.
         11    1    3    3    0    0  0.23382192913E+02  0.17214880560E+02 -0.14684245079E+03  0.14968561859E+03  0.00000000000E+00 0. -1.
        -13    1    4    4    0    0 -0.10842762355E+02 -0.52018506577E+02 -0.32845692599E+02  0.62468632483E+02  0.00000000000E+00 0.  1.
         13    1    4    4    0    0 -0.81997232090E+02 -0.36864110406E+03  0.22414688411E+02  0.37831498508E+03  0.00000000000E+00 0. -1.
         21    1    1    2  503  501  0.18039923225E+02  0.27253898448E+03  0.26227014521E+03  0.37866682712E+03  0.00000000000E+00 0. -1.
         -4    1    1    2    0  502 -0.95100079228E+01  0.17924817462E+03 -0.64446276833E+02  0.19071882695E+03  0.00000000000E+00 0.  1.
<scales pt_clust_5="13000.00000" pt_clust_6="13000.00000" pt_clust_7="13000.00000" pt_clust_8="13000.00000" pt_clust_9="269.80481" pt_clust_10="13000.00000"></scales>
<clustering>
<clus scale="   85.744">  5  6 -1 -1</clus>
<clus scale="   92.777">  7  8 -1 -1</clus>
<clus scale="  124.214">  2  5  1 -1</clus>
<clus scale="  170.409">  7 10 -1 -1</clus>
<clus scale="  269.805">  1  9  2 -1</clus>
<clus scale="  269.805">  1  5  2 -1</clus>
</clustering>
</event>
<event>
10    2  0.4951045E-006  0.3426770E+03  0.7546771E-02  0.1096508E+00
         21   -1    0    0  501  502  0.00000000000E+00  0.00000000000E+00  0.63616992430E+03  0.63616992430E+03  0.00000000000E+00 0. -1.
          1   -1    0    0  503    0 -0.00000000000E+00 -0.00000000000E+00 -0.31747204182E+03  0.31747204182E+03  0.00000000000E+00 0. -1.
         23    2    1    2    0    0 -0.84200163058E+02  0.83321734895E+02  0.74967234787E+02  0.16725645582E+03  0.91227500002E+02 0.  0.
         23    2    1    2    0    0  0.55154856223E+02 -0.61169414294E+02  0.97457244849E+01  0.12268517075E+03  0.90404184455E+02 0.  0.
        -13    1    4    4    0    0  0.51894126876E+02 -0.40579210586E+02 -0.34068537809E+02  0.74164263662E+02  0.00000000000E+00 0.  1.
         13    1    4    4    0    0  0.32607293473E+01 -0.20590203708E+02  0.43814262294E+02  0.48520907092E+02  0.00000000000E+00 0. -1.
        -13    1    3    3    0    0  0.14818775605E+02  0.28292607554E+02  0.98132138817E+00  0.31953571699E+02  0.00000000000E+00 0. -1.
         13    1    3    3    0    0 -0.99018938663E+02  0.55029127341E+02  0.73985913399E+02  0.13530288412E+03  0.00000000000E+00 0.  1.
         21    1    1    2  503  502 -0.17302891656E+03  0.20160711632E+03  0.24583729615E+03  0.36196741772E+03  0.00000000000E+00 0. -1.
          1    1    1    2  501    0  0.20207422340E+03 -0.22375943692E+03 -0.11852372934E+02  0.30173292183E+03  0.00000000000E+00 0. -1.
<scales pt_clust_5="13000.00000" pt_clust_6="13000.00000" pt_clust_7="13000.00000" pt_clust_8="13000.00000" pt_clust_9="290.95105" pt_clust_10="13000.00000"></scales>
<clustering>
<clus scale="   90.404">  5  6 -1 -1</clus>
<clus scale="   91.228">  7  8 -1 -1</clus>
<clus scale="  149.515">  2  7  1 -1</clus>
<clus scale="  233.186">  5 10 -1 -1</clus>
<clus scale="  290.951">  1  9  2 -1</clus>
<clus scale="  290.951">  1  5  2 -1</clus>
</clustering>
</event>
<event>
10    2  0.4951045E-006  0.3478503E+03  0.7546771E-02  0.1110738E+00
         21   -1    0    0  503  502  0.00000000000E+00  0.00000000000E+00  0.32222859438E+03  0.32222859438E+03  0.00000000000E+00 0. -1.
         -2   -1    0    0    0  501 -0.00000000000E+00 -0.00000000000E+00 -0.35977070106E+03  0.35977070106E+03  0.00000000000E+00 0.  1.
         23    2    1    2    0    0  0.32209388154E+02  0.13020729006E+02 -0.78658533416E+02  0.12648740757E+03  0.92762682829E+02 0.  0.
         23    2    1    2    0    0  0.27266538196E+02  0.38353021159E+02 -0.22048143429E+03  0.24407585266E+03  0.93522941841E+02 0.  0.
        -13    1    3    3    0    0  0.43130853031E+02  0.39234911894E+02 -0.78877527390E+02  0.98088292480E+02  0.00000000000E+00 0.  1.
         13    1    3    3    0    0 -0.10921464877E+02 -0.26214182888E+02  0.21899397454E+00  0.28399115090E+02  0.00000000000E+00 0. -1.
        -13    1    4    4    0    0  0.29675033760E+02 -0.15308286291E+02 -0.15885004096E+03  0.16232155362E+03  0.00000000000E+00 0. -1.
         13    1    4    4    0    0 -0.24084955641E+01  0.53661307450E+02 -0.61631393334E+02  0.81754299045E+02  0.00000000000E+00 0.  1.
         21    1    1    2  503  501 -0.10905329662E+03 -0.23548348688E+02  0.16085955887E+03  0.19576246808E+03  0.00000000000E+00 0. -1.
         -2    1    1    2    0  502  0.49577370266E+02 -0.27825401478E+02  0.10073830216E+03  0.11567356713E+03  0.00000000000E+00 0.  1.
<scales pt_clust_5="13000.00000" pt_clust_6="13000.00000" pt_clust_7="13000.00000" pt_clust_8="13000.00000" pt_clust_9="109.24480" pt_clust_10="13000.00000"></scales>
<clustering>
<clus scale="   92.763">  5  6 -1 -1</clus>
<clus scale="   93.523">  7  8 -1 -1</clus>
<clus scale="   56.852">  7 10 -1 -1</clus>
<clus scale="   99.055">  2  5  1 -1</clus>
<clus scale="  109.245">  1  9  2 -1</clus>
<clus scale="  109.245">  1  5  2 -1</clus>
</clustering>
</event>
<event>
10    2  0.4951045E-006  0.1921795E+03  0.7546771E-02  0.1174381E+00
         21   -1    0    0  503  502  0.00000000000E+00  0.00000000000E+00  0.16505869909E+03  0.16505869909E+03  0.00000000000E+00 0.  1.
          1   -1    0    0  502    0 -0.00000000000E+00 -0.00000000000E+00 -0.80897669379E+03  0.80897669379E+03  0.00000000000E+00 0. -1.
         23    2    1    2    0    0  0.10253299334E+03 -0.18571316146E+02 -0.26733112263E+03  0.30107868642E+03  0.91238904980E+02 0.  0.
         23    2    1    2    0    0 -0.52289346519E+02 -0.32336225494E+02 -0.35898200020E+03  0.37679462106E+03  0.96572784769E+02 0.  0.
        -11    1    4    4    0    0  0.19856760737E+01  0.30998036367E+02 -0.99819614473E+02  0.10454078918E+03  0.00000000000E+00 0.  1.
         11    1    4    4    0    0 -0.54275022593E+02 -0.63334261860E+02 -0.25916238572E+03  0.27225383189E+03  0.00000000000E+00 0. -1.
        -13    1    3    3    0    0  0.77085294566E+02 -0.38468699068E+02 -0.24998381131E+03  0.26441234722E+03  0.00000000000E+00 0. -1.
         13    1    3    3    0    0  0.25447698773E+02  0.19897382922E+02 -0.17347311321E+02  0.36666339196E+02  0.00000000000E+00 0.  1.
         21    1    1    2  503  501 -0.35724121046E+02 -0.16613714070E+02  0.12858155233E+03  0.13448213234E+03  0.00000000000E+00 0.  1.
          1    1    1    2  501    0 -0.14519525773E+02  0.67521255710E+02 -0.14618642420E+03  0.16167995306E+03  0.00000000000E+00 0. -1.
<scales pt_clust_5="13000.00000" pt_clust_6="13000.00000" pt_clust_7="13000.00000" pt_clust_8="13000.00000" pt_clust_9="39.39833" pt_clust_10="13000.00000"></scales>
<clustering>
<clus scale="   39.398">  1  9  2 -1</clus>
<clus scale="   91.239">  7  8 -1 -1</clus>
<clus scale="   96.573">  5  6 -1 -1</clus>
<clus scale="   67.632">  5 10 -1 -1</clus>
<clus scale="  127.276">  2  7  1 -1</clus>
<clus scale="   39.398">  1  5  2 -1</clus>
</clustering>
</event>
<event>
10    2  0.4951045E-006  0.1388124E+03  0.7546771E-02  0.1221921E+00
         21   -1    0    0  501  502  0.00000000000E+00  0.00000000000E+00  0.49282498010E+03  0.49282498010E+03  0.00000000000E+00 0. -1.
         -3   -1    0    0    0  501 -0.00000000000E+00 -0.00000000000E+00 -0.85071121315E+02  0.85071121315E+02  0.00000000000E+00 0.  1.
         23    2    1    2    0    0  0.23826483618E+02 -0.45879673067E+02  0.12679610236E+03  0.16565675542E+03  0.93232308361E+02 0.  0.
         23    2    1    2    0    0 -0.38928395917E+02  0.74413424303E+02  0.17100858716E+02  0.12553673532E+03  0.91729247357E+02 0.  0.
        -11    1    4    4    0    0 -0.58084381347E+02  0.84546313342E+02  0.16196336375E+02  0.10384698247E+03  0.00000000000E+00 0.  1.
         11    1    4    4    0    0  0.19155985429E+02 -0.10132889039E+02  0.90452234054E+00  0.21689752850E+02  0.00000000000E+00 0. -1.
        -13    1    3    3    0    0 -0.20893282962E+02  0.91918731716E+01  0.73395113302E+02  0.76862620706E+02  0.00000000000E+00 0.  1.
         13    1    3    3    0    0  0.44719766580E+02 -0.55071546239E+02  0.53400989055E+02  0.88794134717E+02  0.00000000000E+00 0. -1.
         21    1    1    2  503  502 -0.36004655466E+01 -0.41418812596E+02  0.26043784137E+03  0.26373537989E+03  0.00000000000E+00 0. -1.
         -3    1    1    2    0  503  0.18702377846E+02  0.12885061360E+02  0.34190563411E+01  0.22967230778E+02  0.00000000000E+00 0.  1.
<scales pt_clust_5="13000.00000" pt_clust_6="13000.00000" pt_clust_7="13000.00000" pt_clust_8="13000.00000" pt_clust_9="41.57501" pt_clust_10="13000.00000"></scales>
<clustering>
<clus scale="   41.575">  1  9  2 -1</clus>
<clus scale="   91.729">  5  6 -1 -1</clus>
<clus scale="   21.277">  5 10 -1 -1</clus>
<clus scale="   93.232">  7  8 -1 -1</clus>
<clus scale="  119.829">  2  7  1 -1</clus>
<clus scale="   41.575">  1  5  2 -1</clus>
</clustering>
</event>
<event>
10    2  0.4951045E-006  0.2201192E+03  0.7546771E-02  0.1164210E+00
         21   -1    0    0  501  502  0.00000000000E+00  0.00000000000E+00  0.47745517166E+03  0.47745517166E+03  0.00000000000E+00 0.  1.
          1   -1    0    0  503    0 -0.00000000000E+00 -0.00000000000E+00 -0.21137876432E+03  0.21137876432E+03  0.00000000000E+00 0. -1.
         23    2    1    2    0    0 -0.10544474259E+02  0.15454400012E+02 -0.47157767410E+02  0.11685899703E+03  0.10527177087E+03 0.  0.
         23    2    1    2    0    0  0.25238719759E+01  0.90482601050E+02 -0.70284981867E+02  0.14579014481E+03  0.90118347891E+02 0.  0.
        -13    1    3    3    0    0  0.41380565294E+02  0.23266417244E+02 -0.18570591261E+01  0.47509220410E+02  0.00000000000E+00 0.  1.
         13    1    3    3    0    0 -0.51925039553E+02 -0.78120172316E+01 -0.45300708284E+02  0.69349776617E+02  0.00000000000E+00 0. -1.
        -13    1    4    4    0    0  0.31753829212E+02  0.28619174587E+01 -0.40712671551E+01  0.32141428988E+02  0.00000000000E+00 0.  1.
         13    1    4    4    0    0 -0.29229957236E+02  0.87620683591E+02 -0.66213714712E+02  0.11364871583E+03  0.00000000000E+00 0. -1.
         21    1    1    2  503  502  0.59259404287E+02 -0.90162225584E+02  0.34129076810E+03  0.35793895053E+03  0.00000000000E+00 0.  1.
          1    1    1    2  501    0 -0.51238802004E+02 -0.15774775479E+02  0.42228388515E+02  0.68245843600E+02  0.00000000000E+00 0. -1.
<scales pt_clust_5="13000.00000" pt_clust_6="13000.00000" pt_clust_7="13000.00000" pt_clust_8="13000.00000" pt_clust_9="106.68941" pt_clust_10="13000.00000"></scales>
<clustering>
<clus scale="   90.118">  7  8 -1 -1</clus>
<clus scale="   53.612">  7 10 -1 -1</clus>
<clus scale="  105.272">  5  6 -1 -1</clus>
<clus scale="  106.921">  2  5  1 -1</clus>
<clus scale="  106.689">  1  9  2 -1</clus>
<clus scale="  106.689">  1  5  2 -1</clus>
</clustering>
</event>
<event>
10    2  0.4951045E-006  0.3169603E+03  0.7546771E-02  0.1084956E+00
         -1   -1    0    0    0  501 -0.00000000000E+00  0.00000000000E+00  0.98157777775E+03  0.98157777775E+03  0.00000000000E+00 0.  1.
         21   -1    0    0  501  502  0.00000000000E+00 -0.00000000000E+00 -0.27144267013E+03  0.27144267013E+03  0.00000000000E+00 0.  1.
         23    2    1    2    0    0  0.25384855445E+03  0.10079770502E+01  0.40968064338E+03  0.48980249594E+03  0.87339285863E+02 0.  0.
         23    2    1    2    0    0 -0.12196628553E+03 -0.75138179499E+02  0.36864764817E+03  0.40634409284E+03  0.93235789580E+02 0.  0.
        -11    1    3    3    0    0  0.20241287425E+03 -0.35211701241E+02  0.30807867830E+03  0.37030164406E+03  0.00000000000E+00 0.  1.
         11    1    3    3    0    0  0.51435680194E+02  0.36219678291E+02  0.10160196507E+03  0.11950085188E+03  0.00000000000E+00 0. -1.
        -13    1    4    4    0    0 -0.81089265415E+02  0.37866133373E+01  0.19642044491E+03  0.21253422921E+03  0.00000000000E+00 0. -1.
         13    1    4    4    0    0 -0.40877020116E+02 -0.78924792836E+02  0.17222720326E+03  0.19380986363E+03  0.00000000000E+00 0.  1.
         21    1    1    2  503  502 -0.27358405527E+02  0.14007496939E+02 -0.18586578625E+03  0.18838997538E+03  0.00000000000E+00 0.  1.
         -1    1    1    2    0  503 -0.10452386339E+03  0.60122705510E+02  0.11767260233E+03  0.16848388373E+03  0.00000000000E+00 0.  1.
<scales pt_clust_5="13000.00000" pt_clust_6="13000.00000" pt_clust_7="13000.00000" pt_clust_8="13000.00000" pt_clust_9="30.73585" pt_clust_10="13000.00000"></scales>
<clustering>
<clus scale="   30.736">  2  9  1 -1</clus>
<clus scale="   87.339">  5  6 -1 -1</clus>
<clus scale="   93.236">  7  8 -1 -1</clus>
<clus scale="  129.833">  7 10 -1 -1</clus>
<clus scale="  256.311">  1  5  2 -1</clus>
<clus scale="   30.736">  2  5  1 -1</clus>
</clustering>
</event>
<event>
10    2  0.4951045E-006  0.1506630E+03  0.7546771E-02  0.1221492E+00
         -1   -1    0    0    0  501 -0.00000000000E+00  0.00000000000E+00  0.33681275729E+03  0.33681275729E+03  0.00000000000E+00 0.  1.
         21   -1    0    0  503  502  0.00000000000E+00 -0.00000000000E+00 -0.18848466910E+03  0.18848466910E+03  0.00000000000E+00 0. -1.
         23    2    1    2    0    0  0.49735140691E+01 -0.65364470012E+01  0.46966458505E+02  0.10449214128E+03  0.92980096701E+02 0.  0.
         23    2    1    2    0    0 -0.23208284632E+02 -0.99780606229E+01  0.18505508812E+03  0.20784798503E+03  0.91198755870E+02 0.  0.
        -11    1    4    4    0    0 -0.38748825596E+02  0.18344241367E+02  0.16346128435E+03  0.16898986407E+03  0.00000000000E+00 0.  1.
         11    1    4    4    0    0  0.15540540964E+02 -0.28322301990E+02  0.21593803774E+02  0.38858120965E+02  0.00000000000E+00 0. -1.
        -11    1    3    3    0    0  0.19637229106E+02  0.39994459912E+02  0.22473621896E+02  0.49902317298E+02  0.00000000000E+00 0.  1.
         11    1    3    3    0    0 -0.14663715037E+02 -0.46530906913E+02  0.24492836608E+02  0.54589823978E+02  0.00000000000E+00 0. -1.
         21    1    1    2  503  501 -0.23870981013E+02 -0.15095189510E+02 -0.13590460468E+03  0.13880832127E+03  0.00000000000E+00 0. -1.
         -1    1    1    2    0  502  0.42105751576E+02  0.31609697135E+02  0.52211146241E+02  0.74148978823E+02  0.00000000000E+00 0.  1.
<scales pt_clust_5="13000.00000" pt_clust_6="13000.00000" pt_clust_7="13000.00000" pt_clust_8="13000.00000" pt_clust_9="28.24338" pt_clust_10="13000.00000"></scales>
<clustering>
<clus scale="   28.243">  2  9  1 -1</clus>
<clus scale="   91.199">  5  6 -1 -1</clus>
<clus scale="   46.613">  5 10 -1 -1</clus>
<clus scale="   92.980">  7  8 -1 -1</clus>
<clus scale="   94.566">  1  7  2 -1</clus>
<clus scale="   28.243">  2  5  1 -1</clus>
</clustering>
</event>
<event>
10    2  0.4951045E-006  0.1406681E+04  0.7546771E-02  0.9602299E-01
         21   -1    0    0  501  502  0.00000000000E+00  0.00000000000E+00  0.87038805136E+03  0.87038805136E+03  0.00000000000E+00 0. -1.
          2   -1    0    0  503    0 -0.00000000000E+00 -0.00000000000E+00 -0.95294607761E+03  0.95294607761E+03  0.00000000000E+00 0. -1.
         23    2    1    2    0    0  0.84564017696E+02  0.33884013649E+02 -0.20905005361E+03  0.24472873546E+03  0.88831467247E+02 0.  0.
         23    2    1    2    0    0  0.10957761491E+03  0.19137068964E+03 -0.62355169144E+03  0.66724422065E+03  0.88137072545E+02 0.  0.
        -11    1    4    4    0    0  0.13885417461E+02  0.84330374495E+02 -0.15272791245E+03  0.17501494828E+03  0.00000000000E+00 0. -1.
         11    1    4    4    0    0  0.95692197450E+02  0.10704031514E+03 -0.47082377898E+03  0.49222927237E+03  0.00000000000E+00 0.  1.
        -13    1    3    3    0    0  0.28286396910E+02 -0.28226597348E+02 -0.42855795590E+02  0.58595906544E+02  0.00000000000E+00 0.  1.
         13    1    3    3    0    0  0.56277620786E+02  0.62110610997E+02 -0.16619425802E+03  0.18613282891E+03  0.00000000000E+00 0. -1.
         21    1    1    2  503  502 -0.55257145262E+02 -0.16061436952E+03  0.26658193936E+02  0.17193308903E+03  0.00000000000E+00 0.  1.
          2    1    1    2  501    0 -0.13888448734E+03 -0.64640333767E+02  0.72338552487E+03  0.73942808383E+03  0.00000000000E+00 0. -1.
<scales pt_clust_5="13000.00000" pt_clust_6="13000.00000" pt_clust_7="13000.00000" pt_clust_8="13000.00000" pt_clust_9="164.04116" pt_clust_10="13000.00000"></scales>
<clustering>
<clus scale="   88.137">  5  6 -1 -1</clus>
<clus scale="   88.831">  7  8 -1 -1</clus>
<clus scale="  127.241">  2  7  1 -1</clus>
<clus scale="  152.185">  5 10 -1 -1</clus>
<clus scale="  164.041">  1  9  2 -1</clus>
<clus scale="  164.041">  1  5  2 -1</clus>
</clustering>
</event>
<event>
10    2  0.4951045E-006  0.1579264E+03  0.7546771E-02  0.1214695E+00
          1   -1    0    0  503    0 -0.00000000000E+00  0.00000000000E+00  0.13351667710E+03  0.13351667710E+03  0.00000000000E+00 0. -1.
         21   -1    0    0  501  502  0.00000000000E+00 -0.00000000000E+00 -0.41043611894E+03  0.41043611894E+03  0.00000000000E+00 0. -1.
         23    2    1    2    0    0 -0.10450428176E+02  0.18295044170E+01  0.64021770440E+02  0.11410405049E+03  0.93853016533E+02 0.  0.
         23    2    1    2    0    0  0.49960058023E+02  0.85697893661E+02 -0.13689032963E+03  0.19198388405E+03  0.90987433273E+02 0.  0.
        -13    1    4    4    0    0  0.22143975879E+01  0.64480711926E+02 -0.26301056870E+02  0.69673605904E+02  0.00000000000E+00 0.  1.
         13    1    4    4    0    0  0.47745660435E+02  0.21217181735E+02 -0.11058927276E+03  0.12231027815E+03  0.00000000000E+00 0. -1.
        -13    1    3    3    0    0 -0.16906214687E+02 -0.44110303116E+02  0.39798766939E+02  0.61769578158E+02  0.00000000000E+00 0.  1.
         13    1    3    3    0    0  0.64557865102E+01  0.45939807533E+02  0.24223003502E+02  0.52334472332E+02  0.00000000000E+00 0. -1.
         21    1    1    2  503  502 -0.92773969328E+01 -0.68791719957E+02 -0.18483359960E+03  0.19743816847E+03  0.00000000000E+00 0. -1.
          1    1    1    2  501    0 -0.30232232913E+02 -0.18735678121E+02 -0.19217283046E+02  0.40426693029E+02  0.00000000000E+00 0. -1.
<scales pt_clust_5="13000.00000" pt_clust_6="13000.00000" pt_clust_7="13000.00000" pt_clust_8="13000.00000" pt_clust_9="69.41449" pt_clust_10="13000.00000"></scales>
<clustering>
<clus scale="   69.414">  2  9  1 -1</clus>
<clus scale="   90.987">  5  6 -1 -1</clus>
<clus scale="   42.201">  5 10 -1 -1</clus>
<clus scale="   93.853">  7  8 -1 -1</clus>
<clus scale="   94.748">  1  7  2 -1</clus>
<clus scale="   69.414">  2  5  1 -1</clus>
</clustering>
</event>
<event>
10    2  0.4951045E-006  0.4720276E+03  0.7546771E-02  0.1072299E+00
          1   -1    0    0  502    0 -0.00000000000E+00  0.00000000000E+00  0.81432500825E+03  0.81432500825E+03  0.00000000000E+00 0. -1.
         21   -1    0    0  503  502  0.00000000000E+00 -0.00000000000E+00 -0.22362674682E+03  0.22362674682E+03  0.00000000000E+00 0.  1.
         23    2    1    2    0    0  0.14544921480E+02 -0.54465990816E+02  0.29430492319E+03  0.31346453660E+03  0.92013743493E+02 0.  0.
         23    2    1    2    0    0  0.13249093856E+03  0.18382927385E+03  0.24832930828E+03  0.34791618793E+03  0.89616838538E+02 0.  0.
        -11    1    3    3    0    0 -0.22992402273E+02  0.15533834354E+02  0.93164054260E+02  0.97208495401E+02  0.00000000000E+00 0.  1.
         11    1    3    3    0    0  0.37537323753E+02 -0.69999825170E+02  0.20114086893E+03  0.21625604119E+03  0.00000000000E+00 0. -1.
        -13    1    4    4    0    0  0.27189681454E+02  0.53680373996E+02  0.12894983506E+03  0.14229870447E+03  0.00000000000E+00 0. -1.
         13    1    4    4    0    0  0.10530125710E+03  0.13014889985E+03  0.11937947321E+03  0.20561748346E+03  0.00000000000E+00 0.  1.
         21    1    1    2  503  501  0.52912826381E+02 -0.17560471081E+02 -0.92354045466E+02  0.10787681426E+03  0.00000000000E+00 0.  1.
          1    1    1    2  501    0 -0.19994868642E+03 -0.11180281195E+03  0.14041807543E+03  0.26869421629E+03  0.00000000000E+00 0. -1.
<scales pt_clust_5="13000.00000" pt_clust_6="13000.00000" pt_clust_7="13000.00000" pt_clust_8="13000.00000" pt_clust_9="55.75067" pt_clust_10="13000.00000"></scales>
<clustering>
<clus scale="   55.751">  2  9  1 -1</clus>
<clus scale="   89.617">  7  8 -1 -1</clus>
<clus scale="   92.014">  5  6 -1 -1</clus>
<clus scale="  109.229">  1  5  2 -1</clus>
<clus scale="  217.634">  7 10 -1 -1</clus>
<clus scale="   55.751">  2  5  1 -1</clus>
</clustering>
</event>
<event>
10    2  0.4951045E-006  0.2175925E+03  0.7546771E-02  0.1169781E+00
         21   -1    0    0  501  502  0.00000000000E+00  0.00000000000E+00  0.25467204433E+03  0.25467204433E+03  0.00000000000E+00 0. -1.
          1   -1    0    0  503    0 -0.00000000000E+00 -0.00000000000E+00 -0.19112430691E+03  0.19112430691E+03  0.00000000000E+00 0. -1.
         23    2    1    2    0    0  0.23196561164E+02  0.17604454526E+02 -0.66416171237E+02  0.11760033137E+03  0.92578252665E+02 0.  0.
         23    2    1    2    0    0 -0.31132333250E+02 -0.63720313264E+02 -0.41610680189E+02  0.12201224166E+03  0.90144539002E+02 0.  0.
        -13    1    4    4    0    0 -0.62232655310E+01 -0.60886034274E+02  0.12418205629E+02  0.62450380580E+02  0.00000000000E+00 0. -1.
         13    1    4    4    0    0 -0.24909067719E+02 -0.28342789903E+01 -0.54028885818E+02  0.59561861076E+02  0.00000000000E+00 0.  1.
        -13    1    3    3    0    0  0.57265953276E+02  0.20257686408E+02 -0.53894811351E+02  0.81205997031E+02  0.00000000000E+00 0. -1.
         13    1    3    3    0    0 -0.34069392112E+02 -0.26532318817E+01 -0.12521359886E+02  0.36394334335E+02  0.00000000000E+00 0.  1.
         21    1    1    2  503  502  0.22163817804E+02 -0.23505332796E+02  0.10096404525E+03  0.10600695224E+03  0.00000000000E+00 0. -1.
          1    1    1    2  501    0 -0.14228045718E+02  0.69621191534E+02  0.70610543603E+02  0.10017682598E+03  0.00000000000E+00 0. -1.
<scales pt_clust_5="13000.00000" pt_clust_6="13000.00000" pt_clust_7="13000.00000" pt_clust_8="13000.00000" pt_clust_9="32.30690" pt_clust_10="13000.00000"></scales>
<clustering>
<clus scale="   32.307">  1  9  2 -1</clus>
<clus scale="   90.145">  5  6 -1 -1</clus>
<clus scale="   56.371">  5 10 -1 -1</clus>
<clus scale="   92.578">  7  8 -1 -1</clus>
<clus scale="   97.379">  2  7  1 -1</clus>
<clus scale="   32.307">  1  5  2 -1</clus>
</clustering>
</event>
<event>
10    2  0.4951045E-006  0.6234163E+03  0.7546771E-02  0.1009800E+00
         21   -1    0    0  501  502  0.00000000000E+00  0.00000000000E+00  0.57181380190E+03  0.57181380190E+03  0.00000000000E+00 0.  1.
          2   -1    0    0  503    0 -0.00000000000E+00 -0.00000000000E+00 -0.16540910676E+04  0.16540910676E+04  0.00000000000E+00 0. -1.
         23    2    1    2    0    0  0.14267494308E+03  0.23775018091E+03 -0.70900313470E+03  0.76660915233E+03  0.90126907822E+02 0.  0.
         23    2    1    2    0    0  0.12080281702E+03  0.54318556259E+02 -0.63171121008E+02  0.17268127314E+03  0.91018709106E+02 0.  0.
        -11    1    4    4    0    0  0.12071540606E+03  0.31048138114E+02 -0.23724252265E+02  0.12688197778E+03  0.00000000000E+00 0.  1.
         11    1    4    4    0    0  0.87410965783E-01  0.23270418145E+02 -0.39446868743E+02  0.45799295355E+02  0.00000000000E+00 0. -1.
        -13    1    3    3    0    0  0.61896518764E+02  0.86462547635E+02 -0.39224381463E+03  0.40640147797E+03  0.00000000000E+00 0.  1.
         13    1    3    3    0    0  0.80778424314E+02  0.15128763328E+03 -0.31675932007E+03  0.36020767436E+03  0.00000000000E+00 0. -1.
         21    1    1    2  503  502 -0.54346565092E+03 -0.12119434383E+03  0.27105087825E+03  0.61928310272E+03  0.00000000000E+00 0.  1.
          2    1    1    2  501    0  0.27998789082E+03 -0.17087439334E+03 -0.58115388827E+03  0.66733134136E+03  0.00000000000E+00 0. -1.
<scales pt_clust_5="13000.00000" pt_clust_6="13000.00000" pt_clust_7="13000.00000" pt_clust_8="13000.00000" pt_clust_9="521.91943" pt_clust_10="13000.00000"></scales>
<clustering>
<clus scale="   90.127">  7  8 -1 -1</clus>
<clus scale="   91.019">  5  6 -1 -1</clus>
<clus scale="  291.555">  2  7  1 -1</clus>
<clus scale="  377.294">  5 10 -1 -1</clus>
<clus scale="  521.919">  1  9  2 -1</clus>
<clus scale="  521.919">  1  5  2 -1</clus>
</clustering>
</event>
<event>
10    2  0.4951045E-006  0.2016574E+03  0.7546771E-02  0.1167333E+00
          3   -1    0    0  503    0 -0.00000000000E+00  0.00000000000E+00  0.69233835010E+02  0.69233835010E+02  0.00000000000E+00 0. -1.
         21   -1    0    0  501  502  0.00000000000E+00 -0.00000000000E+00 -0.54395257033E+03  0.54395257033E+03  0.00000000000E+00 0.  1.
         23    2    1    2    0    0 -0.64038340601E+01  0.76661392567E+02 -0.14732446424E+03  0.19031642908E+03  0.92724685025E+02 0.  0.
         23    2    1    2    0    0 -0.23665538633E+02 -0.34220690137E+02 -0.43176803461E+02  0.10924780605E+03  0.91322140894E+02 0.  0.
        -13    1    4    4    0    0  0.10707740994E+02 -0.49089748544E+02  0.23465797467E+01  0.50298763065E+02  0.00000000000E+00 0. -1.
         13    1    4    4    0    0 -0.34373279627E+02  0.14869058407E+02 -0.45523383208E+02  0.58949042986E+02  0.00000000000E+00 0.  1.
        -13    1    3    3    0    0 -0.24725418454E+02  0.92441872681E+02 -0.10946793499E+03  0.14539626863E+03  0.00000000000E+00 0.  1.
         13    1    3    3    0    0  0.18321584394E+02 -0.15780480114E+02 -0.37856529256E+02  0.44920160448E+02  0.00000000000E+00 0. -1.
         21    1    1    2  503  502 -0.23780037528E+02  0.30226814437E+02 -0.12169744971E+03  0.12763001121E+03  0.00000000000E+00 0.  1.
          3    1    1    2  501    0  0.53849410221E+02 -0.72667516867E+02 -0.16252001791E+03  0.18599215900E+03  0.00000000000E+00 0. -1.
<scales pt_clust_5="13000.00000" pt_clust_6="13000.00000" pt_clust_7="13000.00000" pt_clust_8="13000.00000" pt_clust_9="38.45973" pt_clust_10="13000.00000"></scales>
<clustering>
<clus scale="   38.460">  2  9  1 -1</clus>
<clus scale="   91.322">  5  6 -1 -1</clus>
<clus scale="   74.469">  5 10 -1 -1</clus>
<clus scale="   92.725">  7  8 -1 -1</clus>
<clus scale="  129.400">  1  7  2 -1</clus>
<clus scale="   38.460">  2  5  1 -1</clus>
</clustering>
</event>
<event>
10    2  0.4951045E-006  0.8951385E+03  0.7546771E-02  0.9931604E-01
         21   -1    0    0  501  502  0.00000000000E+00  0.00000000000E+00  0.51628464752E+03  0.51628464752E+03  0.00000000000E+00 0. -1.
         -1   -1    0    0    0  501 -0.00000000000E+00 -0.00000000000E+00 -0.10731119499E+04  0.10731119499E+04  0.00000000000E+00 0.  1.
         23    2    1    2    0    0 -0.68315409443E+02  0.81194817227E+02  0.17802216156E+03  0.22598513697E+03  0.90098826933E+02 0.  0.
         23    2    1    2    0    0  0.44607742461E+03 -0.63422373836E+02 -0.69340108696E+03  0.83189238145E+03  0.90732577769E+02 0.  0.
        -13    1    4    4    0    0  0.13446828363E+03  0.22373669702E+02 -0.19836268385E+03  0.24068663183E+03  0.00000000000E+00 0. -1.
         13    1    4    4    0    0  0.31160914099E+03 -0.85796043537E+02 -0.49503840311E+03  0.59120574962E+03  0.00000000000E+00 0.  1.
        -13    1    3    3    0    0 -0.21421038242E+02 -0.12336739795E+02  0.75722385144E+02  0.79655104293E+02  0.00000000000E+00 0.  1.
         13    1    3    3    0    0 -0.46894371201E+02  0.93531557023E+02  0.10229977641E+03  0.14633003268E+03  0.00000000000E+00 0. -1.
         21    1    1    2  503  502 -0.15345953230E+02  0.70472561397E+02  0.10785065667E+03  0.12974453489E+03  0.00000000000E+00 0.  1.
         -1    1    1    2    0  503 -0.36241606194E+03 -0.88245004788E+02 -0.14929903361E+03  0.40177454407E+03  0.00000000000E+00 0.  1.
<scales pt_clust_5="13000.00000" pt_clust_6="13000.00000" pt_clust_7="13000.00000" pt_clust_8="13000.00000" pt_clust_9="72.12406" pt_clust_10="13000.00000"></scales>
<clustering>
<clus scale="   72.124">  1  9  2 -1</clus>
<clus scale="   90.099">  7  8 -1 -1</clus>
<clus scale="   90.733">  5  6 -1 -1</clus>
<clus scale="  166.140">  2  7  1 -1</clus>
<clus scale="  389.488">  5 10 -1 -1</clus>
<clus scale="   72.124">  1  5  2 -1</clus>
</clustering>
</event>
<event>
10    2  0.4951045E-006  0.1347884E+03  0.7546771E-02  0.1235766E+00
          2   -1    0    0  503    0 -0.00000000000E+00  0.00000000000E+00  0.62045065405E+03  0.62045065405E+03  0.00000000000E+00 0. -1.
         21   -1    0    0  501  502  0.00000000000E+00 -0.00000000000E+00 -0.38459776590E+02  0.38459776590E+02  0.00000000000E+00 0.  1.
         23    2    1    2    0    0  0.37855203860E+02  0.12285988805E+02  0.42198371641E+03  0.43367178072E+03  0.91744179623E+02 0.  0.
         23    2    1    2    0    0 -0.23238226053E+02 -0.32449311626E+02  0.11373431816E+03  0.15109215102E+03  0.91106366391E+02 0.  0.
        -13    1    4    4    0    0 -0.44959100136E+02  0.14897921132E+02  0.53077158277E+02  0.71136864353E+02  0.00000000000E+00 0. -1.
         13    1    4    4    0    0  0.21720874083E+02 -0.47347232758E+02  0.60657159882E+02  0.79955286665E+02  0.00000000000E+00 0.  1.
        -13    1    3    3    0    0  0.27578640139E+02 -0.36844842925E+02  0.14346568359E+03  0.15066693802E+03  0.00000000000E+00 0.  1.
         13    1    3    3    0    0  0.10276563721E+02  0.49130831730E+02  0.27851803281E+03  0.28300484270E+03  0.00000000000E+00 0. -1.
         21    1    1    2  503  502 -0.21442447421E+02 -0.10763108386E+02  0.99990641912E+01  0.25992390006E+02  0.00000000000E+00 0.  1.
          2    1    1    2  501    0  0.68254696149E+01  0.30926431207E+02  0.36273778697E+02  0.48154108897E+02  0.00000000000E+00 0. -1.
<scales pt_clust_5="13000.00000" pt_clust_6="13000.00000" pt_clust_7="13000.00000" pt_clust_8="13000.00000" pt_clust_9="23.99215" pt_clust_10="13000.00000"></scales>
<clustering>
<clus scale="   23.992">  2  9  1 -1</clus>
<clus scale="   91.106">  5  6 -1 -1</clus>
<clus scale="   28.949">  5 10 -1 -1</clus>
<clus scale="   91.744">  7  8 -1 -1</clus>
<clus scale="   98.285">  1  7  2 -1</clus>
<clus scale="   23.992">  2  5  1 -1</clus>
</clustering>
</event>
<event>
10    2  0.4951045E-006  0.1823118E+03  0.7546771E-02  0.1194763E+00
          1   -1    0    0  503    0 -0.00000000000E+00  0.00000000000E+00  0.29201505299E+03  0.29201505299E+03  0.00000000000E+00 0. -1.
         21   -1    0    0  501  502  0.00000000000E+00 -0.00000000000E+00 -0.23803467180E+03  0.23803467180E+03  0.00000000000E+00 0.  1.
         23    2    1    2    0    0  0.11452831078E+02 -0.18136142262E+02  0.10690531761E+03  0.14189552134E+03  0.90804763353E+02 0.  0.
         23    2    1    2    0    0 -0.41909151842E+01 -0.11009140060E+02  0.13690781836E+03  0.16539903536E+03  0.92056098313E+02 0.  0.
        -11    1    3    3    0    0  0.42015436462E+02 -0.30112597918E+02  0.33807928177E+02  0.61766021906E+02  0.00000000000E+00 0.  1.
         11    1    3    3    0    0 -0.30562605384E+02  0.11976455656E+02  0.73097389429E+02  0.80129499432E+02  0.00000000000E+00 0. -1.
        -11    1    4    4    0    0  0.30109379143E+02 -0.34221573197E+02  0.10010251456E+03  0.10999183700E+03  0.00000000000E+00 0.  1.
         11    1    4    4    0    0 -0.34300294328E+02  0.23212433138E+02  0.36805303793E+02  0.55407198363E+02  0.00000000000E+00 0. -1.
         21    1    1    2  503  502  0.18945685732E+02 -0.11518590683E+02 -0.16838138568E+03  0.16983494335E+03  0.00000000000E+00 0.  1.
          1    1    1    2  501    0 -0.26207601626E+02  0.40663873005E+02 -0.21451369098E+02  0.52920224743E+02  0.00000000000E+00 0. -1.
<scales pt_clust_5="13000.00000" pt_clust_6="13000.00000" pt_clust_7="13000.00000" pt_clust_8="13000.00000" pt_clust_9="22.17244" pt_clust_10="13000.00000"></scales>
<clustering>
<clus scale="   22.172">  2  9  1 -1</clus>
<clus scale="   90.805">  5  6 -1 -1</clus>
<clus scale="   92.056">  7  8 -1 -1</clus>
<clus scale="   37.978">  7 10 -1 -1</clus>
<clus scale="   94.623">  1  5  2 -1</clus>
<clus scale="   22.172">  2  5  1 -1</clus>
</clustering>
</event>
<event>
10    2  0.4951045E-006  0.1669851E+03  0.7546771E-02  0.1208012E+00
         21   -1    0    0  503  502  0.00000000000E+00  0.00000000000E+00  0.36297808432E+02  0.36297808432E+02  0.00000000000E+00 0. -1.
          1   -1    0    0  502    0 -0.00000000000E+00 -0.00000000000E+00 -0.10777641056E+04  0.10777641056E+04  0.00000000000E+00 0. -1.
         23    2    1    2    0    0 -0.14633414204E+02  0.30909535239E+02 -0.19871463469E+03  0.22123123604E+03  0.91028663501E+02 0.  0.
         23    2    1    2    0    0  0.20209945645E+02  0.39064562622E+02 -0.35857873025E+03  0.37282519715E+03  0.92116447427E+02 0.  0.
        -11    1    3    3    0    0 -0.51300015092E+02  0.31400328721E+02 -0.13325104028E+03  0.14619682598E+03  0.00000000000E+00 0.  1.
         11    1    3    3    0    0  0.36666600888E+02 -0.49079348285E+00 -0.65463594414E+02  0.75034410057E+02  0.00000000000E+00 0. -1.
        -13    1    4    4    0    0  0.43500472048E+01  0.66935160474E+02 -0.19732763549E+03  0.20841649250E+03  0.00000000000E+00 0. -1.
         13    1    4    4    0    0  0.15859898440E+02 -0.27870597852E+02 -0.16125109476E+03  0.16440870465E+03  0.00000000000E+00 0.  1.
         21    1    1    2  503  501  0.56456977559E+02 -0.52670180117E+02 -0.81697600676E+02  0.11241012474E+03  0.00000000000E+00 0. -1.
          1    1    1    2  501    0 -0.62033509001E+02 -0.17303917743E+02 -0.40247533159E+03  0.40759535614E+03  0.00000000000E+00 0. -1.
<scales pt_clust_5="13000.00000" pt_clust_6="13000.00000" pt_clust_7="13000.00000" pt_clust_8="13000.00000" pt_clust_9="77.21100" pt_clust_10="13000.00000"></scales>
<clustering>
<clus scale="   77.211">  1  9  2 -1</clus>
<clus scale="   91.029">  5  6 -1 -1</clus>
<clus scale="   92.116">  7  8 -1 -1</clus>
<clus scale="   60.027">  7 10 -1 -1</clus>
<clus scale="   92.412">  2  5  1 -1</clus>
<clus scale="   77.211">  1  5  2 -1</clus>
</clustering>
</event>
<event>
10    2  0.4951045E-006  0.4241158E+03  0.7546771E-02  0.1040425E+00
          3   -1    0    0  503    0 -0.00000000000E+00  0.00000000000E+00  0.13252330268E+04  0.13252330268E+04  0.00000000000E+00 0. -1.
         21   -1    0    0  501  502  0.00000000000E+00 -0.00000000000E+00 -0.21286583419E+03  0.21286583419E+03  0.00000000000E+00 0. -1.
         23    2    1    2    0    0  0.29390769969E+03  0.19327181703E+03  0.64990451204E+03  0.74466361194E+03  0.91718531282E+02 0.  0.
         23    2    1    2    0    0 -0.18107197544E+03 -0.81939771106E+01  0.37566114100E+03  0.42726092697E+03  0.92608883513E+02 0.  0.
        -13    1    4    4    0    0 -0.16618854148E+03  0.15760064709E+02  0.35503275041E+03  0.39232035994E+03  0.00000000000E+00 0. -1.
         13    1    4    4    0    0 -0.14883433959E+02 -0.23954041819E+02  0.20628390587E+02  0.34940567026E+02  0.00000000000E+00 0.  1.
        -13    1    3    3    0    0  0.13882902364E+03  0.11471509514E+03  0.24545005446E+03  0.30443189730E+03  0.00000000000E+00 0. -1.
         13    1    3    3    0    0  0.15507867606E+03  0.78556721887E+02  0.40445445758E+03  0.44023171464E+03  0.00000000000E+00 0.  1.
         21    1    1    2  503  502  0.65815843282E+02 -0.77439263528E+02 -0.53453962315E+02  0.11482983432E+03  0.00000000000E+00 0. -1.
          3    1    1    2  501    0 -0.17865156754E+03 -0.10763857639E+03  0.14025550184E+03  0.25134448772E+03  0.00000000000E+00 0. -1.
<scales pt_clust_5="13000.00000" pt_clust_6="13000.00000" pt_clust_7="13000.00000" pt_clust_8="13000.00000" pt_clust_9="101.62955" pt_clust_10="13000.00000"></scales>
<clustering>
<clus scale="   91.719">  7  8 -1 -1</clus>
<clus scale="   92.609">  5  6 -1 -1</clus>
<clus scale="  101.630">  2  9  1 -1</clus>
<clus scale="  206.087">  5 10 -1 -1</clus>
<clus scale="  369.823">  1  7  2 -1</clus>
<clus scale="  101.630">  2  5  1 -1</clus>
</clustering>
</event>
<event>
10    2  0.4951045E-006  0.3124597E+03  0.7546771E-02  0.1090902E+00
         21   -1    0    0  501  502  0.00000000000E+00  0.00000000000E+00  0.11970915245E+03  0.11970915245E+03  0.00000000000E+00 0. -1.
          2   -1    0    0  503    0 -0.00000000000E+00 -0.00000000000E+00 -0.98979870190E+03  0.98979870190E+03  0.00000000000E+00 0. -1.
         23    2    1    2    0    0 -0.16732688478E+03 -0.97822384169E+01 -0.10691122627E+03  0.21623137920E+03  0.85041286963E+02 0.  0.
         23    2    1    2    0    0  0.69165720546E+02 -0.23888976878E+02 -0.46618406108E+03  0.48103552353E+03  0.93343537421E+02 0.  0.
        -11    1    3    3    0    0 -0.84818016338E+02 -0.23368080460E+02 -0.10489524662E+02  0.88601316060E+02  0.00000000000E+00 0. -1.
         11    1    3    3    0    0 -0.82508868442E+02  0.13585842043E+02 -0.96421701606E+02  0.12763006314E+03  0.00000000000E+00 0.  1.
        -11    1    4    4    0    0 -0.19522144699E+02 -0.22245494057E+02 -0.13222568207E+03  0.13549762780E+03  0.00000000000E+00 0.  1.
         11    1    4    4    0    0  0.88687865245E+02 -0.16434828211E+01 -0.33395837901E+03  0.34553789573E+03  0.00000000000E+00 0. -1.
         21    1    1    2  503  502 -0.69128531176E+02 -0.44501029272E+02 -0.29796773957E+02  0.87446801926E+02  0.00000000000E+00 0.  1.
          2    1    1    2  501    0  0.16728969541E+03  0.78172244568E+02 -0.26719748815E+03  0.32479414970E+03  0.00000000000E+00 0. -1.
<scales pt_clust_5="13000.00000" pt_clust_6="13000.00000" pt_clust_7="13000.00000" pt_clust_8="13000.00000" pt_clust_9="82.21372" pt_clust_10="13000.00000"></scales>
<clustering>
<clus scale="   82.214">  1  9  2 -1</clus>
<clus scale="   85.041">  5  6 -1 -1</clus>
<clus scale="   93.344">  7  8 -1 -1</clus>
<clus scale="  158.877">  7 10 -1 -1</clus>
<clus scale="  228.491">  2  5  1 -1</clus>
<clus scale="   82.214">  1  5  2 -1</clus>
</clustering>
</event>
<event>
10    2  0.4951045E-006  0.1994140E+03  0.7546771E-02  0.1184010E+00
          2   -1    0    0  503    0 -0.00000000000E+00  0.00000000000E+00  0.39879428996E+03  0.39879428996E+03  0.00000000000E+00 0.  1.
         21   -1    0    0  501  502  0.00000000000E+00 -0.00000000000E+00 -0.21333817036E+03  0.21333817036E+03  0.00000000000E+00 0.  1.
         23    2    1    2    0    0 -0.30636156621E+01 -0.12631950527E+02  0.16243458871E+03  0.18624673879E+03  0.90188137726E+02 0.  0.
         23    2    1    2    0    0 -0.25520915041E+02 -0.15160245628E+02  0.18238134965E+03  0.20617416923E+03  0.91453163999E+02 0.  0.
        -11    1    4    4    0    0 -0.57175578407E+02  0.52974168598E+01  0.12449775216E+03  0.13710142116E+03  0.00000000000E+00 0.  1.
         11    1    4    4    0    0  0.31654663366E+02 -0.20457662488E+02  0.57883597489E+02  0.69072748067E+02  0.00000000000E+00 0. -1.
        -13    1    3    3    0    0  0.32437330151E+02 -0.34088964294E+02  0.10801797740E+03  0.11782241432E+03  0.00000000000E+00 0. -1.
         13    1    3    3    0    0 -0.35500945814E+02  0.21457013767E+02  0.54416611313E+02  0.68424324477E+02  0.00000000000E+00 0.  1.
         21    1    1    2  503  502 -0.20209831558E+02 -0.11554335890E+02 -0.15515163827E+03  0.15688840246E+03  0.00000000000E+00 0.  1.
          2    1    1    2  501    0  0.48794362261E+02  0.39346532046E+02 -0.42081804994E+01  0.62823149838E+02  0.00000000000E+00 0.  1.
<scales pt_clust_5="13000.00000" pt_clust_6="13000.00000" pt_clust_7="13000.00000" pt_clust_8="13000.00000" pt_clust_9="23.27960" pt_clust_10="13000.00000"></scales>
<clustering>
<clus scale="   23.280">  2  9  1 -1</clus>
<clus scale="   90.188">  7  8 -1 -1</clus>
<clus scale="   91.453">  5  6 -1 -1</clus>
<clus scale="   49.289">  5 10 -1 -1</clus>
<clus scale="   91.720">  1  7  2 -1</clus>
<clus scale="   23.280">  2  5  1 -1</clus>
</clustering>
</event>
<event>
10    2  0.4951045E-006  0.2505820E+03  0.7546771E-02  0.1145249E+00
         21   -1    0    0  501  502  0.00000000000E+00  0.00000000000E+00  0.41336433320E+03  0.41336433320E+03  0.00000000000E+00 0.  1.
          3   -1    0    0  503    0 -0.00000000000E+00 -0.00000000000E+00 -0.95606624140E+02  0.95606624140E+02  0.00000000000E+00 0. -1.
         23    2    1    2    0    0 -0.65099273552E+02 -0.37076585898E+02  0.10745269565E+03  0.15956712183E+03  0.91120776603E+02 0.  0.
         23    2    1    2    0    0 -0.52371211979E+02 -0.80911498666E+01  0.53244677130E+01  0.10560717916E+03  0.91193836321E+02 0.  0.
        -13    1    3    3    0    0 -0.26880246523E+02 -0.54853754644E+02  0.23171218493E+02  0.65332896906E+02  0.00000000000E+00 0.  1.
         13    1    3    3    0    0 -0.38219027029E+02  0.17777168746E+02  0.84281477158E+02  0.94234224927E+02  0.00000000000E+00 0. -1.
        -13    1    4    4    0    0 -0.75057793480E+02  0.10833709423E+02  0.58273113324E+01  0.76059182084E+02  0.00000000000E+00 0.  1.
         13    1    4    4    0    0  0.22686581501E+02 -0.18924859290E+02 -0.50284361944E+00  0.29547997074E+02  0.00000000000E+00 0. -1.
         21    1    1    2  503  502  0.13267068600E+02  0.20461724814E+02  0.46817904577E+02  0.52788383955E+02  0.00000000000E+00 0. -1.
          3    1    1    2  501    0  0.10420341693E+03  0.24706010951E+02  0.15816264112E+03  0.19100827239E+03  0.00000000000E+00 0. -1.
<scales pt_clust_5="13000.00000" pt_clust_6="13000.00000" pt_clust_7="13000.00000" pt_clust_8="13000.00000" pt_clust_9="24.38642" pt_clust_10="13000.00000"></scales>
<clustering>
<clus scale="   24.386">  1  9  2 -1</clus>
<clus scale="   91.121">  5  6 -1 -1</clus>
<clus scale="   91.194">  7  8 -1 -1</clus>
<clus scale="  113.156">  2  5  1 -1</clus>
<clus scale="   96.650">  7 10 -1 -1</clus>
<clus scale="   24.386">  1  5  2 -1</clus>
</clustering>
</event>
<event>
10    2  0.4951045E-006  0.5330389E+03  0.7546771E-02  0.1039668E+00
         21   -1    0    0  501  502  0.00000000000E+00  0.00000000000E+00  0.10816676802E+04  0.10816676802E+04  0.00000000000E+00 0. -1.
          2   -1    0    0  503    0 -0.00000000000E+00 -0.00000000000E+00 -0.26996364704E+03  0.26996364704E+03  0.00000000000E+00 0. -1.
         23    2    1    2    0    0  0.13123769353E+03 -0.18195103968E+01  0.77052618035E+02  0.18703784585E+03  0.10871709623E+03 0.  0.
         23    2    1    2    0    0  0.64669917192E+02 -0.85313906900E+02 -0.11475900316E+03  0.18147665612E+03  0.91123471235E+02 0.  0.
        -11    1    4    4    0    0  0.13203824856E+02 -0.46049267324E+02  0.20291774552E+01  0.47947821359E+02  0.00000000000E+00 0.  1.
         11    1    4    4    0    0  0.51466092336E+02 -0.39264639577E+02 -0.11678818061E+03  0.13352883476E+03  0.00000000000E+00 0. -1.
        -13    1    3    3    0    0  0.57148829106E+02 -0.49516132001E+02  0.99212893148E+01  0.76264460780E+02  0.00000000000E+00 0.  1.
         13    1    3    3    0    0  0.74088864426E+02  0.47696621604E+02  0.67131328720E+02  0.11077338507E+03  0.00000000000E+00 0. -1.
         21    1    1    2  503  502  0.91225337797E+02  0.10124496766E+03  0.55555517239E+03  0.57202635892E+03  0.00000000000E+00 0. -1.
          2    1    1    2  501    0 -0.28713294852E+03 -0.14111550362E+02  0.29385524590E+03  0.41109046635E+03  0.00000000000E+00 0. -1.
<scales pt_clust_5="13000.00000" pt_clust_6="13000.00000" pt_clust_7="13000.00000" pt_clust_8="13000.00000" pt_clust_9="136.28135" pt_clust_10="13000.00000"></scales>
<clustering>
<clus scale="   91.123">  5  6 -1 -1</clus>
<clus scale="  108.717">  7  8 -1 -1</clus>
<clus scale="  136.281">  1  9  2 -1</clus>
<clus scale="  190.433">  2  7  1 -1</clus>
<clus scale="  197.364">  5 10 -1 -1</clus>
<clus scale="  136.281">  1  5  2 -1</clus>
</clustering>
</event>
<event>
10    2  0.4951045E-006  0.3698504E+03  0.7546771E-02  0.1072703E+00
         21   -1    0    0  503  502  0.00000000000E+00  0.00000000000E+00  0.40975994116E+03  0.40975994116E+03  0.00000000000E+00 0. -1.
          2   -1    0    0  502    0 -0.00000000000E+00 -0.00000000000E+00 -0.29561758369E+03  0.29561758369E+03  0.00000000000E+00 0. -1.
         23    2    1    2    0    0  0.18672409417E+03  0.85396115635E+02 -0.84413609897E+02  0.24048174328E+03  0.92452297987E+02 0.  0.
         23    2    1    2    0    0 -0.24652237012E+03 -0.77281670074E+02  0.25790633421E+02  0.27513287977E+03  0.91034110401E+02 0.  0.
        -11    1    4    4    0    0 -0.52349244541E+02 -0.20031119730E+02  0.44870246526E+02  0.71798524950E+02  0.00000000000E+00 0.  1.
         11    1    4    4    0    0 -0.19417312558E+03 -0.57250550344E+02 -0.19079613105E+02  0.20333435482E+03  0.00000000000E+00 0. -1.
        -13    1    3    3    0    0  0.76054844969E+01  0.38877483258E+02 -0.88654412369E+01  0.40594311759E+02  0.00000000000E+00 0.  1.
         13    1    3    3    0    0  0.17911860968E+03  0.46518632377E+02 -0.75548168660E+02  0.19988743152E+03  0.00000000000E+00 0. -1.
         21    1    1    2  503  501  0.54531406523E+01 -0.19271348569E+02  0.72009999959E+02  0.74743305471E+02  0.00000000000E+00 0.  1.
          2    1    1    2  501    0  0.54345135296E+02  0.11156903008E+02  0.10075533398E+03  0.11501959634E+03  0.00000000000E+00 0. -1.
<scales pt_clust_5="13000.00000" pt_clust_6="13000.00000" pt_clust_7="13000.00000" pt_clust_8="13000.00000" pt_clust_9="20.02802" pt_clust_10="13000.00000"></scales>
<clustering>
<clus scale="   20.028">  1  9  2 -1</clus>
<clus scale="   91.034">  5  6 -1 -1</clus>
<clus scale="   56.314">  5 10 -1 -1</clus>
<clus scale="   92.452">  7  8 -1 -1</clus>
<clus scale="  224.580">  2  7  1 -1</clus>
<clus scale="   20.028">  1  5  2 -1</clus>
</clustering>
</event>
<event>
10    2  0.4951045E-006  0.1602869E+03  0.7546771E-02  0.1205612E+00
         -3   -1    0    0    0  501 -0.00000000000E+00  0.00000000000E+00  0.40006460597E+03  0.40006460597E+03  0.00000000000E+00 0.  1.
         21   -1    0    0  501  502  0.00000000000E+00 -0.00000000000E+00 -0.89330256640E+02  0.89330256640E+02  0.00000000000E+00 0. -1.
         23    2    1    2    0    0  0.52833406454E+02  0.36424523949E+02  0.10551103099E+03  0.15346431310E+03  0.91107644868E+02 0.  0.
         23    2    1    2    0    0 -0.84981081104E+02 -0.28582703286E+02  0.18937657678E+03  0.22994591492E+03  0.94725291674E+02 0.  0.
        -11    1    4    4    0    0 -0.66725390545E+02  0.11004524200E+02  0.16859407875E+03  0.18165170158E+03  0.00000000000E+00 0.  1.
         11    1    4    4    0    0 -0.18255690558E+02 -0.39587227486E+02  0.20782498024E+02  0.48294213337E+02  0.00000000000E+00 0. -1.
        -13    1    3    3    0    0  0.64780823669E+02 -0.31297777332E+01  0.86149758089E+02  0.10783381400E+03  0.00000000000E+00 0.  1.
         13    1    3    3    0    0 -0.11947417214E+02  0.39554301683E+02  0.19361272898E+02  0.45630499098E+02  0.00000000000E+00 0. -1.
         21    1    1    2  503  502  0.76851702776E+01 -0.24278256046E+02 -0.37329039737E+02  0.45187971480E+02  0.00000000000E+00 0. -1.
         -3    1    1    2    0  503  0.24462504372E+02  0.16436435382E+02  0.53175781300E+02  0.60796663108E+02  0.00000000000E+00 0.  1.
<scales pt_clust_5="13000.00000" pt_clust_6="13000.00000" pt_clust_7="13000.00000" pt_clust_8="13000.00000" pt_clust_9="25.46558" pt_clust_10="13000.00000"></scales>
<clustering>
<clus scale="   25.466">  2  9  1 -1</clus>
<clus scale="   91.108">  7  8 -1 -1</clus>
<clus scale="   94.725">  5  6 -1 -1</clus>
<clus scale="   28.969">  5 10 -1 -1</clus>
<clus scale="  110.013">  1  7  2 -1</clus>
<clus scale="   25.466">  2  5  1 -1</clus>
</clustering>
</event>
<event>
10    2  0.4951045E-006  0.4484704E+03  0.7546771E-02  0.1083474E+00
         -1   -1    0    0    0  501 -0.00000000000E+00  0.00000000000E+00  0.11656984154E+04  0.11656984154E+04  0.00000000000E+00 0.  1.
         21   -1    0    0  503  502  0.00000000000E+00 -0.00000000000E+00 -0.37891066544E+03  0.37891066544E+03  0.00000000000E+00 0. -1.
         23    2    1    2    0    0 -0.19206822270E+02  0.22071513068E+02  0.15123297108E+03  0.17814115242E+03  0.89480751754E+02 0.  0.
         23    2    1    2    0    0  0.14387486334E+03  0.26212366562E+03  0.72060626088E+03  0.78537049599E+03  0.90136787007E+02 0.  0.
        -11    1    3    3    0    0  0.29961558091E+02 -0.13900070357E+02  0.58687472471E+02  0.67343346696E+02  0.00000000000E+00 0. -1.
         11    1    3    3    0    0 -0.49168380360E+02  0.35971583425E+02  0.92545498606E+02  0.11079780573E+03  0.00000000000E+00 0.  1.
        -13    1    4    4    0    0  0.14073055001E+03  0.20104331881E+03  0.62945639929E+03  0.67560259203E+03  0.00000000000E+00 0.  1.
         13    1    4    4    0    0  0.31443133282E+01  0.61080346808E+02  0.91149861586E+02  0.10976790396E+03  0.00000000000E+00 0. -1.
         21    1    1    2  503  501 -0.16534045399E+03 -0.37774877185E+03 -0.17226525519E+03  0.44688580029E+03  0.00000000000E+00 0. -1.
         -1    1    1    2    0  502  0.40672412917E+02  0.93553593158E+02  0.87213773173E+02  0.13421163212E+03  0.00000000000E+00 0.  1.
<scales pt_clust_5="13000.00000" pt_clust_6="13000.00000" pt_clust_7="13000.00000" pt_clust_8="13000.00000" pt_clust_9="410.64778" pt_clust_10="13000.00000"></scales>
<clustering>
<clus scale="   89.481">  5  6 -1 -1</clus>
<clus scale="   90.137">  7  8 -1 -1</clus>
<clus scale="   94.143">  1  5  2 -1</clus>
<clus scale="  103.445">  7 10 -1 -1</clus>
<clus scale="  410.648">  2  9  1 -1</clus>
<clus scale="  410.648">  2  5  1 -1</clus>
</clustering>
</event>
<event>
10    2  0.4951045E-006  0.2761063E+03  0.7546771E-02  0.1112270E+00
          1   -1    0    0  503    0 -0.00000000000E+00  0.00000000000E+00  0.10101904829E+04  0.10101904829E+04  0.00000000000E+00 0. -1.
         21   -1    0    0  501  502  0.00000000000E+00 -0.00000000000E+00 -0.71538470725E+02  0.71538470725E+02  0.00000000000E+00 0. -1.
         23    2    1    2    0    0 -0.37734979206E+02 -0.15802139671E+03  0.55539830751E+03  0.58601726256E+03  0.92489251057E+02 0.  0.
         23    2    1    2    0    0  0.41976530228E+02  0.48642267209E+02  0.30331806530E+03  0.32099796937E+03  0.83124896097E+02 0.  0.
        -11    1    4    4    0    0 -0.24045276813E+02  0.10816414657E+02  0.11295109094E+03  0.11598758170E+03  0.00000000000E+00 0.  1.
         11    1    4    4    0    0  0.66021807041E+02  0.37825852552E+02  0.19036697436E+03  0.20501038767E+03  0.00000000000E+00 0. -1.
        -13    1    3    3    0    0  0.10912148041E+02 -0.12601559422E+03  0.41986641516E+03  0.43850520127E+03  0.00000000000E+00 0. -1.
         13    1    3    3    0    0 -0.48647127246E+02 -0.32005802487E+02  0.13553189234E+03  0.14751206129E+03  0.00000000000E+00 0.  1.
         21    1    1    2  503  502  0.13321281310E+02 -0.20323248334E+02  0.96134865372E+01  0.26132548326E+02  0.00000000000E+00 0. -1.
          1    1    1    2  501    0 -0.17562832332E+02  0.12970237783E+03  0.70322152783E+02  0.14858117333E+03  0.00000000000E+00 0. -1.
<scales pt_clust_5="13000.00000" pt_clust_6="13000.00000" pt_clust_7="13000.00000" pt_clust_8="13000.00000" pt_clust_9="24.30002" pt_clust_10="13000.00000"></scales>
<clustering>
<clus scale="   24.300">  2  9  1 -1</clus>
<clus scale="   83.125">  5  6 -1 -1</clus>
<clus scale="   92.489">  7  8 -1 -1</clus>
<clus scale="  117.506">  5 10 -1 -1</clus>
<clus scale="  190.510">  1  7  2 -1</clus>
<clus scale="   24.300">  2  5  1 -1</clus>
</clustering>
</event>
<event>
10    2  0.4951045E-006  0.1606854E+03  0.7546771E-02  0.1206087E+00
         -3   -1    0    0    0  501 -0.00000000000E+00  0.00000000000E+00  0.22722951293E+03  0.22722951293E+03  0.00000000000E+00 0.  1.
         21   -1    0    0  503  502  0.00000000000E+00 -0.00000000000E+00 -0.27066043511E+03  0.27066043511E+03  0.00000000000E+00 0.  1.
         23    2    1    2    0    0  0.30142918792E+02  0.46053983670E+02  0.17121452485E+03  0.20236538887E+03  0.92778080004E+02 0.  0.
         23    2    1    2    0    0 -0.25328279055E+02 -0.24112161441E+02 -0.22699776601E+02  0.96949655780E+02  0.87527354861E+02 0.  0.
        -11    1    4    4    0    0  0.14320298006E+02  0.19202693138E+02 -0.29314483489E+02  0.37857011252E+02  0.00000000000E+00 0.  1.
         11    1    4    4    0    0 -0.39648577060E+02 -0.43314854579E+02  0.66147068879E+01  0.59092644528E+02  0.00000000000E+00 0. -1.
        -13    1    3    3    0    0  0.15573843511E+01  0.50246787591E+02  0.30683352757E+02  0.58895103749E+02  0.00000000000E+00 0. -1.
         13    1    3    3    0    0  0.28585534441E+02 -0.41928039209E+01  0.14053117209E+03  0.14347028512E+03  0.00000000000E+00 0.  1.
         21    1    1    2  503  501  0.20478282041E+02 -0.78934978160E+01 -0.82072798479E+02  0.84956527667E+02  0.00000000000E+00 0.  1.
         -3    1    1    2    0  502 -0.25292921779E+02 -0.14048324413E+02 -0.10987287195E+03  0.11361837572E+03  0.00000000000E+00 0.  1.
<scales pt_clust_5="13000.00000" pt_clust_6="13000.00000" pt_clust_7="13000.00000" pt_clust_8="13000.00000" pt_clust_9="21.94692" pt_clust_10="13000.00000"></scales>
<clustering>
<clus scale="   21.947">  2  9  1 -1</clus>
<clus scale="   87.527">  5  6 -1 -1</clus>
<clus scale="   22.863">  5 10 -1 -1</clus>
<clus scale="   92.778">  7  8 -1 -1</clus>
<clus scale="  108.088">  1  7  2 -1</clus>
<clus scale="   21.947">  2  5  1 -1</clus>
</clustering>
</event>
<event>
10    2  0.4951045E-006  0.3058685E+03  0.7546771E-02  0.1120865E+00
         21   -1    0    0  501  502  0.00000000000E+00  0.00000000000E+00  0.93662364474E+02  0.93662364474E+02  0.00000000000E+00 0. -1.
          1   -1    0    0  503    0 -0.00000000000E+00 -0.00000000000E+00 -0.11635088789E+04  0.11635088789E+04  0.00000000000E+00 0. -1.
         23    2    1    2    0    0 -0.65876040885E+02 -0.53663620342E+01 -0.27297076891E+03  0.29538821693E+03  0.91502499498E+02 0.  0.
         23    2    1    2    0    0 -0.10396841469E+02  0.72661692670E+02 -0.28385164502E+03  0.31373996002E+03  0.11168343763E+03 0.  0.
        -13    1    4    4    0    0  0.37948136430E+02  0.17061906341E+02 -0.18957762078E+03  0.19408978336E+03  0.00000000000E+00 0.  1.
         13    1    4    4    0    0 -0.48344977899E+02  0.55599786329E+02 -0.94274024240E+02  0.11965017666E+03  0.00000000000E+00 0. -1.
        -13    1    3    3    0    0 -0.18271492707E+02 -0.45747509957E+02 -0.99486399113E+02  0.11101452933E+03  0.00000000000E+00 0. -1.
         13    1    3    3    0    0 -0.47604548179E+02  0.40381147923E+02 -0.17348436980E+03  0.18437368760E+03  0.00000000000E+00 0.  1.
         21    1    1    2  503  502  0.14710482983E+03 -0.95028929662E+02 -0.53972352152E+03  0.56742559699E+03  0.00000000000E+00 0. -1.
          1    1    1    2  501    0 -0.70831947477E+02  0.27733599026E+02  0.26699421014E+02  0.80617469451E+02  0.00000000000E+00 0. -1.
<scales pt_clust_5="13000.00000" pt_clust_6="13000.00000" pt_clust_7="13000.00000" pt_clust_8="13000.00000" pt_clust_9="144.36886" pt_clust_10="13000.00000"></scales>
<clustering>
<clus scale="   91.502">  7  8 -1 -1</clus>
<clus scale="  111.683">  5  6 -1 -1</clus>
<clus scale="   76.068">  5 10 -1 -1</clus>
<clus scale="  112.877">  2  7  1 -1</clus>
<clus scale="  144.369">  1  9  2 -1</clus>
<clus scale="  144.369">  1  5  2 -1</clus>
</clustering>
</event>
<event>
10    2  0.4951045E-006  0.1872895E+03  0.7546771E-02  0.1189049E+00
          2   -1    0    0  503    0 -0.00000000000E+00  0.00000000000E+00  0.46853026779E+03  0.46853026779E+03  0.00000000000E+00 0. -1.
         21   -1    0    0  501  502  0.00000000000E+00 -0.00000000000E+00 -0.62887672398E+02  0.62887672398E+02  0.00000000000E+00 0. -1.
         23    2    1    2    0    0  0.25636396759E+02 -0.34232952039E+02  0.21751919961E+03  0.24000899452E+03  0.91981494902E+02 0.  0.
         23    2    1    2    0    0 -0.25385164458E+02  0.58232617120E+02  0.17230881727E+03  0.20490712214E+03  0.90890901212E+02 0.  0.
        -11    1    4    4    0    0 -0.38975083183E+02  0.34032123663E+01  0.23266145166E+02  0.45518704666E+02  0.00000000000E+00 0.  1.
         11    1    4    4    0    0  0.13589918725E+02  0.54829404754E+02  0.14904267211E+03  0.15938841748E+03  0.00000000000E+00 0. -1.
        -13    1    3    3    0    0 -0.75754294246E+01 -0.52695817298E+02  0.17531035763E+03  0.18321560464E+03  0.00000000000E+00 0.  1.
         13    1    3    3    0    0  0.33211826184E+02  0.18462865259E+02  0.42208841985E+02  0.56793389877E+02  0.00000000000E+00 0. -1.
         21    1    1    2  503  502 -0.65815423695E+01  0.29964982590E+02  0.46057290461E+01  0.31023049844E+02  0.00000000000E+00 0. -1.
          2    1    1    2  501    0  0.63303100684E+01 -0.53964647671E+02  0.11208849464E+02  0.55478773690E+02  0.00000000000E+00 0. -1.
<scales pt_clust_5="13000.00000" pt_clust_6="13000.00000" pt_clust_7="13000.00000" pt_clust_8="13000.00000" pt_clust_9="30.67926" pt_clust_10="13000.00000"></scales>
<clustering>
<clus scale="   30.679">  2  9  1 -1</clus>
<clus scale="   90.891">  5  6 -1 -1</clus>
<clus scale="   40.755">  5 10 -1 -1</clus>
<clus scale="   91.981">  7  8 -1 -1</clus>
<clus scale="   98.981">  1  7  2 -1</clus>
<clus scale="   30.679">  2  5  1 -1</clus>
</clustering>
</event>
<event>
10    2  0.4951045E-006  0.4227279E+03  0.7546771E-02  0.1081471E+00
          1   -1    0    0  503    0 -0.00000000000E+00  0.00000000000E+00  0.43145200881E+03  0.43145200881E+03  0.00000000000E+00 0. -1.
         21   -1    0    0  501  502  0.00000000000E+00 -0.00000000000E+00 -0.48149753506E+03  0.48149753506E+03  0.00000000000E+00 0. -1.
         23    2    1    2    0    0  0.70296886673E+02  0.15128295354E+02  0.27060243625E+03  0.29548698570E+03  0.94426493197E+02 0.  0.
         23    2    1    2    0    0 -0.62079401890E+02  0.16273662542E+03 -0.33091799699E+02  0.19943937781E+03  0.91345152147E+02 0.  0.
        -11    1    3    3    0    0  0.90991609378E+02  0.15500477558E+02  0.24905446558E+03  0.26560847992E+03  0.00000000000E+00 0.  1.
         11    1    3    3    0    0 -0.20694722705E+02 -0.37218220304E+00  0.21547970668E+02  0.29878505775E+02  0.00000000000E+00 0. -1.
        -11    1    4    4    0    0 -0.86245109930E+02  0.12845026993E+03 -0.26853792504E+02  0.15703126123E+03  0.00000000000E+00 0. -1.
         11    1    4    4    0    0  0.24165708039E+02  0.34286355485E+02 -0.62380071951E+01  0.42408116573E+02  0.00000000000E+00 0.  1.
         21    1    1    2  503  502 -0.12793847668E+02  0.41479416543E+02 -0.15663159590E+03  0.16253516963E+03  0.00000000000E+00 0. -1.
          1    1    1    2  501    0  0.45763628853E+01 -0.21934433732E+03 -0.13092456689E+03  0.25548801073E+03  0.00000000000E+00 0. -1.
<scales pt_clust_5="13000.00000" pt_clust_6="13000.00000" pt_clust_7="13000.00000" pt_clust_8="13000.00000" pt_clust_9="43.40766" pt_clust_10="13000.00000"></scales>
<clustering>
<clus scale="   43.408">  2  9  1 -1</clus>
<clus scale="   91.345">  7  8 -1 -1</clus>
<clus scale="   94.426">  5  6 -1 -1</clus>
<clus scale="  118.611">  1  5  2 -1</clus>
<clus scale="  189.825">  7 10 -1 -1</clus>
<clus scale="   43.408">  2  5  1 -1</clus>
</clustering>
</event>
<event>
10    2  0.4951045E-006  0.6796359E+03  0.7546771E-02  0.1037247E+00
         -2   -1    0    0    0  501 -0.00000000000E+00  0.00000000000E+00  0.51319436255E+03  0.51319436255E+03  0.00000000000E+00 0.  1.
         21   -1    0    0  503  502  0.00000000000E+00 -0.00000000000E+00 -0.44858703865E+03  0.44858703865E+03  0.00000000000E+00 0.  1.
         23    2    1    2    0    0  0.13970644186E+02  0.40717067825E+02 -0.50337307236E+02  0.11271985754E+03  0.91207802694E+02 0.  0.
         23    2    1    2    0    0  0.23006434257E+03 -0.18574504621E+03  0.27061232488E+03  0.41077639553E+03  0.89863189538E+02 0.  0.
        -11    1    4    4    0    0  0.50838435165E+02 -0.85578186167E+02  0.57975143362E+02  0.11519240290E+03  0.00000000000E+00 0. -1.
         11    1    4    4    0    0  0.17922590741E+03 -0.10016686004E+03  0.21263718151E+03  0.29558399263E+03  0.00000000000E+00 0.  1.
        -13    1    3    3    0    0  0.37523182116E+02  0.37441642487E+02 -0.65693938561E+02  0.84413028331E+02  0.00000000000E+00 0. -1.
         13    1    3    3    0    0 -0.23552537931E+02  0.32754253381E+01  0.15356631325E+02  0.28306829207E+02  0.00000000000E+00 0.  1.
         21    1    1    2  503  501  0.10623680804E+02 -0.28309977655E+02 -0.12511842562E+03  0.12872038634E+03  0.00000000000E+00 0.  1.
         -2    1    1    2    0  502 -0.25465866756E+03  0.17333795604E+03 -0.30549268116E+02  0.30956476180E+03  0.00000000000E+00 0.  1.
<scales pt_clust_5="13000.00000" pt_clust_6="13000.00000" pt_clust_7="13000.00000" pt_clust_8="13000.00000" pt_clust_9="30.23768" pt_clust_10="13000.00000"></scales>
<clustering>
<clus scale="   30.238">  2  9  1 -1</clus>
<clus scale="   89.863">  5  6 -1 -1</clus>
<clus scale="   91.208">  7  8 -1 -1</clus>
<clus scale="   98.598">  1  7  2 -1</clus>
<clus scale="  296.357">  5 10 -1 -1</clus>
<clus scale="   30.238">  2  5  1 -1</clus>
</clustering>
</event>
<event>
10    2  0.4951045E-006  0.3115972E+03  0.7546771E-02  0.1086824E+00
          1   -1    0    0  502    0 -0.00000000000E+00  0.00000000000E+00  0.39414674379E+03  0.39414674379E+03  0.00000000000E+00 0. -1.
         21   -1    0    0  503  502  0.00000000000E+00 -0.00000000000E+00 -0.41685318836E+03  0.41685318836E+03  0.00000000000E+00 0. -1.
         23    2    1    2    0    0 -0.29285268017E+03  0.78399110277E+02  0.11957808662E+03  0.33848650718E+03  0.91460833006E+02 0.  0.
         23    2    1    2    0    0  0.25982420179E+02 -0.34045255481E+02 -0.26088239952E+02  0.10457961898E+03  0.91772190037E+02 0.  0.
        -11    1    4    4    0    0  0.51900227447E+02 -0.23720547862E+02  0.11055899385E+02  0.58125131493E+02  0.00000000000E+00 0.  1.
         11    1    4    4    0    0 -0.25917807268E+02 -0.10324707619E+02 -0.37144139338E+02  0.46454487492E+02  0.00000000000E+00 0. -1.
        -13    1    3    3    0    0 -0.11843005160E+03  0.25982505515E+02  0.96380028404E+02  0.15488666047E+03  0.00000000000E+00 0.  1.
         13    1    3    3    0    0 -0.17442262857E+03  0.52416604762E+02  0.23198058215E+02  0.18359984672E+03  0.00000000000E+00 0. -1.
         21    1    1    2  503  501  0.12918100919E+03 -0.12447574154E+03 -0.10585104201E+03  0.20829399046E+03  0.00000000000E+00 0. -1.
          1    1    1    2  501    0  0.13768925080E+03  0.80121886740E+02 -0.10345249230E+02  0.15963981553E+03  0.00000000000E+00 0. -1.
<scales pt_clust_5="13000.00000" pt_clust_6="13000.00000" pt_clust_7="13000.00000" pt_clust_8="13000.00000" pt_clust_9="179.39326" pt_clust_10="13000.00000"></scales>
<clustering>
<clus scale="   91.461">  7  8 -1 -1</clus>
<clus scale="   91.772">  5  6 -1 -1</clus>
<clus scale="  159.304">  5 10 -1 -1</clus>
<clus scale="  179.393">  2  9  1 -1</clus>
<clus scale="  256.680">  1  7  2 -1</clus>
<clus scale="  179.393">  2  5  1 -1</clus>
</clustering>
</event>
<event>
10    2  0.4951045E-006  0.2691581E+03  0.7546771E-02  0.1138480E+00
         21   -1    0    0  501  502  0.00000000000E+00  0.00000000000E+00  0.88194000807E+02  0.88194000807E+02  0.00000000000E+00 0. -1.
          2   -1    0    0  503    0 -0.00000000000E+00 -0.00000000000E+00 -0.45529636543E+03  0.45529636543E+03  0.00000000000E+00 0. -1.
         23    2    1    2    0    0  0.40782417852E+02  0.31487101414E+02 -0.10376954756E+03  0.14821800976E+03  0.92443584177E+02 0.  0.
         23    2    1    2    0    0 -0.82763413268E+02  0.58364890211E+02 -0.23856360182E+03  0.27447920859E+03  0.90388056993E+02 0.  0.
        -11    1    4    4    0    0  0.84028263974E+01  0.24061883852E+02 -0.11149916706E+03  0.11437502351E+03  0.00000000000E+00 0.  1.
         11    1    4    4    0    0 -0.91166239666E+02  0.34303006359E+02 -0.12706443476E+03  0.16010418508E+03  0.00000000000E+00 0. -1.
        -13    1    3    3    0    0  0.46608056149E+02  0.51754477840E+02 -0.10618874521E+03  0.12699167880E+03  0.00000000000E+00 0. -1.
         13    1    3    3    0    0 -0.58256382970E+01 -0.20267376426E+02  0.24191976546E+01  0.21226330960E+02  0.00000000000E+00 0.  1.
         21    1    1    2  503  502  0.20736439432E+02 -0.82178264491E+01 -0.28699703802E+02  0.36348391851E+02  0.00000000000E+00 0. -1.
          2    1    1    2  501    0  0.21244555984E+02 -0.81634165176E+02  0.39304885541E+01  0.84444756043E+02  0.00000000000E+00 0. -1.
<scales pt_clust_5="13000.00000" pt_clust_6="13000.00000" pt_clust_7="13000.00000" pt_clust_8="13000.00000" pt_clust_9="22.30545" pt_clust_10="13000.00000"></scales>
<clustering>
<clus scale="   22.305">  1  9  2 -1</clus>
<clus scale="   90.388">  5  6 -1 -1</clus>
<clus scale="   91.739">  5 10 -1 -1</clus>
<clus scale="   92.444">  7  8 -1 -1</clus>
<clus scale="  107.444">  2  7  1 -1</clus>
<clus scale="   22.305">  1  5  2 -1</clus>
</clustering>
</event>
<event>
10    2  0.4951045E-006  0.2160478E+03  0.7546771E-02  0.1166587E+00
         21   -1    0    0  501  502  0.00000000000E+00  0.00000000000E+00  0.77773963417E+02  0.77773963417E+02  0.00000000000E+00 0. -1.
          1   -1    0    0  503    0 -0.00000000000E+00 -0.00000000000E+00 -0.84938504192E+03  0.84938504192E+03  0.00000000000E+00 0. -1.
         23    2    1    2    0    0  0.38347213723E+02 -0.32383468805E+02 -0.20788144408E+03  0.23382508090E+03  0.94553031755E+02 0.  0.
         23    2    1    2    0    0 -0.68657823911E+02  0.14952761736E+03 -0.26508212280E+03  0.32492719596E+03  0.90756518827E+02 0.  0.
        -11    1    3    3    0    0 -0.16110498364E+02 -0.46983056616E+02 -0.81574907544E+02  0.95506132303E+02  0.00000000000E+00 0.  1.
         11    1    3    3    0    0  0.54457712088E+02  0.14599587811E+02 -0.12630653653E+03  0.13831894860E+03  0.00000000000E+00 0. -1.
        -11    1    4    4    0    0 -0.29026694871E+02 -0.55576796013E+00 -0.68858805945E+02  0.74728796654E+02  0.00000000000E+00 0.  1.
         11    1    4    4    0    0 -0.39631129040E+02  0.15008338532E+03 -0.19622331686E+03  0.25019839931E+03  0.00000000000E+00 0. -1.
         21    1    1    2  503  502  0.37080415216E+02 -0.16125734222E+03 -0.26539463770E+03  0.31275102132E+03  0.00000000000E+00 0. -1.
          1    1    1    2  501    0 -0.67698050281E+01  0.44113193662E+02 -0.33252873924E+02  0.55655707159E+02  0.00000000000E+00 0. -1.
<scales pt_clust_5="13000.00000" pt_clust_6="13000.00000" pt_clust_7="13000.00000" pt_clust_8="13000.00000" pt_clust_9="184.45364" pt_clust_10="13000.00000"></scales>
<clustering>
<clus scale="   90.757">  7  8 -1 -1</clus>
<clus scale="   44.630">  7 10 -1 -1</clus>
<clus scale="   94.553">  5  6 -1 -1</clus>
<clus scale="  107.049">  2  5  1 -1</clus>
<clus scale="  184.454">  1  9  2 -1</clus>
<clus scale="  184.454">  1  5  2 -1</clus>
</clustering>
</event>
<event>
10    2  0.4951045E-006  0.3651841E+03  0.7546771E-02  0.1096625E+00
          1   -1    0    0  502    0 -0.00000000000E+00  0.00000000000E+00  0.44152129580E+03  0.44152129580E+03  0.00000000000E+00 0. -1.
         21   -1    0    0  503  502  0.00000000000E+00 -0.00000000000E+00 -0.21910797465E+03  0.21910797465E+03  0.00000000000E+00 0. -1.
         23    2    1    2    0    0 -0.79629903497E+02 -0.15562914221E+01  0.46966789696E+02  0.12812780319E+03  0.88698991211E+02 0.  0.
         23    2    1    2    0    0  0.10609549140E+03  0.87251986200E+02  0.31200812907E+03  0.35314638590E+03  0.92163630998E+02 0.  0.
        -11    1    3    3    0    0 -0.51331088417E+02 -0.30417951305E+02  0.61010541532E+02  0.85337087937E+02  0.00000000000E+00 0.  1.
         11    1    3    3    0    0 -0.28298815081E+02  0.28861659883E+02 -0.14043751835E+02  0.42790715252E+02  0.00000000000E+00 0. -1.
        -13    1    4    4    0    0  0.61035459234E+02  0.99865969466E+02  0.19953929636E+03  0.23133194750E+03  0.00000000000E+00 0. -1.
         13    1    4    4    0    0  0.45060032167E+02 -0.12613983266E+02  0.11246883271E+03  0.12181443841E+03  0.00000000000E+00 0.  1.
         21    1    1    2  503  501 -0.19329239742E+02 -0.80240834270E+01 -0.80819836086E+02  0.83485635464E+02  0.00000000000E+00 0. -1.
          1    1    1    2  501    0 -0.71363481609E+01 -0.77671611351E+02 -0.55741761534E+02  0.95869445883E+02  0.00000000000E+00 0. -1.
<scales pt_clust_5="13000.00000" pt_clust_6="13000.00000" pt_clust_7="13000.00000" pt_clust_8="13000.00000" pt_clust_9="20.92858" pt_clust_10="13000.00000"></scales>
<clustering>
<clus scale="   20.929">  2  9  1 -1</clus>
<clus scale="   88.699">  5  6 -1 -1</clus>
<clus scale="   92.164">  7  8 -1 -1</clus>
<clus scale="   84.028">  7 10 -1 -1</clus>
<clus scale="  123.162">  1  5  2 -1</clus>
<clus scale="   20.929">  2  5  1 -1</clus>
</clustering>
</event>
<event>
10    2  0.4951045E-006  0.5306350E+03  0.7546771E-02  0.1057000E+00
          1   -1    0    0  502    0 -0.00000000000E+00  0.00000000000E+00  0.16918747263E+04  0.16918747263E+04  0.00000000000E+00 0. -1.
         21   -1    0    0  503  502  0.00000000000E+00 -0.00000000000E+00 -0.15337159071E+03  0.15337159071E+03  0.00000000000E+00 0. -1.
         23    2    1    2    0    0 -0.33322922667E+02 -0.73889236325E+02  0.35625191783E+03  0.37617963809E+03  0.89586018654E+02 0.  0.
         23    2    1    2    0    0  0.19375493419E+03 -0.12001669944E+03  0.60042817281E+03  0.64896665292E+03  0.93267053335E+02 0.  0.
        -13    1    3    3    0    0 -0.27878819579E+01  0.20956819153E+02  0.65656991375E+02  0.68976815462E+02  0.00000000000E+00 0.  1.
         13    1    3    3    0    0 -0.30535040709E+02 -0.94846055479E+02  0.29059492645E+03  0.30720282263E+03  0.00000000000E+00 0. -1.
        -13    1    4    4    0    0  0.14959589319E+02  0.15644624395E+02  0.60149656750E+02  0.63925932079E+02  0.00000000000E+00 0.  1.
         13    1    4    4    0    0  0.17879534487E+03 -0.13566132384E+03  0.54027851606E+03  0.58504072084E+03  0.00000000000E+00 0. -1.
         21    1    1    2  503  501  0.56100568248E+02  0.11756236213E+02 -0.81101939111E+02  0.99312674797E+02  0.00000000000E+00 0. -1.
          1    1    1    2  501    0 -0.21653257977E+03  0.18214969955E+03  0.66292498407E+03  0.72078735120E+03  0.00000000000E+00 0. -1.
<scales pt_clust_5="13000.00000" pt_clust_6="13000.00000" pt_clust_7="13000.00000" pt_clust_8="13000.00000" pt_clust_9="57.31913" pt_clust_10="13000.00000"></scales>
<clustering>
<clus scale="   57.319">  2  9  1 -1</clus>
<clus scale="   89.586">  5  6 -1 -1</clus>
<clus scale="   93.267">  7  8 -1 -1</clus>
<clus scale="  117.531">  1  5  2 -1</clus>
<clus scale="  254.132">  7 10 -1 -1</clus>
<clus scale="   57.319">  2  5  1 -1</clus>
</clustering>
</event>
<event>
10    2  0.4951045E-006  0.7550695E+03  0.7546771E-02  0.9837417E-01
         21   -1    0    0  501  502  0.00000000000E+00  0.00000000000E+00  0.37906875867E+03  0.37906875867E+03  0.00000000000E+00 0. -1.
          2   -1    0    0  503    0 -0.00000000000E+00 -0.00000000000E+00 -0.17842274414E+04  0.17842274414E+04  0.00000000000E+00 0. -1.
         23    2    1    2    0    0  0.27015492678E+03  0.27016660771E+03 -0.32329838110E+02  0.39376544929E+03  0.89623268408E+02 0.  0.
         23    2    1    2    0    0  0.18659906746E+03 -0.21192422128E+03 -0.72540810354E+03  0.78339451350E+03  0.88084956458E+02 0.  0.
        -13    1    4    4    0    0  0.56959083845E+02 -0.18805231597E+02 -0.10662252318E+03  0.12233697894E+03  0.00000000000E+00 0. -1.
         13    1    4    4    0    0  0.12963998362E+03 -0.19311898969E+03 -0.61878558037E+03  0.66105753456E+03  0.00000000000E+00 0.  1.
        -13    1    3    3    0    0  0.18145541132E+03  0.23242180972E+03 -0.11190155550E+02  0.29507826676E+03  0.00000000000E+00 0. -1.
         13    1    3    3    0    0  0.88699515463E+02  0.37744797989E+02 -0.21139682560E+02  0.98687182538E+02  0.00000000000E+00 0.  1.
         21    1    1    2  503  502 -0.12728603063E+02 -0.25025661997E+02  0.10672271773E+03  0.11035415522E+03  0.00000000000E+00 0. -1.
          2    1    1    2  501    0 -0.44402539118E+03 -0.33216724430E+02 -0.75414345883E+03  0.87578208208E+03  0.00000000000E+00 0. -1.
<scales pt_clust_5="13000.00000" pt_clust_6="13000.00000" pt_clust_7="13000.00000" pt_clust_8="13000.00000" pt_clust_9="28.07670" pt_clust_10="13000.00000"></scales>
<clustering>
<clus scale="   28.077">  1  9  2 -1</clus>
<clus scale="   88.085">  5  6 -1 -1</clus>
<clus scale="   89.623">  7  8 -1 -1</clus>
<clus scale="  375.141">  2  7  1 -1</clus>
<clus scale="  324.224">  5 10 -1 -1</clus>
<clus scale="   28.077">  1  5  2 -1</clus>
</clustering>
</event>
<event>
10    2  0.4951045E-006  0.1583720E+03  0.7546771E-02  0.1204386E+00
         21   -1    0    0  501  502  0.00000000000E+00  0.00000000000E+00  0.24797979737E+03  0.24797979737E+03  0.00000000000E+00 0. -1.
          1   -1    0    0  503    0 -0.00000000000E+00 -0.00000000000E+00 -0.97644339383E+02  0.97644339383E+02  0.00000000000E+00 0. -1.
         23    2    1    2    0    0 -0.61571204340E+02  0.83903443854E+01  0.53448558472E+02  0.12316116017E+03  0.91926665825E+02 0.  0.
         23    2    1    2    0    0  0.25635657678E+02  0.12780526787E+02  0.81862895318E+02  0.12430588279E+03  0.89049930133E+02 0.  0.
        -11    1    3    3    0    0 -0.24390231083E+01 -0.21119288984E+02  0.52965415844E+02  0.57072834838E+02  0.00000000000E+00 0.  1.
         11    1    3    3    0    0 -0.59132181232E+02  0.29509633370E+02  0.48314262817E+00  0.66088325336E+02  0.00000000000E+00 0. -1.
        -13    1    4    4    0    0  0.40400043717E+02 -0.20798383316E+02  0.73927882631E+02  0.86775965054E+02  0.00000000000E+00 0.  1.
         13    1    4    4    0    0 -0.14764386040E+02  0.33578910103E+02  0.79350126873E+01  0.37529917735E+02  0.00000000000E+00 0. -1.
         21    1    1    2  503  502 -0.27622494501E+02  0.28017361234E+01 -0.28669029576E+01  0.27911844445E+02  0.00000000000E+00 0. -1.
          1    1    1    2  501    0  0.63558041164E+02 -0.23972607296E+02  0.17890907159E+02  0.70245249349E+02  0.00000000000E+00 0. -1.
<scales pt_clust_5="13000.00000" pt_clust_6="13000.00000" pt_clust_7="13000.00000" pt_clust_8="13000.00000" pt_clust_9="27.76423" pt_clust_10="13000.00000"></scales>
<clustering>
<clus scale="   27.764">  1  9  2 -1</clus>
<clus scale="   89.050">  7  8 -1 -1</clus>
<clus scale="   62.921">  7 10 -1 -1</clus>
<clus scale="   91.927">  5  6 -1 -1</clus>
<clus scale="  117.105">  2  5  1 -1</clus>
<clus scale="   27.764">  1  5  2 -1</clus>
</clustering>
</event>
<event>
10    2  0.4951045E-006  0.2663246E+03  0.7546771E-02  0.1142334E+00
         21   -1    0    0  501  502  0.00000000000E+00  0.00000000000E+00  0.32021838304E+03  0.32021838304E+03  0.00000000000E+00 0.  1.
          2   -1    0    0  503    0 -0.00000000000E+00 -0.00000000000E+00 -0.16013844960E+03  0.16013844960E+03  0.00000000000E+00 0. -1.
         23    2    1    2    0    0  0.22316103444E+02 -0.19876337273E+02  0.90433226329E+02  0.13181876736E+03  0.91131453125E+02 0.  0.
         23    2    1    2    0    0 -0.11471870609E+03  0.83317665344E+02  0.62046120522E+01  0.17277451883E+03  0.98540967431E+02 0.  0.
        -13    1    3    3    0    0  0.17376329091E+02  0.24886052037E+02  0.80038837613E+02  0.85600630402E+02  0.00000000000E+00 0.  1.
         13    1    3    3    0    0  0.49397743523E+01 -0.44762389311E+02  0.10394388716E+02  0.46218136962E+02  0.00000000000E+00 0. -1.
        -13    1    4    4    0    0 -0.12736945746E+03  0.64040706111E+02 -0.12464393745E+02  0.14310678476E+03  0.00000000000E+00 0.  1.
         13    1    4    4    0    0  0.12650751371E+02  0.19276959233E+02  0.18669005798E+02  0.29667734073E+02  0.00000000000E+00 0. -1.
         21    1    1    2  503  502  0.46653110337E+02  0.24274089390E+02  0.55587908996E+02  0.76522936080E+02  0.00000000000E+00 0. -1.
          2    1    1    2  501    0  0.45749492310E+02 -0.87715417461E+02  0.78541860588E+01  0.99240610365E+02  0.00000000000E+00 0. -1.
<scales pt_clust_5="13000.00000" pt_clust_6="13000.00000" pt_clust_7="13000.00000" pt_clust_8="13000.00000" pt_clust_9="52.59034" pt_clust_10="13000.00000"></scales>
<clustering>
<clus scale="   52.590">  1  9  2 -1</clus>
<clus scale="   91.131">  5  6 -1 -1</clus>
<clus scale="   98.541">  7  8 -1 -1</clus>
<clus scale="   99.559">  7 10 -1 -1</clus>
<clus scale="  101.070">  2  5  1 -1</clus>
<clus scale="   52.590">  1  5  2 -1</clus>
</clustering>
</event>
<event>
10    2  0.4951045E-006  0.1170656E+03  0.7546771E-02  0.1271758E+00
         21   -1    0    0  501  502  0.00000000000E+00  0.00000000000E+00  0.93326393553E+02  0.93326393553E+02  0.00000000000E+00 0.  1.
          2   -1    0    0  503    0 -0.00000000000E+00 -0.00000000000E+00 -0.63126851107E+03  0.63126851107E+03  0.00000000000E+00 0. -1.
         23    2    1    2    0    0 -0.71093234252E+01  0.15654435425E+02 -0.26916492591E+03  0.27927067985E+03  0.72434463198E+02 0.  0.
         23    2    1    2    0    0  0.50060343036E+01 -0.67660808939E+01 -0.26664267288E+03  0.28345756391E+03  0.95807282118E+02 0.  0.
        -13    1    3    3    0    0  0.28369833089E+02  0.13797106024E+02 -0.67600758502E+02  0.74599397546E+02  0.00000000000E+00 0.  1.
         13    1    3    3    0    0 -0.35479156514E+02  0.18573294013E+01 -0.20156416740E+03  0.20467128231E+03  0.00000000000E+00 0. -1.
        -13    1    4    4    0    0  0.40331150178E+02  0.71426566421E+01 -0.21768390438E+03  0.22150372783E+03  0.00000000000E+00 0.  1.
         13    1    4    4    0    0 -0.35325115874E+02 -0.13908737536E+02 -0.48958768499E+02  0.61953836074E+02  0.00000000000E+00 0. -1.
         21    1    1    2  503  502  0.22594893830E+02 -0.11024071962E+02  0.76527505773E+02  0.80551340955E+02  0.00000000000E+00 0.  1.
          2    1    1    2  501    0 -0.20491604709E+02  0.21357174309E+01 -0.78662024501E+02  0.81315319904E+02  0.00000000000E+00 0. -1.
<scales pt_clust_5="13000.00000" pt_clust_6="13000.00000" pt_clust_7="13000.00000" pt_clust_8="13000.00000" pt_clust_9="25.14079" pt_clust_10="13000.00000"></scales>
<clustering>
<clus scale="   25.141">  1  9  2 -1</clus>
<clus scale="   72.434">  5  6 -1 -1</clus>
<clus scale="   73.406">  2  5  1 -1</clus>
<clus scale="   95.807">  7  8 -1 -1</clus>
<clus scale="   18.650">  7 10 -1 -1</clus>
<clus scale="   25.141">  1  5  2 -1</clus>
</clustering>
</event>
<event>
10    2  0.4951045E-006  0.1978711E+03  0.7546771E-02  0.1174028E+00
          2   -1    0    0  503    0 -0.00000000000E+00  0.00000000000E+00  0.41200543166E+03  0.41200543166E+03  0.00000000000E+00 0. -1.
         21   -1    0    0  501  502  0.00000000000E+00 -0.00000000000E+00 -0.26499495919E+03  0.26499495919E+03  0.00000000000E+00 0.  1.
         23    2    1    2    0    0  0.16278855787E+02 -0.71697980736E+02  0.27280836444E+03  0.29682162555E+03  0.90956429681E+02 0.  0.
         23    2    1    2    0    0 -0.14859666150E+02  0.84440700909E+02  0.78633495305E+02  0.15143011527E+03  0.96937152720E+02 0.  0.
        -11    1    3    3    0    0  0.49916519634E+02 -0.33482580047E+02  0.10003668063E+03  0.11670509659E+03  0.00000000000E+00 0.  1.
         11    1    3    3    0    0 -0.33637663847E+02 -0.38215400689E+02  0.17277168380E+03  0.18011652896E+03  0.00000000000E+00 0. -1.
        -13    1    4    4    0    0 -0.14034296141E+02 -0.19231570382E+02  0.25665044064E+02  0.35007274306E+02  0.00000000000E+00 0. -1.
         13    1    4    4    0    0 -0.82537000899E+00  0.10367227129E+03  0.52968451241E+02  0.11642284096E+03  0.00000000000E+00 0.  1.
         21    1    1    2  503  502 -0.43048465875E+02 -0.15706104286E+02 -0.16531445720E+03  0.17154801627E+03  0.00000000000E+00 0.  1.
          2    1    1    2  501    0  0.41629276238E+02  0.29633841134E+01 -0.39116930069E+02  0.57200633768E+02  0.00000000000E+00 0. -1.
<scales pt_clust_5="13000.00000" pt_clust_6="13000.00000" pt_clust_7="13000.00000" pt_clust_8="13000.00000" pt_clust_9="45.82414" pt_clust_10="13000.00000"></scales>
<clustering>
<clus scale="   45.824">  2  9  1 -1</clus>
<clus scale="   90.956">  5  6 -1 -1</clus>
<clus scale="   96.937">  7  8 -1 -1</clus>
<clus scale="   20.740">  7 10 -1 -1</clus>
<clus scale="  117.545">  1  5  2 -1</clus>
<clus scale="   45.824">  2  5  1 -1</clus>
</clustering>
</event>
<event>
10    2  0.4951045E-006  0.2431617E+03  0.7546771E-02  0.1157385E+00
         21   -1    0    0  501  502  0.00000000000E+00  0.00000000000E+00  0.95412639107E+02  0.95412639107E+02  0.00000000000E+00 0.  1.
          1   -1    0    0  503    0 -0.00000000000E+00 -0.00000000000E+00 -0.60656898051E+03  0.60656898051E+03  0.00000000000E+00 0. -1.
         23    2    1    2    0    0 -0.10464989166E+02 -0.57404948277E+00 -0.33522986501E+03  0.34782521267E+03  0.92160027361E+02 0.  0.
         23    2    1    2    0    0 -0.34614926698E+02  0.83868591581E+02 -0.10102160668E+03  0.16468007851E+03  0.93177408407E+02 0.  0.
        -11    1    4    4    0    0  0.19976775234E+02  0.25455048138E+02 -0.73186901977E+02  0.80020957539E+02  0.00000000000E+00 0. -1.
         11    1    4    4    0    0 -0.54591701933E+02  0.58413543443E+02 -0.27834704703E+02  0.84659120969E+02  0.00000000000E+00 0.  1.
        -13    1    3    3    0    0  0.36866460971E+02  0.13298788760E+02 -0.98476590713E+02  0.10598883265E+03  0.00000000000E+00 0.  1.
         13    1    3    3    0    0 -0.47331450138E+02 -0.13872838243E+02 -0.23675327430E+03  0.24183638002E+03  0.00000000000E+00 0. -1.
         21    1    1    2  503  502 -0.16284082549E+02  0.13144480358E+02  0.28486426258E+02  0.35347209074E+02  0.00000000000E+00 0.  1.
          1    1    1    2  501    0  0.61363998414E+02 -0.96439022456E+02 -0.10339129597E+03  0.15412911937E+03  0.00000000000E+00 0. -1.
<scales pt_clust_5="13000.00000" pt_clust_6="13000.00000" pt_clust_7="13000.00000" pt_clust_8="13000.00000" pt_clust_9="20.92722" pt_clust_10="13000.00000"></scales>
<clustering>
<clus scale="   20.927">  1  9  2 -1</clus>
<clus scale="   92.160">  7  8 -1 -1</clus>
<clus scale="   92.951">  2  7  1 -1</clus>
<clus scale="   93.177">  5  6 -1 -1</clus>
<clus scale="  103.548">  5 10 -1 -1</clus>
<clus scale="   20.927">  1  5  2 -1</clus>
</clustering>
</event>
<event>
10    2  0.4951045E-006  0.1994112E+03  0.7546771E-02  0.1169310E+00
          3   -1    0    0  502    0 -0.00000000000E+00  0.00000000000E+00  0.29701321658E+03  0.29701321658E+03  0.00000000000E+00 0. -1.
         21   -1    0    0  503  502  0.00000000000E+00 -0.00000000000E+00 -0.57885553705E+03  0.57885553705E+03  0.00000000000E+00 0.  1.
         23    2    1    2    0    0 -0.46965349404E+02  0.30253215404E+01  0.18406677576E+02  0.10601446773E+03  0.93195305530E+02 0.  0.
         23    2    1    2    0    0  0.14229802759E+03  0.22078524499E+02  0.16164014435E+03  0.23407452394E+03  0.89034580883E+02 0.  0.
        -13    1    4    4    0    0  0.50112170408E+02 -0.26323824336E+02  0.23986017580E+02  0.61477657649E+02  0.00000000000E+00 0.  1.
         13    1    4    4    0    0  0.92185857178E+02  0.48402348836E+02  0.13765412677E+03  0.17259686629E+03  0.00000000000E+00 0. -1.
        -13    1    3    3    0    0 -0.31376187464E+02  0.40084705674E+02 -0.15722629226E+02  0.53277104262E+02  0.00000000000E+00 0. -1.
         13    1    3    3    0    0 -0.15589161940E+02 -0.37059384134E+02  0.34129306801E+02  0.52737363464E+02  0.00000000000E+00 0.  1.
         21    1    1    2  503  501 -0.90000793203E+02  0.25355241870E+02 -0.47439433683E+03  0.48352147613E+03  0.00000000000E+00 0.  1.
          3    1    1    2  501    0 -0.53318849795E+01 -0.50459087910E+02  0.12505194430E+02  0.52258285830E+02  0.00000000000E+00 0. -1.
<scales pt_clust_5="13000.00000" pt_clust_6="13000.00000" pt_clust_7="13000.00000" pt_clust_8="13000.00000" pt_clust_9="93.50418" pt_clust_10="13000.00000"></scales>
<clustering>
<clus scale="   89.035">  5  6 -1 -1</clus>
<clus scale="   50.740">  5 10 -1 -1</clus>
<clus scale="   93.195">  7  8 -1 -1</clus>
<clus scale="   93.504">  2  9  1 -1</clus>
<clus scale="  127.889">  1  7  2 -1</clus>
<clus scale="   93.504">  2  5  1 -1</clus>
</clustering>
</event>
<event>
10    2  0.4951045E-006  0.8707414E+03  0.7546771E-02  0.9963477E-01
          1   -1    0    0  502    0 -0.00000000000E+00  0.00000000000E+00  0.63095634643E+03  0.63095634643E+03  0.00000000000E+00 0. -1.
         21   -1    0    0  503  502  0.00000000000E+00 -0.00000000000E+00 -0.15730202166E+04  0.15730202166E+04  0.00000000000E+00 0. -1.
         23    2    1    2    0    0 -0.10883371859E+03  0.79558989760E+02  0.16884169555E+03  0.23473372189E+03  0.91749609710E+02 0.  0.
         23    2    1    2    0    0  0.18567047955E+03  0.28503347960E+03 -0.35428582837E+03  0.49900393117E+03  0.88141157657E+02 0.  0.
        -11    1    3    3    0    0 -0.82763759006E+02  0.58480385346E+01  0.10480117556E+03  0.13366871645E+03  0.00000000000E+00 0.  1.
         11    1    3    3    0    0 -0.26069959588E+02  0.73710951225E+02  0.64040519988E+02  0.10106500544E+03  0.00000000000E+00 0. -1.
        -13    1    4    4    0    0  0.10668938010E+03  0.19105074622E+03 -0.28055716423E+03  0.35580238034E+03  0.00000000000E+00 0. -1.
         13    1    4    4    0    0  0.78981099452E+02  0.93982733382E+02 -0.73728664139E+02  0.14320155083E+03  0.00000000000E+00 0.  1.
         21    1    1    2  503  501  0.96811411260E+02 -0.49458269808E+03 -0.10147891098E+04  0.11330407900E+04  0.00000000000E+00 0. -1.
          1    1    1    2  501    0 -0.17364817222E+03  0.12999022872E+03  0.25816937238E+03  0.33719811997E+03  0.00000000000E+00 0. -1.
<scales pt_clust_5="13000.00000" pt_clust_6="13000.00000" pt_clust_7="13000.00000" pt_clust_8="13000.00000" pt_clust_9="490.49398" pt_clust_10="13000.00000"></scales>
<clustering>
<clus scale="   88.141">  7  8 -1 -1</clus>
<clus scale="   91.750">  5  6 -1 -1</clus>
<clus scale="  163.072">  1  5  2 -1</clus>
<clus scale="  310.419">  7 10 -1 -1</clus>
<clus scale="  490.494">  2  9  1 -1</clus>
<clus scale="  490.494">  2  5  1 -1</clus>
</clustering>
</event>
<event>
10    2  0.4951045E-006  0.2813925E+03  0.7546771E-02  0.1126235E+00
          1   -1    0    0  502    0 -0.00000000000E+00  0.00000000000E+00  0.42616478007E+03  0.42616478007E+03  0.00000000000E+00 0. -1.
         21   -1    0    0  503  502  0.00000000000E+00 -0.00000000000E+00 -0.23324871039E+03  0.23324871039E+03  0.00000000000E+00 0. -1.
         23    2    1    2    0    0 -0.88168885071E+02 -0.20864232955E+01  0.91596880778E+02  0.15646934720E+03  0.91184223357E+02 0.  0.
         23    2    1    2    0    0  0.30873005614E+02 -0.46892862304E+02  0.87753871160E+02  0.13838651348E+03  0.91093370768E+02 0.  0.
        -13    1    3    3    0    0 -0.18746899519E+02 -0.36076201586E+02  0.61065559083E+02  0.73361713916E+02  0.00000000000E+00 0.  1.
         13    1    3    3    0    0 -0.69421985553E+02  0.33989778291E+02  0.30531321695E+02  0.83107633288E+02  0.00000000000E+00 0. -1.
        -13    1    4    4    0    0  0.56547576200E+02 -0.41453950204E+02  0.87518987391E+02  0.11214112321E+03  0.00000000000E+00 0. -1.
         13    1    4    4    0    0 -0.25674570587E+02 -0.54389121001E+01  0.23488376877E+00  0.26245390263E+02  0.00000000000E+00 0.  1.
         21    1    1    2  503  501 -0.14750233230E+03  0.24579731235E+01 -0.28809893792E+02  0.15030964589E+03  0.00000000000E+00 0. -1.
          1    1    1    2  501    0  0.20479821176E+03  0.46521312476E+02  0.42375211534E+02  0.21424798390E+03  0.00000000000E+00 0. -1.
<scales pt_clust_5="13000.00000" pt_clust_6="13000.00000" pt_clust_7="13000.00000" pt_clust_8="13000.00000" pt_clust_9="165.24310" pt_clust_10="13000.00000"></scales>
<clustering>
<clus scale="   91.093">  7  8 -1 -1</clus>
<clus scale="   91.184">  5  6 -1 -1</clus>
<clus scale="  126.857">  1  5  2 -1</clus>
<clus scale="  165.243">  2  9  1 -1</clus>
<clus scale="   82.160">  7 10 -1 -1</clus>
<clus scale="  165.243">  2  5  1 -1</clus>
</clustering>
</event>
<event>
10    2  0.4951045E-006  0.3960910E+03  0.7546771E-02  0.1089689E+00
          2   -1    0    0  502    0 -0.00000000000E+00  0.00000000000E+00  0.27148693456E+03  0.27148693456E+03  0.00000000000E+00 0. -1.
         21   -1    0    0  503  502  0.00000000000E+00 -0.00000000000E+00 -0.32256266437E+03  0.32256266437E+03  0.00000000000E+00 0. -1.
         23    2    1    2    0    0  0.67260003348E+02 -0.38399323040E+02  0.67552660636E+02  0.13518426672E+03  0.87823732260E+02 0.  0.
         23    2    1    2    0    0  0.14550036642E+03  0.39156041256E+02 -0.20564007081E+02  0.17745032678E+03  0.91444999287E+02 0.  0.
        -11    1    3    3    0    0  0.25493584758E+02 -0.33300892830E+02  0.80830223211E+02  0.91062601058E+02  0.00000000000E+00 0.  1.
         11    1    3    3    0    0  0.41766418591E+02 -0.50984302105E+01 -0.13277562575E+02  0.44121665658E+02  0.00000000000E+00 0. -1.
        -13    1    4    4    0    0  0.36871234193E+02 -0.25056263211E+02 -0.25139372846E+02  0.51179022110E+02  0.00000000000E+00 0.  1.
         13    1    4    4    0    0  0.10862913222E+03  0.64212304467E+02  0.45753657646E+01  0.12627130467E+03  0.00000000000E+00 0. -1.
         21    1    1    2  503  501  0.18495515675E+01  0.36551379072E+02 -0.43516362255E+02  0.56860337117E+02  0.00000000000E+00 0. -1.
          2    1    1    2  501    0 -0.21460992133E+03 -0.37308097288E+02 -0.54548021110E+02  0.22455466832E+03  0.00000000000E+00 0. -1.
<scales pt_clust_5="13000.00000" pt_clust_6="13000.00000" pt_clust_7="13000.00000" pt_clust_8="13000.00000" pt_clust_9="36.59814" pt_clust_10="13000.00000"></scales>
<clustering>
<clus scale="   36.598">  2  9  1 -1</clus>
<clus scale="   87.824">  5  6 -1 -1</clus>
<clus scale="   91.445">  7  8 -1 -1</clus>
<clus scale="  115.821">  1  5  2 -1</clus>
<clus scale="  183.439">  7 10 -1 -1</clus>
<clus scale="   36.598">  2  5  1 -1</clus>
</clustering>
</event>
<event>
10    2  0.4951045E-006  0.3277265E+03  0.7546771E-02  0.1107561E+00
         21   -1    0    0  501  502  0.00000000000E+00  0.00000000000E+00  0.87743660727E+02  0.87743660727E+02  0.00000000000E+00 0. -1.
          3   -1    0    0  503    0 -0.00000000000E+00 -0.00000000000E+00 -0.95774749672E+03  0.95774749672E+03  0.00000000000E+00 0. -1.
         23    2    1    2    0    0 -0.38526190018E+02 -0.61806913061E+02 -0.27500084336E+03  0.30111033275E+03  0.98679313044E+02 0.  0.
         23    2    1    2    0    0  0.16883263562E+03  0.54882991678E+02 -0.32427743864E+03  0.37900320897E+03  0.83492356379E+02 0.  0.
        -13    1    3    3    0    0 -0.38907628216E+02 -0.82905583850E+02 -0.25874099090E+03  0.27447047153E+03  0.00000000000E+00 0.  1.
         13    1    3    3    0    0  0.38143819801E+00  0.21098670789E+02 -0.16259852454E+02  0.26639861223E+02  0.00000000000E+00 0. -1.
        -13    1    4    4    0    0  0.13763160028E+03  0.10198958939E+02 -0.26289596726E+03  0.29691878647E+03  0.00000000000E+00 0. -1.
         13    1    4    4    0    0  0.31201035333E+02  0.44684032739E+02 -0.61381471384E+02  0.82084422498E+02  0.00000000000E+00 0.  1.
         21    1    1    2  503  502 -0.88031604630E+00 -0.46596560210E+02  0.13498032944E+02  0.48520215097E+02  0.00000000000E+00 0. -1.
          3    1    1    2  501    0 -0.12942612955E+03  0.53520481593E+02 -0.28422358693E+03  0.31685740063E+03  0.00000000000E+00 0. -1.
<scales pt_clust_5="13000.00000" pt_clust_6="13000.00000" pt_clust_7="13000.00000" pt_clust_8="13000.00000" pt_clust_9="46.60488" pt_clust_10="13000.00000"></scales>
<clustering>
<clus scale="   46.605">  1  9  2 -1</clus>
<clus scale="   83.492">  7  8 -1 -1</clus>
<clus scale="   98.679">  5  6 -1 -1</clus>
<clus scale="  128.444">  2  5  1 -1</clus>
<clus scale="  147.633">  7 10 -1 -1</clus>
<clus scale="   46.605">  1  5  2 -1</clus>
</clustering>
</event>
<event>
10    2  0.4951045E-006  0.2467511E+03  0.7546771E-02  0.1137398E+00
         -3   -1    0    0    0  501 -0.00000000000E+00  0.00000000000E+00  0.12494766287E+04  0.12494766287E+04  0.00000000000E+00 0.  1.
         21   -1    0    0  501  502  0.00000000000E+00 -0.00000000000E+00 -0.64915549046E+02  0.64915549046E+02  0.00000000000E+00 0.  1.
         23    2    1    2    0    0 -0.98945829754E+02 -0.39589516663E+02  0.66201989316E+03  0.67640437768E+03  0.88853453230E+02 0.  0.
         23    2    1    2    0    0  0.52228068243E+02  0.12441085545E+03  0.29881543752E+03  0.34136444298E+03  0.95043070067E+02 0.  0.
        -13    1    4    4    0    0  0.62503794008E+01  0.20417474579E+02 -0.31236399141E+00  0.21355048164E+02  0.00000000000E+00 0. -1.
         13    1    4    4    0    0  0.45977688842E+02  0.10399338087E+03  0.29912780151E+03  0.32000939482E+03  0.00000000000E+00 0.  1.
        -13    1    3    3    0    0 -0.75359682049E+02 -0.67625768977E+02  0.51750594052E+03  0.52731842825E+03  0.00000000000E+00 0.  1.
         13    1    3    3    0    0 -0.23586147705E+02  0.28036252313E+02  0.14451395265E+03  0.14908594943E+03  0.00000000000E+00 0. -1.
         21    1    1    2  503  502 -0.20413293256E+02 -0.25688133654E+02 -0.19014322830E+02  0.37922647914E+02  0.00000000000E+00 0.  1.
         -3    1    1    2    0  503  0.67131054767E+02 -0.59133205134E+02  0.24274007182E+03  0.25870070918E+03  0.00000000000E+00 0.  1.
<scales pt_clust_5="13000.00000" pt_clust_6="13000.00000" pt_clust_7="13000.00000" pt_clust_8="13000.00000" pt_clust_9="32.81132" pt_clust_10="13000.00000"></scales>
<clustering>
<clus scale="   32.811">  2  9  1 -1</clus>
<clus scale="   88.853">  7  8 -1 -1</clus>
<clus scale="   95.043">  5  6 -1 -1</clus>
<clus scale="   90.111">  5 10 -1 -1</clus>
<clus scale="  143.154">  1  7  2 -1</clus>
<clus scale="   32.811">  2  5  1 -1</clus>
</clustering>
</event>
<event>
10    2  0.4951045E-006  0.1820244E+03  0.7546771E-02  0.1194472E+00
         21   -1    0    0  503  502  0.00000000000E+00  0.00000000000E+00  0.22467417032E+03  0.22467417032E+03  0.00000000000E+00 0. -1.
          1   -1    0    0  502    0 -0.00000000000E+00 -0.00000000000E+00 -0.25812022546E+03  0.25812022546E+03  0.00000000000E+00 0. -1.
         23    2    1    2    0    0 -0.16378931509E+01  0.25172928164E+02 -0.17747502518E+03  0.20133104209E+03  0.91653941212E+02 0.  0.
         23    2    1    2    0    0 -0.33901014460E+02 -0.32382732776E+02 -0.10218831587E+02  0.10410227491E+03  0.92384733366E+02 0.  0.
        -13    1    3    3    0    0  0.29858595730E+02 -0.14209517836E+02 -0.27188434790E+02  0.42809544759E+02  0.00000000000E+00 0.  1.
         13    1    3    3    0    0 -0.31496488881E+02  0.39382446000E+02 -0.15028659039E+03  0.15852149733E+03  0.00000000000E+00 0. -1.
        -13    1    4    4    0    0 -0.46328043019E+02 -0.57599213429E+02  0.75923492293E+00  0.73922482339E+02  0.00000000000E+00 0. -1.
         13    1    4    4    0    0  0.12427028559E+02  0.25216480653E+02 -0.10978066510E+02  0.30179792571E+02  0.00000000000E+00 0.  1.
         21    1    1    2  503  501 -0.15828548867E+02  0.26157933422E+02  0.75449642224E+02  0.81409022546E+02  0.00000000000E+00 0. -1.
          1    1    1    2  501    0  0.51367456477E+02 -0.18948128811E+02  0.78798159400E+02  0.95952056232E+02  0.00000000000E+00 0. -1.
<scales pt_clust_5="13000.00000" pt_clust_6="13000.00000" pt_clust_7="13000.00000" pt_clust_8="13000.00000" pt_clust_9="30.57418" pt_clust_10="13000.00000"></scales>
<clustering>
<clus scale="   30.574">  1  9  2 -1</clus>
<clus scale="   91.654">  5  6 -1 -1</clus>
<clus scale="   92.385">  7  8 -1 -1</clus>
<clus scale="   42.042">  7 10 -1 -1</clus>
<clus scale="   95.680">  2  5  1 -1</clus>
<clus scale="   30.574">  1  5  2 -1</clus>
</clustering>
</event>
<event>
10    2  0.4951045E-006  0.1591017E+03  0.7546771E-02  0.1215155E+00
         21   -1    0    0  501  502  0.00000000000E+00  0.00000000000E+00  0.36272321208E+03  0.36272321208E+03  0.00000000000E+00 0. -1.
          4   -1    0    0  503    0 -0.00000000000E+00 -0.00000000000E+00 -0.94156319305E+02  0.94156319305E+02  0.00000000000E+00 0. -1.
         23    2    1    2    0    0  0.16035118429E+02  0.60204867620E+01  0.45354483391E+02  0.10299347575E+03  0.90869442605E+02 0.  0.
         23    2    1    2    0    0  0.20480819985E+02 -0.64001007876E+02  0.28484001727E+02  0.11677987796E+03  0.91162539157E+02 0.  0.
        -11    1    4    4    0    0 -0.10495997686E+02 -0.68908261940E+02  0.43337661317E+02  0.82077204019E+02  0.00000000000E+00 0.  1.
         11    1    4    4    0    0  0.30976817671E+02  0.49072540642E+01 -0.14853659590E+02  0.34702673941E+02  0.00000000000E+00 0. -1.
        -13    1    3    3    0    0 -0.11925319974E+02  0.31416302347E+02 -0.10818413312E+02  0.35302059093E+02  0.00000000000E+00 0.  1.
         13    1    3    3    0    0  0.27960438404E+02 -0.25395815585E+02  0.56172896703E+02  0.67691416656E+02  0.00000000000E+00 0. -1.
         21    1    1    2  503  502 -0.24748104612E+02  0.12972878231E+02  0.18804291537E+03  0.19010760708E+03  0.00000000000E+00 0. -1.
          4    1    1    2  501    0 -0.11767833802E+02  0.45007642883E+02  0.66854922868E+01  0.46998570589E+02  0.00000000000E+00 0. -1.
<scales pt_clust_5="13000.00000" pt_clust_6="13000.00000" pt_clust_7="13000.00000" pt_clust_8="13000.00000" pt_clust_9="27.94216" pt_clust_10="13000.00000"></scales>
<clustering>
<clus scale="   27.942">  1  9  2 -1</clus>
<clus scale="   90.869">  7  8 -1 -1</clus>
<clus scale="   91.163">  5  6 -1 -1</clus>
<clus scale="   49.532">  5 10 -1 -1</clus>
<clus scale="   91.765">  2  7  1 -1</clus>
<clus scale="   27.942">  1  5  2 -1</clus>
</clustering>
</event>
<event>
10    2  0.4951045E-006  0.2526315E+03  0.7546771E-02  0.1130860E+00
          1   -1    0    0  503    0 -0.00000000000E+00  0.00000000000E+00  0.27873052976E+03  0.27873052976E+03  0.00000000000E+00 0. -1.
         21   -1    0    0  501  502  0.00000000000E+00 -0.00000000000E+00 -0.26802265242E+03  0.26802265242E+03  0.00000000000E+00 0. -1.
         23    2    1    2    0    0 -0.82553811170E+02 -0.87397435847E+02  0.72691324081E+02  0.16698862379E+03  0.90264768027E+02 0.  0.
         23    2    1    2    0    0  0.12487613990E+03  0.12416603105E+03  0.76868999197E+02  0.21303544314E+03  0.92000018529E+02 0.  0.
        -13    1    3    3    0    0 -0.89894484447E+02 -0.45436799593E+02  0.26497636846E+02  0.10415203238E+03  0.00000000000E+00 0.  1.
         13    1    3    3    0    0  0.73406732777E+01 -0.41960636254E+02  0.46193687235E+02  0.62836591405E+02  0.00000000000E+00 0. -1.
        -13    1    4    4    0    0 -0.60557745843E+01  0.43997810613E+02  0.25110968627E+02  0.51020000881E+02  0.00000000000E+00 0.  1.
         13    1    4    4    0    0  0.13093191449E+03  0.80168220441E+02  0.51758030571E+02  0.16201544225E+03  0.00000000000E+00 0. -1.
         21    1    1    2  503  502  0.12293885855E+01 -0.34878719035E+02 -0.10752547996E+03  0.11304762394E+03  0.00000000000E+00 0. -1.
          1    1    1    2  501    0 -0.43551717320E+02 -0.18898761714E+01 -0.31326965976E+02  0.53681491324E+02  0.00000000000E+00 0. -1.
<scales pt_clust_5="13000.00000" pt_clust_6="13000.00000" pt_clust_7="13000.00000" pt_clust_8="13000.00000" pt_clust_9="34.90038" pt_clust_10="13000.00000"></scales>
<clustering>
<clus scale="   34.900">  2  9  1 -1</clus>
<clus scale="   90.265">  5  6 -1 -1</clus>
<clus scale="   92.000">  7  8 -1 -1</clus>
<clus scale="   44.670">  7 10 -1 -1</clus>
<clus scale="  156.434">  1  5  2 -1</clus>
<clus scale="   34.900">  2  5  1 -1</clus>
</clustering>
</event>
<event>
10    2  0.4951045E-006  0.1903495E+03  0.7546771E-02  0.1187196E+00
         -1   -1    0    0    0  501 -0.00000000000E+00  0.00000000000E+00  0.28727302885E+03  0.28727302885E+03  0.00000000000E+00 0.  1.
         21   -1    0    0  501  502  0.00000000000E+00 -0.00000000000E+00 -0.15509171363E+03  0.15509171363E+03  0.00000000000E+00 0. -1.
         23    2    1    2    0    0 -0.35772959083E+02  0.11104447061E+02  0.71376953096E+02  0.12226527379E+03  0.91929942864E+02 0.  0.
         23    2    1    2    0    0  0.67558897989E+02  0.16997722225E+01  0.41619340099E+02  0.12131077720E+03  0.91744434555E+02 0.  0.
        -11    1    4    4    0    0 -0.18803334709E+02 -0.14286598497E+02 -0.11053338663E+01  0.23640940247E+02  0.00000000000E+00 0.  1.
         11    1    4    4    0    0  0.86362232698E+02  0.15986370719E+02  0.42724673965E+02  0.97669836955E+02  0.00000000000E+00 0. -1.
        -13    1    3    3    0    0  0.16002985697E+02 -0.28894180489E+02  0.16762643440E+02  0.37039916745E+02  0.00000000000E+00 0. -1.
         13    1    3    3    0    0 -0.51775944780E+02  0.39998627551E+02  0.54614309657E+02  0.85225357043E+02  0.00000000000E+00 0.  1.
         21    1    1    2  503  502  0.18178391825E+02  0.20390334268E+02 -0.79077803982E+02  0.83663126547E+02  0.00000000000E+00 0. -1.
         -1    1    1    2    0  503 -0.49964330731E+02 -0.33194553551E+02  0.98262826004E+02  0.11512556495E+03  0.00000000000E+00 0.  1.
<scales pt_clust_5="13000.00000" pt_clust_6="13000.00000" pt_clust_7="13000.00000" pt_clust_8="13000.00000" pt_clust_9="27.31702" pt_clust_10="13000.00000"></scales>
<clustering>
<clus scale="   27.317">  2  9  1 -1</clus>
<clus scale="   91.744">  5  6 -1 -1</clus>
<clus scale="   56.969">  5 10 -1 -1</clus>
<clus scale="   91.930">  7  8 -1 -1</clus>
<clus scale="   98.237">  1  7  2 -1</clus>
<clus scale="   27.317">  2  5  1 -1</clus>
</clustering>
</event>
<event>
10    2  0.4951045E-006  0.3606743E+03  0.7546771E-02  0.1099203E+00
          2   -1    0    0  503    0 -0.00000000000E+00  0.00000000000E+00  0.60608119742E+03  0.60608119742E+03  0.00000000000E+00 0. -1.
         21   -1    0    0  501  502  0.00000000000E+00 -0.00000000000E+00 -0.16373643690E+03  0.16373643690E+03  0.00000000000E+00 0. -1.
         23    2    1    2    0    0  0.66560009441E+02 -0.15233603869E+02  0.21701052322E+03  0.24517120813E+03  0.91395057651E+02 0.  0.
         23    2    1    2    0    0 -0.84517529535E+01 -0.77640218922E+02  0.25117584804E+03  0.28045070477E+03  0.97282349075E+02 0.  0.
        -13    1    4    4    0    0 -0.26313993432E+02 -0.21031501264E+02  0.14903248615E+02  0.36835541465E+02  0.00000000000E+00 0.  1.
         13    1    4    4    0    0  0.17862240479E+02 -0.56608717658E+02  0.23627259943E+03  0.24361516330E+03  0.00000000000E+00 0. -1.
        -13    1    3    3    0    0  0.29319031230E+02 -0.51380929164E+02  0.87225549240E+02  0.10539403168E+03  0.00000000000E+00 0. -1.
         13    1    3    3    0    0  0.37240978210E+02  0.36147325295E+02  0.12978497398E+03  0.13977717645E+03  0.00000000000E+00 0.  1.
         21    1    1    2  503  502  0.80460854721E+02  0.10991635187E+02 -0.17465029715E+00  0.81208347411E+02  0.00000000000E+00 0. -1.
          2    1    1    2  501    0 -0.13856911121E+03  0.81882187604E+02 -0.25666960447E+02  0.16298737401E+03  0.00000000000E+00 0. -1.
<scales pt_clust_5="13000.00000" pt_clust_6="13000.00000" pt_clust_7="13000.00000" pt_clust_8="13000.00000" pt_clust_9="81.20816" pt_clust_10="13000.00000"></scales>
<clustering>
<clus scale="   81.208">  2  9  1 -1</clus>
<clus scale="   91.395">  7  8 -1 -1</clus>
<clus scale="   97.282">  5  6 -1 -1</clus>
<clus scale="  118.606">  5 10 -1 -1</clus>
<clus scale="  119.537">  1  7  2 -1</clus>
<clus scale="   81.208">  2  5  1 -1</clus>
</clustering>
</event>
<event>
10    2  0.4951045E-006  0.2871570E+03  0.7546771E-02  0.1110874E+00
          1   -1    0    0  503    0 -0.00000000000E+00  0.00000000000E+00  0.13928963724E+04  0.13928963724E+04  0.00000000000E+00 0. -1.
         21   -1    0    0  501  502  0.00000000000E+00 -0.00000000000E+00 -0.24390344232E+03  0.24390344232E+03  0.00000000000E+00 0. -1.
         23    2    1    2    0    0  0.62509894663E+02 -0.12974131014E+03  0.79031360677E+03  0.80847153235E+03  0.91051233348E+02 0.  0.
         23    2    1    2    0    0 -0.56121152855E+02  0.12756026659E+03  0.56483111768E+03  0.58925354661E+03  0.93618082021E+02 0.  0.
        -11    1    4    4    0    0 -0.46077509808E+02  0.92967202419E+02  0.52660328862E+03  0.53672810736E+03  0.00000000000E+00 0. -1.
         11    1    4    4    0    0 -0.10043643047E+02  0.34593064171E+02  0.38227829054E+02  0.52525439252E+02  0.00000000000E+00 0.  1.
        -11    1    3    3    0    0  0.79267969435E+02 -0.84344901018E+02  0.64525521130E+03  0.65555454465E+03  0.00000000000E+00 0.  1.
         11    1    3    3    0    0 -0.16758074773E+02 -0.45396409121E+02  0.14505839547E+03  0.15291698770E+03  0.00000000000E+00 0. -1.
         21    1    1    2  503  502 -0.54920658190E+01 -0.37062973454E+02 -0.19457410913E+03  0.19814870863E+03  0.00000000000E+00 0. -1.
          1    1    1    2  501    0 -0.89667598826E+00  0.39244017003E+02 -0.11577685266E+02  0.40926027103E+02  0.00000000000E+00 0. -1.
<scales pt_clust_5="13000.00000" pt_clust_6="13000.00000" pt_clust_7="13000.00000" pt_clust_8="13000.00000" pt_clust_9="37.46768" pt_clust_10="13000.00000"></scales>
<clustering>
<clus scale="   37.468">  2  9  1 -1</clus>
<clus scale="   91.051">  7  8 -1 -1</clus>
<clus scale="   93.618">  5  6 -1 -1</clus>
<clus scale="   19.185">  5 10 -1 -1</clus>
<clus scale="  175.463">  1  7  2 -1</clus>
<clus scale="   37.468">  2  5  1 -1</clus>
</clustering>
</event>
<event>
10    2  0.4951045E-006  0.2149460E+03  0.7546771E-02  0.1159411E+00
          1   -1    0    0  502    0 -0.00000000000E+00  0.00000000000E+00  0.37232428666E+03  0.37232428666E+03  0.00000000000E+00 0. -1.
         21   -1    0    0  503  502  0.00000000000E+00 -0.00000000000E+00 -0.80623920916E+03  0.80623920916E+03  0.00000000000E+00 0. -1.
         23    2    1    2    0    0 -0.61239411358E+02 -0.91928974377E+02  0.20180741580E+03  0.24978480467E+03  0.97288302166E+02 0.  0.
         23    2    1    2    0    0  0.17431689186E+02 -0.56463896424E+02  0.90179321468E+02  0.13694550751E+03  0.84437708510E+02 0.  0.
        -13    1    3    3    0    0  0.76564654915E+01 -0.72422749768E+02  0.12581500587E+03  0.14537225268E+03  0.00000000000E+00 0. -1.
         13    1    3    3    0    0 -0.68895876850E+02 -0.19506224609E+02  0.75992409924E+02  0.10441255198E+03  0.00000000000E+00 0.  1.
        -13    1    4    4    0    0 -0.21325955585E+02  0.10738603756E+02  0.32242081364E+02  0.40120640609E+02  0.00000000000E+00 0.  1.
         13    1    4    4    0    0  0.38757644771E+02 -0.67202500180E+02  0.57937240104E+02  0.96824866897E+02  0.00000000000E+00 0. -1.
         21    1    1    2  503  501  0.67916097992E+02  0.79580125201E+02 -0.70940300108E+03  0.71707615400E+03  0.00000000000E+00 0. -1.
          1    1    1    2  501    0 -0.24108375820E+02  0.68812745600E+02 -0.16498658682E+02  0.74757029636E+02  0.00000000000E+00 0. -1.
<scales pt_clust_5="13000.00000" pt_clust_6="13000.00000" pt_clust_7="13000.00000" pt_clust_8="13000.00000" pt_clust_9="104.62119" pt_clust_10="13000.00000"></scales>
<clustering>
<clus scale="   84.438">  7  8 -1 -1</clus>
<clus scale="   72.914">  7 10 -1 -1</clus>
<clus scale="   97.288">  5  6 -1 -1</clus>
<clus scale="  104.621">  2  9  1 -1</clus>
<clus scale="  128.354">  1  5  2 -1</clus>
<clus scale="  104.621">  2  5  1 -1</clus>
</clustering>
</event>
<event>
10    2  0.4951045E-006  0.2653356E+03  0.7546771E-02  0.1143197E+00
          2   -1    0    0  503    0 -0.00000000000E+00  0.00000000000E+00  0.93932288133E+03  0.93932288133E+03  0.00000000000E+00 0. -1.
         21   -1    0    0  501  502  0.00000000000E+00 -0.00000000000E+00 -0.60771087300E+02  0.60771087300E+02  0.00000000000E+00 0. -1.
         23    2    1    2    0    0 -0.24419686455E+02 -0.28482534844E+02  0.36252060073E+03  0.37565622691E+03  0.91043061170E+02 0.  0.
         23    2    1    2    0    0  0.10725321181E+03  0.10785743551E+03  0.35384142352E+03  0.39589031683E+03  0.91591004605E+02 0.  0.
        -11    1    3    3    0    0 -0.57904932426E+02 -0.28007151462E+02  0.25824521658E+03  0.26613525437E+03  0.00000000000E+00 0. -1.
         11    1    3    3    0    0  0.33485245971E+02 -0.47538338209E+00  0.10427538415E+03  0.10952097254E+03  0.00000000000E+00 0.  1.
        -13    1    4    4    0    0  0.27629141590E+02  0.64493874805E+01  0.12487463205E+02  0.30998399978E+02  0.00000000000E+00 0.  1.
         13    1    4    4    0    0  0.79624070224E+02  0.10140804803E+03  0.34135396031E+03  0.36489191685E+03  0.00000000000E+00 0. -1.
         21    1    1    2  503  502 -0.10745113511E+02 -0.22664651970E+02 -0.14856899854E+02  0.29152553688E+02  0.00000000000E+00 0. -1.
          2    1    1    2  501    0 -0.72088411848E+02 -0.56710248699E+02  0.17704666964E+03  0.19939487120E+03  0.00000000000E+00 0. -1.
<scales pt_clust_5="13000.00000" pt_clust_6="13000.00000" pt_clust_7="13000.00000" pt_clust_8="13000.00000" pt_clust_9="25.08274" pt_clust_10="13000.00000"></scales>
<clustering>
<clus scale="   25.083">  2  9  1 -1</clus>
<clus scale="   91.043">  5  6 -1 -1</clus>
<clus scale="   91.591">  7  8 -1 -1</clus>
<clus scale="   98.248">  7 10 -1 -1</clus>
<clus scale="  100.111">  1  5  2 -1</clus>
<clus scale="   25.083">  2  5  1 -1</clus>
</clustering>
</event>
<event>
10    2  0.4951045E-006  0.2161498E+03  0.7546771E-02  0.1156684E+00
         21   -1    0    0  503  502  0.00000000000E+00  0.00000000000E+00  0.23092322585E+03  0.23092322585E+03  0.00000000000E+00 0.  1.
         -2   -1    0    0    0  501 -0.00000000000E+00 -0.00000000000E+00 -0.31005040822E+03  0.31005040822E+03  0.00000000000E+00 0.  1.
         23    2    1    2    0    0  0.98770742469E+02  0.15232873985E+02 -0.13091008914E+03  0.18758119481E+03  0.89786152558E+02 0.  0.
         23    2    1    2    0    0 -0.23205191182E+02  0.15445543488E+02 -0.84974442314E+02  0.12706160581E+03  0.90260457090E+02 0.  0.
        -11    1    3    3    0    0  0.16463204563E+02 -0.23737842140E+02 -0.96736228752E+00  0.28904291096E+02  0.00000000000E+00 0. -1.
         11    1    3    3    0    0  0.82307537907E+02  0.38970716125E+02 -0.12994272685E+03  0.15867690372E+03  0.00000000000E+00 0.  1.
        -13    1    4    4    0    0  0.24397841995E+02  0.35257381565E+02 -0.36991671438E+02  0.56627920716E+02  0.00000000000E+00 0.  1.
         13    1    4    4    0    0 -0.47603033177E+02 -0.19811838077E+02 -0.47982770876E+02  0.70433685098E+02  0.00000000000E+00 0. -1.
         21    1    1    2  503  501 -0.82176594989E+01  0.43127280809E+02  0.11634372719E+03  0.12435173957E+03  0.00000000000E+00 0.  1.
         -2    1    1    2    0  502 -0.67347891789E+02 -0.73805698282E+02  0.20413621900E+02  0.10197909387E+03  0.00000000000E+00 0.  1.
<scales pt_clust_5="13000.00000" pt_clust_6="13000.00000" pt_clust_7="13000.00000" pt_clust_8="13000.00000" pt_clust_9="43.90321" pt_clust_10="13000.00000"></scales>
<clustering>
<clus scale="   43.903">  1  9  2 -1</clus>
<clus scale="   89.786">  5  6 -1 -1</clus>
<clus scale="   90.260">  7  8 -1 -1</clus>
<clus scale="   87.537">  7 10 -1 -1</clus>
<clus scale="  134.523">  2  5  1 -1</clus>
<clus scale="   43.903">  1  5  2 -1</clus>
</clustering>
</event>
<event>
10    2  0.4951045E-006  0.3770531E+03  0.7546771E-02  0.1076582E+00
         21   -1    0    0  503  502  0.00000000000E+00  0.00000000000E+00  0.35601711515E+03  0.35601711515E+03  0.00000000000E+00 0.  1.
          2   -1    0    0  502    0 -0.00000000000E+00 -0.00000000000E+00 -0.63954065517E+03  0.63954065517E+03  0.00000000000E+00 0. -1.
         23    2    1    2    0    0 -0.32375383884E+02  0.16182090826E+03 -0.47533840726E+03  0.51143521132E+03  0.91570749298E+02 0.  0.
         23    2    1    2    0    0  0.13341577323E+02 -0.28874747788E+03  0.10299983258E+03  0.31967748127E+03  0.89619321869E+02 0.  0.
        -11    1    3    3    0    0  0.24592464895E+02  0.51402429960E+02 -0.89641119904E+02  0.10621925208E+03  0.00000000000E+00 0.  1.
         11    1    3    3    0    0 -0.56967848778E+02  0.11041847830E+03 -0.38569728736E+03  0.40521595923E+03  0.00000000000E+00 0. -1.
        -13    1    4    4    0    0 -0.66872341109E+01 -0.27163796560E+03  0.10881949660E+03  0.29270050614E+03  0.00000000000E+00 0.  1.
         13    1    4    4    0    0  0.20028811434E+02 -0.17109512287E+02 -0.58196640193E+01  0.26976975136E+02  0.00000000000E+00 0. -1.
         21    1    1    2  503  501  0.94794754315E-01  0.37778435292E+02  0.56057255139E+02  0.67599075533E+02  0.00000000000E+00 0.  1.
          2    1    1    2  501    0  0.18939011806E+02  0.89148134332E+02  0.32757779515E+02  0.96846002198E+02  0.00000000000E+00 0. -1.
<scales pt_clust_5="13000.00000" pt_clust_6="13000.00000" pt_clust_7="13000.00000" pt_clust_8="13000.00000" pt_clust_9="37.77855" pt_clust_10="13000.00000"></scales>
<clustering>
<clus scale="   37.779">  1  9  2 -1</clus>
<clus scale="   89.619">  7  8 -1 -1</clus>
<clus scale="   91.571">  5  6 -1 -1</clus>
<clus scale="   99.297">  7 10 -1 -1</clus>
<clus scale="  190.721">  2  5  1 -1</clus>
<clus scale="   37.779">  1  5  2 -1</clus>
</clustering>
</event>
<event>
10    2  0.4951045E-006  0.2288103E+03  0.7546771E-02  0.1146681E+00
         21   -1    0    0  503  502  0.00000000000E+00  0.00000000000E+00  0.50029605874E+03  0.50029605874E+03  0.00000000000E+00 0. -1.
         -1   -1    0    0    0  501 -0.00000000000E+00 -0.00000000000E+00 -0.88320773412E+02  0.88320773412E+02  0.00000000000E+00 0.  1.
         23    2    1    2    0    0 -0.45364931009E+02  0.10530922819E+03  0.83980783679E+02  0.16922550582E+03  0.91850363562E+02 0.  0.
         23    2    1    2    0    0  0.67926560977E+02 -0.12479610830E+03  0.15501729506E+03  0.22831082935E+03  0.88923487895E+02 0.  0.
        -11    1    4    4    0    0  0.92984304933E+01 -0.10393396270E+03  0.84583268257E+02  0.13432445303E+03  0.00000000000E+00 0. -1.
         11    1    4    4    0    0  0.58628130484E+02 -0.20862145599E+02  0.70434026802E+02  0.93986376324E+02  0.00000000000E+00 0.  1.
        -13    1    3    3    0    0 -0.62145502052E+02  0.51392188252E+02  0.18458513529E+02  0.82728091725E+02  0.00000000000E+00 0.  1.
         13    1    3    3    0    0  0.16780571044E+02  0.53917039937E+02  0.65522270150E+02  0.86497414098E+02  0.00000000000E+00 0. -1.
         21    1    1    2  503  501  0.24217012013E+02 -0.52820492449E+01  0.83685372518E+02  0.87278893717E+02  0.00000000000E+00 0.  1.
         -1    1    1    2    0  502 -0.46778641982E+02  0.24768929356E+02  0.89291834073E+02  0.10380160326E+03  0.00000000000E+00 0.  1.
<scales pt_clust_5="13000.00000" pt_clust_6="13000.00000" pt_clust_7="13000.00000" pt_clust_8="13000.00000" pt_clust_9="24.78636" pt_clust_10="13000.00000"></scales>
<clustering>
<clus scale="   24.786">  1  9  2 -1</clus>
<clus scale="   88.923">  5  6 -1 -1</clus>
<clus scale="   47.400">  5 10 -1 -1</clus>
<clus scale="   91.850">  7  8 -1 -1</clus>
<clus scale="  143.637">  2  7  1 -1</clus>
<clus scale="   24.786">  1  5  2 -1</clus>
</clustering>
</event>
<event>
10    2  0.4951045E-006  0.8060705E+03  0.7546771E-02  0.1004668E+00
         21   -1    0    0  503  502  0.00000000000E+00  0.00000000000E+00  0.62487781767E+03  0.62487781767E+03  0.00000000000E+00 0. -1.
          2   -1    0    0  502    0 -0.00000000000E+00 -0.00000000000E+00 -0.25816538085E+04  0.25816538085E+04  0.00000000000E+00 0. -1.
         23    2    1    2    0    0  0.97748664462E+02 -0.81413156607E+02 -0.44688324529E+03  0.47405332458E+03  0.94016041992E+02 0.  0.
         23    2    1    2    0    0 -0.61468972384E+01  0.13711572572E+03 -0.20298890809E+03  0.26444899615E+03  0.99449827419E+02 0.  0.
        -11    1    3    3    0    0  0.43761881340E+02 -0.73837635135E+02 -0.36986464687E+03  0.37969323884E+03  0.00000000000E+00 0. -1.
         11    1    3    3    0    0  0.53986783122E+02 -0.75755214717E+01 -0.77018598425E+02  0.94360085740E+02  0.00000000000E+00 0.  1.
        -11    1    4    4    0    0  0.38942068154E+02  0.10764601047E+03 -0.15194183283E+03  0.19023792683E+03  0.00000000000E+00 0. -1.
         11    1    4    4    0    0 -0.45088965392E+02  0.29469715246E+02 -0.51047075266E+02  0.74211069322E+02  0.00000000000E+00 0.  1.
         21    1    1    2  503  501 -0.47019623055E+03  0.28371129046E+03  0.40490982257E+03  0.68229653082E+03  0.00000000000E+00 0. -1.
          2    1    1    2  501    0  0.37859446333E+03 -0.33941385957E+03 -0.17118136600E+04  0.17857327746E+04  0.00000000000E+00 0. -1.
<scales pt_clust_5="13000.00000" pt_clust_6="13000.00000" pt_clust_7="13000.00000" pt_clust_8="13000.00000" pt_clust_9="540.93897" pt_clust_10="13000.00000"></scales>
<clustering>
<clus scale="   94.016">  5  6 -1 -1</clus>
<clus scale="   99.450">  7  8 -1 -1</clus>
<clus scale="  158.183">  2  5  1 -1</clus>
<clus scale="  540.939">  1  9  2 -1</clus>
<clus scale="  284.694">  7 10 -1 -1</clus>
<clus scale="  540.939">  1  5  2 -1</clus>
</clustering>
</event>
<event>
10    2  0.4951045E-006  0.1960012E+03  0.7546771E-02  0.1185885E+00
          1   -1    0    0  503    0 -0.00000000000E+00  0.00000000000E+00  0.11682564920E+03  0.11682564920E+03  0.00000000000E+00 0. -1.
         21   -1    0    0  501  502  0.00000000000E+00 -0.00000000000E+00 -0.43789803376E+03  0.43789803376E+03  0.00000000000E+00 0.  1.
         23    2    1    2    0    0  0.22569047302E+00  0.18268575288E+02  0.29667463244E+02  0.96829820751E+02  0.90344142212E+02 0.  0.
         23    2    1    2    0    0 -0.13280439492E+02 -0.29117197939E+02  0.67421006320E+01  0.96200968462E+02  0.90470929713E+02 0.  0.
        -11    1    3    3    0    0 -0.78221502945E+01 -0.24387893657E+02  0.44173434122E+02  0.51061214972E+02  0.00000000000E+00 0. -1.
         11    1    3    3    0    0  0.80478407675E+01  0.42656468945E+02 -0.14505970877E+02  0.45768605779E+02  0.00000000000E+00 0.  1.
        -13    1    4    4    0    0  0.38665643413E+02 -0.16140133930E+02  0.79412453815E+01  0.42645038187E+02  0.00000000000E+00 0.  1.
         13    1    4    4    0    0 -0.51946082904E+02 -0.12977064008E+02 -0.11991447495E+01  0.53555930274E+02  0.00000000000E+00 0. -1.
         21    1    1    2  503  502  0.33118473607E+02  0.10572781187E+02 -0.21146090948E+03  0.21429963424E+03  0.00000000000E+00 0.  1.
          1    1    1    2  501    0 -0.20063724588E+02  0.27584146374E+00 -0.14602103895E+03  0.14739325951E+03  0.00000000000E+00 0. -1.
<scales pt_clust_5="13000.00000" pt_clust_6="13000.00000" pt_clust_7="13000.00000" pt_clust_8="13000.00000" pt_clust_9="34.76517" pt_clust_10="13000.00000"></scales>
<clustering>
<clus scale="   34.765">  2  9  1 -1</clus>
<clus scale="   90.344">  5  6 -1 -1</clus>
<clus scale="   90.471">  7  8 -1 -1</clus>
<clus scale="    7.330">  7 10 -1 -1</clus>
<clus scale="   92.643">  1  5  2 -1</clus>
<clus scale="   34.765">  2  5  1 -1</clus>
</clustering>
</event>
<event>
10    2  0.4951045E-006  0.1737293E+03  0.7546771E-02  0.1194898E+00
         21   -1    0    0  501  502  0.00000000000E+00  0.00000000000E+00  0.41203988203E+03  0.41203988203E+03  0.00000000000E+00 0.  1.
          1   -1    0    0  503    0 -0.00000000000E+00 -0.00000000000E+00 -0.44040333721E+03  0.44040333721E+03  0.00000000000E+00 0. -1.
         23    2    1    2    0    0  0.30188825190E+00  0.53960584867E+02  0.76818125102E+02  0.13140084337E+03  0.91941946028E+02 0.  0.
         23    2    1    2    0    0 -0.67208619591E+02  0.38370212835E+01 -0.29890974715E+03  0.31930787157E+03  0.89881914900E+02 0.  0.
        -11    1    3    3    0    0 -0.17308370890E+02 -0.17861583456E+02  0.43898545037E+02  0.50454911781E+02  0.00000000000E+00 0. -1.
         11    1    3    3    0    0  0.17610259142E+02  0.71822168324E+02  0.32919580065E+02  0.80945931593E+02  0.00000000000E+00 0.  1.
        -11    1    4    4    0    0 -0.85503654056E+02 -0.12680444157E+02 -0.21129400646E+03  0.22829109857E+03  0.00000000000E+00 0. -1.
         11    1    4    4    0    0  0.18295034464E+02  0.16517465440E+02 -0.87615740693E+02  0.91016773002E+02  0.00000000000E+00 0.  1.
         21    1    1    2  503  502  0.38652554277E+02 -0.66153533539E+01  0.28808075158E+03  0.29073751440E+03  0.00000000000E+00 0.  1.
          1    1    1    2  501    0  0.28254177062E+02 -0.51182252797E+02 -0.94352584714E+02  0.11099698989E+03  0.00000000000E+00 0. -1.
<scales pt_clust_5="13000.00000" pt_clust_6="13000.00000" pt_clust_7="13000.00000" pt_clust_8="13000.00000" pt_clust_9="39.21457" pt_clust_10="13000.00000"></scales>
<clustering>
<clus scale="   39.215">  1  9  2 -1</clus>
<clus scale="   89.882">  7  8 -1 -1</clus>
<clus scale="   60.160">  7 10 -1 -1</clus>
<clus scale="   91.942">  5  6 -1 -1</clus>
<clus scale="  109.029">  2  5  1 -1</clus>
<clus scale="   39.215">  1  5  2 -1</clus>
</clustering>
</event>
<event>
10    2  0.4951045E-006  0.2819604E+03  0.7546771E-02  0.1113073E+00
         21   -1    0    0  501  502  0.00000000000E+00  0.00000000000E+00  0.10740134429E+04  0.10740134429E+04  0.00000000000E+00 0.  1.
          2   -1    0    0  503    0 -0.00000000000E+00 -0.00000000000E+00 -0.73156780633E+02  0.73156780633E+02  0.00000000000E+00 0. -1.
         23    2    1    2    0    0  0.14056703899E+03  0.47026650127E+02  0.17016923094E+03  0.24284351231E+03  0.89692842747E+02 0.  0.
         23    2    1    2    0    0 -0.88748793185E+02  0.41378482042E+02  0.36094292638E+03  0.38481006379E+03  0.90611599799E+02 0.  0.
        -11    1    3    3    0    0  0.83295893473E+02  0.32619460479E+02  0.15944108093E+03  0.18282147948E+03  0.00000000000E+00 0.  1.
         11    1    3    3    0    0  0.57271145518E+02  0.14407189647E+02  0.10728150010E+02  0.60022032831E+02  0.00000000000E+00 0. -1.
        -11    1    4    4    0    0 -0.48909656625E+02 -0.13463651374E+02  0.24760592955E+03  0.25274912615E+03  0.00000000000E+00 0. -1.
         11    1    4    4    0    0 -0.39839136560E+02  0.54842133415E+02  0.11333699683E+03  0.13206093764E+03  0.00000000000E+00 0.  1.
         21    1    1    2  503  502 -0.13239295370E+02  0.63650035425E+02  0.13536408800E+03  0.15016671492E+03  0.00000000000E+00 0.  1.
          2    1    1    2  501    0 -0.38578950436E+02 -0.15205516759E+03  0.33438041694E+03  0.36934993251E+03  0.00000000000E+00 0. -1.
<scales pt_clust_5="13000.00000" pt_clust_6="13000.00000" pt_clust_7="13000.00000" pt_clust_8="13000.00000" pt_clust_9="65.01235" pt_clust_10="13000.00000"></scales>
<clustering>
<clus scale="   65.012">  1  9  2 -1</clus>
<clus scale="   89.693">  5  6 -1 -1</clus>
<clus scale="   90.612">  7  8 -1 -1</clus>
<clus scale="  135.221">  7 10 -1 -1</clus>
<clus scale="  175.287">  2  5  1 -1</clus>
<clus scale="   65.012">  1  5  2 -1</clus>
</clustering>
</event>
<event>
10    2  0.6053061E-006  0.2534858E+03  0.7546771E-02  0.1137032E+00
          2   -1    0    0  502    0 -0.00000000000E+00  0.00000000000E+00  0.45585790112E+03  0.45585790112E+03  0.00000000000E+00 0. -1.
         21   -1    0    0  503  502  0.00000000000E+00 -0.00000000000E+00 -0.12295324663E+04  0.12295324663E+04  0.00000000000E+00 0.  1.
         23    2    1    2    0    0 -0.12659166372E+03  0.13413047250E+02  0.22543764735E+03  0.27351322453E+03  0.88215599481E+02 0.  0.
         23    2    1    2    0    0  0.72562897582E+02  0.26254172147E+02  0.63679902909E+02  0.13451942920E+03  0.89920471180E+02 0.  0.
        -11    1    4    4    0    0  0.62995197362E+02 -0.14517787973E+02  0.66245403465E+02  0.92561409554E+02  0.00000000000E+00 0. -1.
         11    1    4    4    0    0  0.95677002202E+01  0.40771960121E+02 -0.25655005558E+01  0.41958019647E+02  0.00000000000E+00 0.  1.
        -13    1    3    3    0    0 -0.65986497978E+02 -0.63627066816E+01  0.18854040636E+03  0.19985541469E+03  0.00000000000E+00 0. -1.
         13    1    3    3    0    0 -0.60605165739E+02  0.19775753931E+02  0.36897240995E+02  0.73657809843E+02  0.00000000000E+00 0.  1.
         21    1    1    2  503  501  0.12749880461E+03  0.63880394079E+02 -0.11263719224E+04  0.11353635354E+04  0.00000000000E+00 0.  1.
          2    1    1    2  501    0 -0.73470038471E+02 -0.10354761348E+03  0.63579806968E+02  0.14199417827E+03  0.00000000000E+00 0. -1.
<scales pt_clust_5="13000.00000" pt_clust_6="13000.00000" pt_clust_7="13000.00000" pt_clust_8="13000.00000" pt_clust_9="142.60663" pt_clust_10="13000.00000"></scales>
<clustering>
<clus scale="   88.216">  7  8 -1 -1</clus>
<clus scale="   89.920">  5  6 -1 -1</clus>
<clus scale="  126.964">  5 10 -1 -1</clus>
<clus scale="  142.607">  2  9  1 -1</clus>
<clus scale="  133.219">  1  7  2 -1</clus>
<clus scale="  142.607">  2  5  1 -1</clus>
</clustering>
</event>
<event>
10    2  0.4951045E-006  0.1290385E+03  0.7546771E-02  0.1243523E+00
         21   -1    0    0  501  502  0.00000000000E+00  0.00000000000E+00  0.12249009993E+03  0.12249009993E+03  0.00000000000E+00 0. -1.
         -1   -1    0    0    0  501 -0.00000000000E+00 -0.00000000000E+00 -0.39669586309E+03  0.39669586309E+03  0.00000000000E+00 0.  1.
         23    2    1    2    0    0 -0.22641933813E+02 -0.91896858903E+01  0.30216483148E+02  0.98695738782E+02  0.90723235758E+02 0.  0.
         23    2    1    2    0    0  0.18217935419E+02  0.11837272681E+02 -0.29758949170E+03  0.31509584428E+03  0.10126140094E+03 0.  0.
        -11    1    4    4    0    0  0.59213696981E+02 -0.45871011430E+01 -0.16837116141E+03  0.17853893526E+03  0.00000000000E+00 0.  1.
         11    1    4    4    0    0 -0.40995761562E+02  0.16424373824E+02 -0.12921833029E+03  0.13655690903E+03  0.00000000000E+00 0. -1.
        -11    1    3    3    0    0  0.24800692590E+02  0.23508162376E+02  0.12239568455E+01  0.34193656160E+02  0.00000000000E+00 0.  1.
         11    1    3    3    0    0 -0.47442626403E+02 -0.32697848266E+02  0.28992526303E+02  0.64502082622E+02  0.00000000000E+00 0. -1.
         21    1    1    2  503  502 -0.82663742320E+01  0.18831085997E+02  0.44111310814E+02  0.48669810813E+02  0.00000000000E+00 0. -1.
         -1    1    1    2    0  503  0.12690372626E+02 -0.21478672788E+02 -0.50944065429E+02  0.56724569144E+02  0.00000000000E+00 0.  1.
<scales pt_clust_5="13000.00000" pt_clust_6="13000.00000" pt_clust_7="13000.00000" pt_clust_8="13000.00000" pt_clust_9="20.56557" pt_clust_10="13000.00000"></scales>
<clustering>
<clus scale="   20.566">  1  9  2 -1</clus>
<clus scale="   90.723">  7  8 -1 -1</clus>
<clus scale="   95.683">  2  7  1 -1</clus>
<clus scale="  101.261">  5  6 -1 -1</clus>
<clus scale="   21.431">  5 10 -1 -1</clus>
<clus scale="   20.566">  1  5  2 -1</clus>
</clustering>
</event>
<event>
10    2  0.4951045E-006  0.2630640E+03  0.7546771E-02  0.1141481E+00
         -2   -1    0    0    0  501 -0.00000000000E+00  0.00000000000E+00  0.35909168673E+03  0.35909168673E+03  0.00000000000E+00 0.  1.
         21   -1    0    0  503  502  0.00000000000E+00 -0.00000000000E+00 -0.32490819445E+03  0.32490819445E+03  0.00000000000E+00 0.  1.
         23    2    1    2    0    0 -0.39950370302E+02 -0.40252028349E+02  0.14846274486E+03  0.18303160369E+03  0.90791648650E+02 0.  0.
         23    2    1    2    0    0  0.72117492714E+02 -0.21318181256E+02  0.57939432646E+02  0.13109246846E+03  0.90403870632E+02 0.  0.
        -11    1    4    4    0    0  0.74500720635E+02 -0.49063039707E+02  0.38655781408E+02  0.97220412860E+02  0.00000000000E+00 0.  1.
         11    1    4    4    0    0 -0.23832279206E+01  0.27744858451E+02  0.19283651238E+02  0.33872055604E+02  0.00000000000E+00 0. -1.
        -13    1    3    3    0    0 -0.41067530382E+02 -0.67765257565E+02  0.10425632367E+03  0.13095057544E+03  0.00000000000E+00 0.  1.
         13    1    3    3    0    0  0.11171600807E+01  0.27513229216E+02  0.44206421192E+02  0.52081028246E+02  0.00000000000E+00 0. -1.
         21    1    1    2  503  501 -0.12310287599E+03  0.15191061778E+03 -0.13049169916E+03  0.23507283429E+03  0.00000000000E+00 0.  1.
         -2    1    1    2    0  502  0.90935753581E+02 -0.90340408179E+02 -0.41726986064E+02  0.13480297473E+03  0.00000000000E+00 0.  1.
<scales pt_clust_5="13000.00000" pt_clust_6="13000.00000" pt_clust_7="13000.00000" pt_clust_8="13000.00000" pt_clust_9="194.47134" pt_clust_10="13000.00000"></scales>
<clustering>
<clus scale="   90.404">  5  6 -1 -1</clus>
<clus scale="   90.792">  7  8 -1 -1</clus>
<clus scale="  107.048">  1  7  2 -1</clus>
<clus scale="  128.914">  5 10 -1 -1</clus>
<clus scale="  194.471">  2  9  1 -1</clus>
<clus scale="  194.471">  2  5  1 -1</clus>
</clustering>
</event>
<event>
10    2  0.4951045E-006  0.3230690E+03  0.7546771E-02  0.1091733E+00
          1   -1    0    0  503    0 -0.00000000000E+00  0.00000000000E+00  0.14030805025E+04  0.14030805025E+04  0.00000000000E+00 0. -1.
         21   -1    0    0  501  502  0.00000000000E+00 -0.00000000000E+00 -0.27824718399E+03  0.27824718399E+03  0.00000000000E+00 0. -1.
         23    2    1    2    0    0 -0.19738928739E+03  0.24678055639E+01  0.62011641522E+03  0.65710983627E+03  0.90996415670E+02 0.  0.
         23    2    1    2    0    0  0.10215392765E+03  0.30046884522E+02  0.68043886248E+03  0.69476517671E+03  0.91451435117E+02 0.  0.
        -11    1    4    4    0    0  0.58845113520E+01  0.42651466525E+02  0.19167245062E+03  0.19644872969E+03  0.00000000000E+00 0.  1.
         11    1    4    4    0    0  0.96269416299E+02 -0.12604582003E+02  0.48876641186E+03  0.49831644702E+03  0.00000000000E+00 0. -1.
        -11    1    3    3    0    0 -0.96590807923E+02 -0.36743886583E+02  0.37918485182E+03  0.39301532950E+03  0.00000000000E+00 0. -1.
         11    1    3    3    0    0 -0.10079847947E+03  0.39211692147E+02  0.24093156340E+03  0.26409450677E+03  0.00000000000E+00 0.  1.
         21    1    1    2  503  502  0.47306497544E+02  0.36781859103E+02 -0.22431956664E+03  0.23218543849E+03  0.00000000000E+00 0. -1.
          1    1    1    2  501    0  0.47928862198E+02 -0.69296549189E+02  0.48597607475E+02  0.97267235046E+02  0.00000000000E+00 0. -1.
<scales pt_clust_5="13000.00000" pt_clust_6="13000.00000" pt_clust_7="13000.00000" pt_clust_8="13000.00000" pt_clust_9="59.92337" pt_clust_10="13000.00000"></scales>
<clustering>
<clus scale="   59.923">  2  9  1 -1</clus>
<clus scale="   90.996">  7  8 -1 -1</clus>
<clus scale="   91.451">  5  6 -1 -1</clus>
<clus scale="   87.612">  5 10 -1 -1</clus>
<clus scale="  202.233">  1  7  2 -1</clus>
<clus scale="   59.923">  2  5  1 -1</clus>
</clustering>
</event>
<event>
10    2  0.4951045E-006  0.2003733E+03  0.7546771E-02  0.1174433E+00
         -1   -1    0    0    0  501 -0.00000000000E+00  0.00000000000E+00  0.43666827024E+03  0.43666827024E+03  0.00000000000E+00 0.  1.
         21   -1    0    0  501  502  0.00000000000E+00 -0.00000000000E+00 -0.79699189677E+02  0.79699189677E+02  0.00000000000E+00 0.  1.
         23    2    1    2    0    0  0.19707349680E+02  0.64667276141E+02  0.92018767516E+02  0.14970327179E+03  0.96816216482E+02 0.  0.
         23    2    1    2    0    0  0.22464090987E+02  0.36534877158E+02  0.20113540165E+03  0.22490936108E+03  0.91045803163E+02 0.  0.
        -11    1    3    3    0    0 -0.34223958493E+02  0.48559733528E+02  0.32224472678E+02  0.67585084853E+02  0.00000000000E+00 0.  1.
         11    1    3    3    0    0  0.53931308173E+02  0.16107542613E+02  0.59794294838E+02  0.82118186935E+02  0.00000000000E+00 0. -1.
        -11    1    4    4    0    0  0.44275209296E+02  0.55470847443E+02  0.15502117795E+03  0.17049596678E+03  0.00000000000E+00 0.  1.
         11    1    4    4    0    0 -0.21811118309E+02 -0.18935970285E+02  0.46114223696E+02  0.54413394303E+02  0.00000000000E+00 0. -1.
         21    1    1    2  503  502 -0.69898811625E+01 -0.21879672059E+02 -0.12540580721E+02  0.26169536735E+02  0.00000000000E+00 0. -1.
         -1    1    1    2    0  503 -0.35181559504E+02 -0.79322481239E+02  0.76355492116E+02  0.11558529031E+03  0.00000000000E+00 0.  1.
<scales pt_clust_5="13000.00000" pt_clust_6="13000.00000" pt_clust_7="13000.00000" pt_clust_8="13000.00000" pt_clust_9="22.96908" pt_clust_10="13000.00000"></scales>
<clustering>
<clus scale="   22.969">  2  9  1 -1</clus>
<clus scale="   91.046">  7  8 -1 -1</clus>
<clus scale="   94.200">  7 10 -1 -1</clus>
<clus scale="   96.816">  5  6 -1 -1</clus>
<clus scale="  112.160">  1  5  2 -1</clus>
<clus scale="   22.969">  2  5  1 -1</clus>
</clustering>
</event>
<event>
10    2  0.4951045E-006  0.3420550E+03  0.7546771E-02  0.1097709E+00
         21   -1    0    0  503  502  0.00000000000E+00  0.00000000000E+00  0.12241690917E+03  0.12241690917E+03  0.00000000000E+00 0. -1.
          1   -1    0    0  502    0 -0.00000000000E+00 -0.00000000000E+00 -0.67537889064E+03  0.67537889064E+03  0.00000000000E+00 0. -1.
         23    2    1    2    0    0 -0.19247884977E+02 -0.11880797645E+03 -0.94270109388E+02  0.17776392551E+03  0.90704704097E+02 0.  0.
         23    2    1    2    0    0 -0.81182918272E+02 -0.19020950805E+02 -0.35260126056E+03  0.37395258999E+03  0.92522580088E+02 0.  0.
        -11    1    4    4    0    0 -0.74022455512E+02  0.23246637595E+02 -0.26948775380E+03  0.28043426953E+03  0.00000000000E+00 0.  1.
         11    1    4    4    0    0 -0.71604627599E+01 -0.42267588401E+02 -0.83113506759E+02  0.93518320461E+02  0.00000000000E+00 0. -1.
        -11    1    3    3    0    0  0.12524728746E+02 -0.37793976624E+02  0.10879669136E+02  0.41274940336E+02  0.00000000000E+00 0. -1.
         11    1    3    3    0    0 -0.31772613723E+02 -0.81013999821E+02 -0.10514977852E+03  0.13648898517E+03  0.00000000000E+00 0.  1.
         21    1    1    2  503  501 -0.23598690473E+02  0.19988402853E+02  0.17024073889E+02  0.35302316247E+02  0.00000000000E+00 0. -1.
          1    1    1    2  501    0  0.12402949372E+03  0.11784052440E+03 -0.12311468541E+03  0.21077696807E+03  0.00000000000E+00 0. -1.
<scales pt_clust_5="13000.00000" pt_clust_6="13000.00000" pt_clust_7="13000.00000" pt_clust_8="13000.00000" pt_clust_9="30.92627" pt_clust_10="13000.00000"></scales>
<clustering>
<clus scale="   30.926">  1  9  2 -1</clus>
<clus scale="   90.705">  7  8 -1 -1</clus>
<clus scale="   92.523">  5  6 -1 -1</clus>
<clus scale="  145.695">  2  7  1 -1</clus>
<clus scale="  139.399">  5 10 -1 -1</clus>
<clus scale="   30.926">  1  5  2 -1</clus>
</clustering>
</event>
<event>
10    2  0.4951045E-006  0.6066970E+03  0.7546771E-02  0.1049522E+00
         21   -1    0    0  501  502  0.00000000000E+00  0.00000000000E+00  0.41251395563E+03  0.41251395563E+03  0.00000000000E+00 0.  1.
         -3   -1    0    0    0  501 -0.00000000000E+00 -0.00000000000E+00 -0.36650394577E+03  0.36650394577E+03  0.00000000000E+00 0.  1.
         23    2    1    2    0    0  0.26733261001E+02 -0.85058700336E+01  0.70562438597E+02  0.11864708226E+03  0.91164989544E+02 0.  0.
         23    2    1    2    0    0 -0.59086872492E+02  0.15546433153E+03 -0.29311027921E+03  0.34871825678E+03  0.89612331462E+02 0.  0.
        -13    1    3    3    0    0  0.15219378369E+02 -0.49482442149E+02  0.29910919861E+02  0.59789670395E+02  0.00000000000E+00 0. -1.
         13    1    3    3    0    0  0.11513882632E+02  0.40976572115E+02  0.40651518736E+02  0.58857411863E+02  0.00000000000E+00 0.  1.
        -13    1    4    4    0    0 -0.75382644730E+02  0.10663724545E+03 -0.16344081150E+03  0.20920550688E+03  0.00000000000E+00 0.  1.
         13    1    4    4    0    0  0.16295772238E+02  0.48827086080E+02 -0.12966946771E+03  0.13951274990E+03  0.00000000000E+00 0. -1.
         21    1    1    2  503  502  0.19069767313E+02 -0.12315496830E+02  0.43161192652E+02  0.48766956423E+02  0.00000000000E+00 0.  1.
         -3    1    1    2    0  503  0.13283844178E+02 -0.13464296467E+03  0.22539665783E+03  0.26288560594E+03  0.00000000000E+00 0.  1.
<scales pt_clust_5="13000.00000" pt_clust_6="13000.00000" pt_clust_7="13000.00000" pt_clust_8="13000.00000" pt_clust_9="22.70083" pt_clust_10="13000.00000"></scales>
<clustering>
<clus scale="   22.701">  1  9  2 -1</clus>
<clus scale="   89.612">  7  8 -1 -1</clus>
<clus scale="   91.165">  5  6 -1 -1</clus>
<clus scale="   97.209">  2  5  1 -1</clus>
<clus scale="  146.399">  7 10 -1 -1</clus>
<clus scale="   22.701">  1  5  2 -1</clus>
</clustering>
</event>
<event>
10    2  0.4951045E-006  0.6202682E+03  0.7546771E-02  0.1004705E+00
         21   -1    0    0  501  502  0.00000000000E+00  0.00000000000E+00  0.20397901793E+03  0.20397901793E+03  0.00000000000E+00 0. -1.
          3   -1    0    0  503    0 -0.00000000000E+00 -0.00000000000E+00 -0.14216135233E+04  0.14216135233E+04  0.00000000000E+00 0. -1.
         23    2    1    2    0    0  0.27814500712E+03  0.15386849511E+03 -0.16665067301E+03  0.36944332694E+03  0.87611450341E+02 0.  0.
         23    2    1    2    0    0 -0.87780880792E+02 -0.30088502928E+03 -0.58908348181E+03  0.67343757042E+03  0.90892952603E+02 0.  0.
        -13    1    4    4    0    0  0.14061680732E+02 -0.33485563409E+02 -0.10508732032E+03  0.11118614444E+03  0.00000000000E+00 0.  1.
         13    1    4    4    0    0 -0.10184256152E+03 -0.26739946587E+03 -0.48399616149E+03  0.56225142599E+03  0.00000000000E+00 0. -1.
        -13    1    3    3    0    0  0.83454626872E+02  0.90738676299E+02 -0.44343065930E+02  0.13101331848E+03  0.00000000000E+00 0.  1.
         13    1    3    3    0    0  0.19469038025E+03  0.63129818816E+02 -0.12230760708E+03  0.23843000846E+03  0.00000000000E+00 0. -1.
         21    1    1    2  503  502  0.49869880728E+02 -0.21839510380E+02 -0.12162629011E+03  0.13325510746E+03  0.00000000000E+00 0. -1.
          3    1    1    2  501    0 -0.24023400706E+03  0.16885604455E+03 -0.34027406046E+03  0.44945653644E+03  0.00000000000E+00 0. -1.
<scales pt_clust_5="13000.00000" pt_clust_6="13000.00000" pt_clust_7="13000.00000" pt_clust_8="13000.00000" pt_clust_9="54.44237" pt_clust_10="13000.00000"></scales>
<clustering>
<clus scale="   54.442">  1  9  2 -1</clus>
<clus scale="   87.611">  7  8 -1 -1</clus>
<clus scale="   90.893">  5  6 -1 -1</clus>
<clus scale="  278.957">  5 10 -1 -1</clus>
<clus scale="  346.768">  2  7  1 -1</clus>
<clus scale="   54.442">  1  5  2 -1</clus>
</clustering>
</event>
<event>
10    2  0.4951045E-006  0.2325367E+03  0.7546771E-02  0.1160943E+00
         21   -1    0    0  503  502  0.00000000000E+00  0.00000000000E+00  0.21314700460E+03  0.21314700460E+03  0.00000000000E+00 0.  1.
          2   -1    0    0  502    0 -0.00000000000E+00 -0.00000000000E+00 -0.41766615695E+03  0.41766615695E+03  0.00000000000E+00 0. -1.
         23    2    1    2    0    0  0.58122843395E+01  0.21090704067E+02 -0.93165739768E+02  0.13149177827E+03  0.90175563423E+02 0.  0.
         23    2    1    2    0    0 -0.31209601524E+02 -0.31113315696E+02 -0.26514404119E+03  0.28384263051E+03  0.91231566215E+02 0.  0.
        -11    1    4    4    0    0  0.17382599300E+02  0.22594112578E+02 -0.86439196024E+02  0.91018587612E+02  0.00000000000E+00 0. -1.
         11    1    4    4    0    0 -0.48592200824E+02 -0.53707428275E+02 -0.17870484517E+03  0.19282404290E+03  0.00000000000E+00 0.  1.
        -11    1    3    3    0    0  0.37389076531E+01 -0.35237331615E+02 -0.26855755031E+02  0.44462124872E+02  0.00000000000E+00 0. -1.
         11    1    3    3    0    0  0.20733766864E+01  0.56328035683E+02 -0.66309984737E+02  0.87029653398E+02  0.00000000000E+00 0.  1.
         21    1    1    2  503  501 -0.12177516181E+02  0.60071690984E+02  0.13790063794E+03  0.15090886621E+03  0.00000000000E+00 0.  1.
          2    1    1    2  501    0  0.37574833365E+02 -0.50049079355E+02  0.15889990678E+02  0.64569886560E+02  0.00000000000E+00 0. -1.
<scales pt_clust_5="13000.00000" pt_clust_6="13000.00000" pt_clust_7="13000.00000" pt_clust_8="13000.00000" pt_clust_9="61.29356" pt_clust_10="13000.00000"></scales>
<clustering>
<clus scale="   61.294">  1  9  2 -1</clus>
<clus scale="   90.176">  7  8 -1 -1</clus>
<clus scale="   91.232">  5  6 -1 -1</clus>
<clus scale="   33.896">  5 10 -1 -1</clus>
<clus scale="   97.822">  2  7  1 -1</clus>
<clus scale="   61.294">  1  5  2 -1</clus>
</clustering>
</event>
<event>
10    2  0.4951045E-006  0.2905599E+03  0.7546771E-02  0.1125944E+00
         21   -1    0    0  501  502  0.00000000000E+00  0.00000000000E+00  0.15267221440E+03  0.15267221440E+03  0.00000000000E+00 0. -1.
          2   -1    0    0  503    0 -0.00000000000E+00 -0.00000000000E+00 -0.50708930698E+03  0.50708930698E+03  0.00000000000E+00 0. -1.
         23    2    1    2    0    0 -0.74194158047E+02  0.10572214343E+02 -0.32175443493E+03  0.34247740334E+03  0.90267993225E+02 0.  0.
         23    2    1    2    0    0  0.69014881045E+01 -0.36149463398E+02 -0.12559150794E+03  0.16867873416E+03  0.10641839243E+03 0.  0.
        -11    1    4    4    0    0 -0.34813114629E+02  0.19561613353E+02 -0.65578686419E+02  0.76780035032E+02  0.00000000000E+00 0.  1.
         11    1    4    4    0    0  0.41714602733E+02 -0.55711076751E+02 -0.60012821519E+02  0.91898699124E+02  0.00000000000E+00 0. -1.
        -13    1    3    3    0    0 -0.17354956894E+02  0.32222807550E+02 -0.39935345788E+02  0.54169508936E+02  0.00000000000E+00 0.  1.
         13    1    3    3    0    0 -0.56839201153E+02 -0.21650593207E+02 -0.28181908914E+03  0.28830789441E+03  0.00000000000E+00 0. -1.
         21    1    1    2  503  502  0.28035551695E+02 -0.24782791920E+00 -0.14343406072E+02  0.31492647956E+02  0.00000000000E+00 0.  1.
          2    1    1    2  501    0  0.39257118248E+02  0.25825076974E+02  0.10727225635E+03  0.11711273593E+03  0.00000000000E+00 0. -1.
<scales pt_clust_5="13000.00000" pt_clust_6="13000.00000" pt_clust_7="13000.00000" pt_clust_8="13000.00000" pt_clust_9="28.03665" pt_clust_10="13000.00000"></scales>
<clustering>
<clus scale="   28.037">  1  9  2 -1</clus>
<clus scale="   90.268">  7  8 -1 -1</clus>
<clus scale="  106.418">  5  6 -1 -1</clus>
<clus scale="   66.245">  5 10 -1 -1</clus>
<clus scale="  116.058">  2  7  1 -1</clus>
<clus scale="   28.037">  1  5  2 -1</clus>
</clustering>
</event>
<event>
10    2  0.4951045E-006  0.1351448E+03  0.7546771E-02  0.1229494E+00
         21   -1    0    0  503  502  0.00000000000E+00  0.00000000000E+00  0.12640906645E+03  0.12640906645E+03  0.00000000000E+00 0.  1.
          1   -1    0    0  502    0 -0.00000000000E+00 -0.00000000000E+00 -0.48713049218E+03  0.48713049218E+03  0.00000000000E+00 0. -1.
         23    2    1    2    0    0  0.45600844874E+02  0.15292785622E+02 -0.28441115388E+03  0.30597704760E+03  0.10207322303E+03 0.  0.
         23    2    1    2    0    0 -0.34447007847E+02 -0.55008164196E+02 -0.12999743190E+03  0.17071596135E+03  0.89622054647E+02 0.  0.
        -13    1    4    4    0    0 -0.29302907659E+02 -0.29939821302E+02 -0.13774773301E+03  0.14397739838E+03  0.00000000000E+00 0. -1.
         13    1    4    4    0    0 -0.51441001876E+01 -0.25068342894E+02  0.77503011016E+01  0.26738562964E+02  0.00000000000E+00 0.  1.
        -13    1    3    3    0    0  0.35797094831E+02  0.48813642290E+02 -0.90059441874E+02  0.10851224236E+03  0.00000000000E+00 0. -1.
         13    1    3    3    0    0  0.98037500433E+01 -0.33520856668E+02 -0.19435171201E+03  0.19746480524E+03  0.00000000000E+00 0.  1.
         21    1    1    2  503  501 -0.39702753320E+02  0.40021829992E+02  0.80101917946E+02  0.97950869091E+02  0.00000000000E+00 0.  1.
          1    1    1    2  501    0  0.28548916292E+02 -0.30645141802E+00 -0.26414757894E+02  0.38895680590E+02  0.00000000000E+00 0. -1.
<scales pt_clust_5="13000.00000" pt_clust_6="13000.00000" pt_clust_7="13000.00000" pt_clust_8="13000.00000" pt_clust_9="56.37424" pt_clust_10="13000.00000"></scales>
<clustering>
<clus scale="   56.374">  1  9  2 -1</clus>
<clus scale="   89.622">  5  6 -1 -1</clus>
<clus scale="   22.829">  5 10 -1 -1</clus>
<clus scale="  102.073">  7  8 -1 -1</clus>
<clus scale="  110.929">  2  7  1 -1</clus>
<clus scale="   56.374">  1  5  2 -1</clus>
</clustering>
</event>
<event>
10    2  0.4951045E-006  0.2450851E+03  0.7546771E-02  0.1152836E+00
         21   -1    0    0  501  502  0.00000000000E+00  0.00000000000E+00  0.99992036409E+02  0.99992036409E+02  0.00000000000E+00 0.  1.
          1   -1    0    0  503    0 -0.00000000000E+00 -0.00000000000E+00 -0.71000851156E+03  0.71000851156E+03  0.00000000000E+00 0. -1.
         23    2    1    2    0    0  0.42715004896E+02  0.29739297934E+02 -0.29526245449E+03  0.31120801751E+03  0.83435697649E+02 0.  0.
         23    2    1    2    0    0 -0.66862821621E+02  0.21930821746E+02 -0.36222784802E+03  0.38209701280E+03  0.99184250013E+02 0.  0.
        -11    1    3    3    0    0 -0.24756783919E+02  0.15991044552E+02 -0.86654525374E+02  0.91529332040E+02  0.00000000000E+00 0.  1.
         11    1    3    3    0    0  0.67471788815E+02  0.13748253382E+02 -0.20860792912E+03  0.21967868547E+03  0.00000000000E+00 0. -1.
        -13    1    4    4    0    0 -0.80886585162E+02 -0.14327167125E+02 -0.22768763715E+03  0.24205281962E+03  0.00000000000E+00 0.  1.
         13    1    4    4    0    0  0.14023763541E+02  0.36257988871E+02 -0.13454021087E+03  0.14004419318E+03  0.00000000000E+00 0. -1.
         21    1    1    2  503  502  0.57967332566E+02 -0.37288564216E+02  0.23518377205E+02  0.72826936861E+02  0.00000000000E+00 0.  1.
          1    1    1    2  501    0 -0.33819515841E+02 -0.14381555464E+02  0.23955450158E+02  0.43868580802E+02  0.00000000000E+00 0. -1.
<scales pt_clust_5="13000.00000" pt_clust_6="13000.00000" pt_clust_7="13000.00000" pt_clust_8="13000.00000" pt_clust_9="68.92495" pt_clust_10="13000.00000"></scales>
<clustering>
<clus scale="   68.925">  1  9  2 -1</clus>
<clus scale="   83.436">  5  6 -1 -1</clus>
<clus scale="   99.184">  7  8 -1 -1</clus>
<clus scale="   39.002">  7 10 -1 -1</clus>
<clus scale="  101.013">  2  5  1 -1</clus>
<clus scale="   68.925">  1  5  2 -1</clus>
</clustering>
</event>
<event>
10    2  0.4951045E-006  0.1781463E+03  0.7546771E-02  0.1188160E+00
          4   -1    0    0  503    0 -0.00000000000E+00  0.00000000000E+00  0.39980439753E+03  0.39980439753E+03  0.00000000000E+00 0. -1.
         21   -1    0    0  501  502  0.00000000000E+00 -0.00000000000E+00 -0.26427831215E+03  0.26427831215E+03  0.00000000000E+00 0. -1.
         23    2    1    2    0    0  0.48734983554E+02  0.56520788467E+02  0.86985954783E+02  0.14729057680E+03  0.92510861712E+02 0.  0.
         23    2    1    2    0    0 -0.47949497174E+02 -0.77172527991E+02  0.25268005512E+03  0.28477778226E+03  0.94849468407E+02 0.  0.
        -11    1    3    3    0    0  0.55992579289E+02 -0.55919887572E+01  0.38972707228E+02  0.68449332958E+02  0.00000000000E+00 0. -1.
         11    1    3    3    0    0 -0.72575957350E+01  0.62112777224E+02  0.48013247555E+02  0.78841243846E+02  0.00000000000E+00 0.  1.
        -11    1    4    4    0    0 -0.33193551977E+02  0.14668572425E+02  0.95134200632E+02  0.10182089687E+03  0.00000000000E+00 0.  1.
         11    1    4    4    0    0 -0.14755945197E+02 -0.91841100416E+02  0.15754585449E+03  0.18295688539E+03  0.00000000000E+00 0. -1.
         21    1    1    2  503  502 -0.24133659675E+02  0.11271474099E+02 -0.20511133168E+03  0.20683359988E+03  0.00000000000E+00 0. -1.
          4    1    1    2  501    0  0.23348173295E+02  0.93802654245E+01  0.97140715004E+00  0.25180750733E+02  0.00000000000E+00 0. -1.
<scales pt_clust_5="13000.00000" pt_clust_6="13000.00000" pt_clust_7="13000.00000" pt_clust_8="13000.00000" pt_clust_9="26.63606" pt_clust_10="13000.00000"></scales>
<clustering>
<clus scale="   26.636">  2  9  1 -1</clus>
<clus scale="   92.511">  5  6 -1 -1</clus>
<clus scale="   94.849">  7  8 -1 -1</clus>
<clus scale="   21.763">  7 10 -1 -1</clus>
<clus scale="  117.304">  1  5  2 -1</clus>
<clus scale="   26.636">  2  5  1 -1</clus>
</clustering>
</event>
<event>
10    2  0.4951045E-006  0.5922574E+03  0.7546771E-02  0.1050536E+00
         21   -1    0    0  501  502  0.00000000000E+00  0.00000000000E+00  0.51638753190E+03  0.51638753190E+03  0.00000000000E+00 0. -1.
          1   -1    0    0  503    0 -0.00000000000E+00 -0.00000000000E+00 -0.35599119185E+03  0.35599119185E+03  0.00000000000E+00 0. -1.
         23    2    1    2    0    0 -0.39822183082E+02  0.11184614778E+02 -0.14191592041E+03  0.17461084221E+03  0.92940388850E+02 0.  0.
         23    2    1    2    0    0 -0.72847173288E+01  0.18144348583E+03 -0.99982875274E+02  0.22713519895E+03  0.92838664327E+02 0.  0.
        -13    1    3    3    0    0 -0.57649776696E+02  0.38050733549E+02 -0.89235825799E+02  0.11284674423E+03  0.00000000000E+00 0.  1.
         13    1    3    3    0    0  0.17827593614E+02 -0.26866118771E+02 -0.52680094607E+02  0.61764097984E+02  0.00000000000E+00 0. -1.
        -13    1    4    4    0    0 -0.31566377972E+02  0.19444833141E+02 -0.40307376775E+01  0.37293224591E+02  0.00000000000E+00 0.  1.
         13    1    4    4    0    0  0.24281660643E+02  0.16199865269E+03 -0.95952137597E+02  0.18984197436E+03  0.00000000000E+00 0. -1.
         21    1    1    2  503  502  0.90343363214E+01 -0.29709405326E+02 -0.39321697866E+01  0.31300638281E+02  0.00000000000E+00 0.  1.
          1    1    1    2  501    0  0.38072564090E+02 -0.16291869528E+03  0.40622730552E+03  0.43933204431E+03  0.00000000000E+00 0. -1.
<scales pt_clust_5="13000.00000" pt_clust_6="13000.00000" pt_clust_7="13000.00000" pt_clust_8="13000.00000" pt_clust_9="31.05268" pt_clust_10="13000.00000"></scales>
<clustering>
<clus scale="   31.053">  1  9  2 -1</clus>
<clus scale="   92.839">  7  8 -1 -1</clus>
<clus scale="   92.940">  5  6 -1 -1</clus>
<clus scale="  101.513">  2  5  1 -1</clus>
<clus scale="  189.889">  7 10 -1 -1</clus>
<clus scale="   31.053">  1  5  2 -1</clus>
</clustering>
</event>
<event>
10    2  0.4951045E-006  0.1943579E+03  0.7546771E-02  0.1183615E+00
         21   -1    0    0  501  502  0.00000000000E+00  0.00000000000E+00  0.28141054406E+03  0.28141054406E+03  0.00000000000E+00 0. -1.
         -1   -1    0    0    0  501 -0.00000000000E+00 -0.00000000000E+00 -0.27103668779E+03  0.27103668779E+03  0.00000000000E+00 0.  1.
         23    2    1    2    0    0 -0.80635549148E+02 -0.12604234630E+02 -0.16688454713E+02  0.12310609948E+03  0.90640215636E+02 0.  0.
         23    2    1    2    0    0  0.39870875950E+02  0.52849567694E+02 -0.39066960421E+02  0.12560017769E+03  0.99329822733E+02 0.  0.
        -11    1    3    3    0    0 -0.57180137847E+02 -0.23350808707E+02 -0.51054235341E+02  0.80133409872E+02  0.00000000000E+00 0.  1.
         11    1    3    3    0    0 -0.23455411301E+02  0.10746574078E+02  0.34365780628E+02  0.42972689604E+02  0.00000000000E+00 0. -1.
        -11    1    4    4    0    0  0.23740289460E+02  0.82311190167E+02 -0.30527859224E+02  0.90943298595E+02  0.00000000000E+00 0.  1.
         11    1    4    4    0    0  0.16130586489E+02 -0.29461622473E+02 -0.85391011970E+01  0.34656879093E+02  0.00000000000E+00 0. -1.
         21    1    1    2  503  502  0.10085503374E+03 -0.34149046627E+02  0.15995545248E+03  0.19215525492E+03  0.00000000000E+00 0. -1.
         -1    1    1    2    0  503 -0.60090360539E+02 -0.60962864373E+01 -0.93826181075E+02  0.11158569977E+03  0.00000000000E+00 0.  1.
<scales pt_clust_5="13000.00000" pt_clust_6="13000.00000" pt_clust_7="13000.00000" pt_clust_8="13000.00000" pt_clust_9="106.47955" pt_clust_10="13000.00000"></scales>
<clustering>
<clus scale="   90.640">  5  6 -1 -1</clus>
<clus scale="   99.330">  7  8 -1 -1</clus>
<clus scale="   60.399">  7 10 -1 -1</clus>
<clus scale="  106.480">  1  9  2 -1</clus>
<clus scale="   99.944">  2  5  1 -1</clus>
<clus scale="  106.480">  1  5  2 -1</clus>
</clustering>
</event>
<event>
10    2  0.4951045E-006  0.4606084E+03  0.7546771E-02  0.1056138E+00
         21   -1    0    0  501  502  0.00000000000E+00  0.00000000000E+00  0.18795726504E+03  0.18795726504E+03  0.00000000000E+00 0. -1.
          2   -1    0    0  503    0 -0.00000000000E+00 -0.00000000000E+00 -0.81292506182E+03  0.81292506182E+03  0.00000000000E+00 0. -1.
         23    2    1    2    0    0  0.11501172681E+03  0.11524368591E+03 -0.11093049288E+03  0.21618130336E+03  0.88994253898E+02 0.  0.
         23    2    1    2    0    0  0.55570780028E+02 -0.20023609750E+03 -0.35652660068E+03  0.42274998950E+03  0.91780881961E+02 0.  0.
        -13    1    3    3    0    0 -0.87401554379E+01  0.37829608506E+02 -0.31509623452E+02  0.50003259562E+02  0.00000000000E+00 0.  1.
         13    1    3    3    0    0  0.12375188225E+03  0.77414077402E+02 -0.79420869426E+02  0.16617804380E+03  0.00000000000E+00 0. -1.
        -13    1    4    4    0    0 -0.16534123744E+02 -0.14294039822E+02 -0.12722448499E+02  0.25289474455E+02  0.00000000000E+00 0.  1.
         13    1    4    4    0    0  0.72104903772E+02 -0.18594205768E+03 -0.34380415218E+03  0.39746051505E+03  0.00000000000E+00 0. -1.
         21    1    1    2  503  502  0.21506678247E+02 -0.29634505065E+02  0.46509810354E+02  0.59193779731E+02  0.00000000000E+00 0. -1.
          2    1    1    2  501    0 -0.19208918509E+03  0.11462691666E+03 -0.20402051357E+03  0.30275725426E+03  0.00000000000E+00 0. -1.
<scales pt_clust_5="13000.00000" pt_clust_6="13000.00000" pt_clust_7="13000.00000" pt_clust_8="13000.00000" pt_clust_9="36.61613" pt_clust_10="13000.00000"></scales>
<clustering>
<clus scale="   36.616">  1  9  2 -1</clus>
<clus scale="   88.994">  5  6 -1 -1</clus>
<clus scale="   91.781">  7  8 -1 -1</clus>
<clus scale="  184.116">  2  5  1 -1</clus>
<clus scale="  198.740">  7 10 -1 -1</clus>
<clus scale="   36.616">  1  5  2 -1</clus>
</clustering>
</event>
<event>
10    2  0.4951045E-006  0.1682350E+03  0.7546771E-02  0.1199344E+00
          1   -1    0    0  502    0 -0.00000000000E+00  0.00000000000E+00  0.23095486994E+03  0.23095486994E+03  0.00000000000E+00 0. -1.
         21   -1    0    0  503  502  0.00000000000E+00 -0.00000000000E+00 -0.16153336583E+03  0.16153336583E+03  0.00000000000E+00 0.  1.
         23    2    1    2    0    0 -0.30463161531E+02  0.77099356189E+01 -0.76272241781E+02  0.12584755308E+03  0.95040540997E+02 0.  0.
         23    2    1    2    0    0  0.26095683594E+02  0.24120939610E+02  0.14226778097E+03  0.17446297708E+03  0.94521978604E+02 0.  0.
        -11    1    3    3    0    0 -0.64077640549E+02 -0.37643921615E+01 -0.43673950011E+02  0.77637159764E+02  0.00000000000E+00 0.  1.
         11    1    3    3    0    0  0.33614479018E+02  0.11474327780E+02 -0.32598291770E+02  0.48210393319E+02  0.00000000000E+00 0. -1.
        -13    1    4    4    0    0 -0.11891777644E+02 -0.27963886718E+02  0.20415631399E+02  0.36608623865E+02  0.00000000000E+00 0.  1.
         13    1    4    4    0    0  0.37987461238E+02  0.52084826327E+02  0.12185214957E+03  0.13785435321E+03  0.00000000000E+00 0. -1.
         21    1    1    2  503  501 -0.26408893215E+02  0.15560320351E+02 -0.13053913496E+02  0.33316030193E+02  0.00000000000E+00 0.  1.
          1    1    1    2  501    0  0.30776371152E+02 -0.47391195580E+02  0.16479878414E+02  0.58861675412E+02  0.00000000000E+00 0. -1.
<scales pt_clust_5="13000.00000" pt_clust_6="13000.00000" pt_clust_7="13000.00000" pt_clust_8="13000.00000" pt_clust_9="30.65213" pt_clust_10="13000.00000"></scales>
<clustering>
<clus scale="   30.652">  2  9  1 -1</clus>
<clus scale="   94.522">  7  8 -1 -1</clus>
<clus scale="   52.348">  7 10 -1 -1</clus>
<clus scale="   95.041">  5  6 -1 -1</clus>
<clus scale="  108.959">  1  5  2 -1</clus>
<clus scale="   30.652">  2  5  1 -1</clus>
</clustering>
</event>
<event>
10    2  0.4951045E-006  0.7055685E+03  0.7546771E-02  0.9861506E-01
         -1   -1    0    0    0  501 -0.00000000000E+00  0.00000000000E+00  0.79860328453E+03  0.79860328453E+03  0.00000000000E+00 0.  1.
         21   -1    0    0  503  502  0.00000000000E+00 -0.00000000000E+00 -0.63449059001E+03  0.63449059001E+03  0.00000000000E+00 0.  1.
         23    2    1    2    0    0 -0.34810522618E+03  0.19107769041E+03 -0.22584124348E+02  0.40796262289E+03  0.90749802932E+02 0.  0.
         23    2    1    2    0    0  0.12630257720E+03  0.95180820687E+02  0.36781972315E+03  0.41048024542E+03  0.90503886718E+02 0.  0.
        -11    1    4    4    0    0  0.43381121092E+02 -0.13486377793E+02  0.97600110036E+02  0.10765493733E+03  0.00000000000E+00 0. -1.
         11    1    4    4    0    0  0.82921456105E+02  0.10866719848E+03  0.27021961311E+03  0.30282530809E+03  0.00000000000E+00 0.  1.
        -13    1    3    3    0    0 -0.24547142479E+03  0.12539829366E+03  0.25814013325E+02  0.27685251620E+03  0.00000000000E+00 0.  1.
         13    1    3    3    0    0 -0.10263380139E+03  0.65679396751E+02 -0.48398137673E+02  0.13111010669E+03  0.00000000000E+00 0. -1.
         21    1    1    2  503  501 -0.19401504934E+02  0.39212107752E+02 -0.20425275947E+03  0.20888560874E+03  0.00000000000E+00 0.  1.
         -1    1    1    2    0  502  0.24120415392E+03 -0.32547061885E+03  0.23129855194E+02  0.40576539749E+03  0.00000000000E+00 0.  1.
<scales pt_clust_5="13000.00000" pt_clust_6="13000.00000" pt_clust_7="13000.00000" pt_clust_8="13000.00000" pt_clust_9="43.74937" pt_clust_10="13000.00000"></scales>
<clustering>
<clus scale="   43.749">  2  9  1 -1</clus>
<clus scale="   90.504">  5  6 -1 -1</clus>
<clus scale="   90.750">  7  8 -1 -1</clus>
<clus scale="  385.872">  5 10 -1 -1</clus>
<clus scale="  425.137">  1  7  2 -1</clus>
<clus scale="   43.749">  2  5  1 -1</clus>
</clustering>
</event>
<event>
10    2  0.4951045E-006  0.1497731E+03  0.7546771E-02  0.1222962E+00
         -1   -1    0    0    0  501 -0.00000000000E+00  0.00000000000E+00  0.43947677578E+03  0.43947677578E+03  0.00000000000E+00 0.  1.
         21   -1    0    0  501  502  0.00000000000E+00 -0.00000000000E+00 -0.54480377592E+02  0.54480377592E+02  0.00000000000E+00 0. -1.
         23    2    1    2    0    0 -0.17272242264E+02 -0.45728463885E+01  0.14182249193E+03  0.16953078472E+03  0.91147279029E+02 0.  0.
         23    2    1    2    0    0 -0.13252252512E+02  0.14203579454E+02  0.20729234270E+03  0.22660256634E+03  0.89449672222E+02 0.  0.
        -11    1    3    3    0    0  0.21454364752E+02 -0.12236076252E+02  0.26180342652E+01  0.24836775805E+02  0.00000000000E+00 0.  1.
         11    1    3    3    0    0 -0.38726607016E+02  0.76632298639E+01  0.13920445766E+03  0.14469400891E+03  0.00000000000E+00 0. -1.
        -11    1    4    4    0    0  0.21581079107E+02  0.31693651379E+02  0.16367778121E+03  0.16810903180E+03  0.00000000000E+00 0.  1.
         11    1    4    4    0    0 -0.34833331619E+02 -0.17490071925E+02  0.43614561498E+02  0.58493534534E+02  0.00000000000E+00 0. -1.
         21    1    1    2  503  502 -0.47374846529E+01  0.27118219592E+02 -0.99856896296E+01  0.29284050130E+02  0.00000000000E+00 0. -1.
         -1    1    1    2    0  503  0.35261979430E+02 -0.36748952657E+02  0.45867253185E+02  0.68539752184E+02  0.00000000000E+00 0.  1.
<scales pt_clust_5="13000.00000" pt_clust_6="13000.00000" pt_clust_7="13000.00000" pt_clust_8="13000.00000" pt_clust_9="27.52892" pt_clust_10="13000.00000"></scales>
<clustering>
<clus scale="   27.529">  2  9  1 -1</clus>
<clus scale="   89.450">  7  8 -1 -1</clus>
<clus scale="   43.783">  7 10 -1 -1</clus>
<clus scale="   91.147">  5  6 -1 -1</clus>
<clus scale="   93.345">  1  5  2 -1</clus>
<clus scale="   27.529">  2  5  1 -1</clus>
</clustering>
</event>
<event>
10    2  0.4951045E-006  0.1683069E+03  0.7546771E-02  0.1196761E+00
         -1   -1    0    0    0  501 -0.00000000000E+00  0.00000000000E+00  0.45396563048E+03  0.45396563048E+03  0.00000000000E+00 0.  1.
         21   -1    0    0  501  502  0.00000000000E+00 -0.00000000000E+00 -0.75919493906E+02  0.75919493906E+02  0.00000000000E+00 0.  1.
         23    2    1    2    0    0 -0.73239009692E+02  0.94454712757E+01  0.28153067624E+03  0.30543535954E+03  0.92617858582E+02 0.  0.
         23    2    1    2    0    0  0.69976976218E+01  0.33714551928E+02 -0.27192000957E+01  0.95740391261E+02  0.89292719110E+02 0.  0.
        -11    1    3    3    0    0 -0.58050567344E+02  0.48644072341E+02  0.16493936274E+03  0.18149685265E+03  0.00000000000E+00 0.  1.
         11    1    3    3    0    0 -0.15188442348E+02 -0.39198601065E+02  0.11659131350E+03  0.12393850689E+03  0.00000000000E+00 0. -1.
        -13    1    4    4    0    0  0.29995516980E+02 -0.58614616695E+01  0.27317773974E+02  0.40992054677E+02  0.00000000000E+00 0. -1.
         13    1    4    4    0    0 -0.22997819358E+02  0.39576013598E+02 -0.30036974069E+02  0.54748336584E+02  0.00000000000E+00 0.  1.
         21    1    1    2  503  502  0.28318770188E+02 -0.26326141213E+02  0.34501257268E+02  0.51820413055E+02  0.00000000000E+00 0. -1.
         -1    1    1    2    0  503  0.37922541882E+02 -0.16833881990E+02  0.64733403167E+02  0.76888960529E+02  0.00000000000E+00 0.  1.
<scales pt_clust_5="13000.00000" pt_clust_6="13000.00000" pt_clust_7="13000.00000" pt_clust_8="13000.00000" pt_clust_9="38.66547" pt_clust_10="13000.00000"></scales>
<clustering>
<clus scale="   38.665">  2  9  1 -1</clus>
<clus scale="   89.293">  7  8 -1 -1</clus>
<clus scale="   44.809">  7 10 -1 -1</clus>
<clus scale="   92.618">  5  6 -1 -1</clus>
<clus scale="  115.121">  1  5  2 -1</clus>
<clus scale="   38.665">  2  5  1 -1</clus>
</clustering>
</event>
<event>
10    2  0.4951045E-006  0.3904422E+03  0.7546771E-02  0.1078003E+00
          1   -1    0    0  502    0 -0.00000000000E+00  0.00000000000E+00  0.16187500285E+04  0.16187500285E+04  0.00000000000E+00 0. -1.
         21   -1    0    0  503  502  0.00000000000E+00 -0.00000000000E+00 -0.71237556019E+02  0.71237556019E+02  0.00000000000E+00 0. -1.
         23    2    1    2    0    0  0.37440246834E+02 -0.12925706907E+03  0.73997133146E+03  0.75783171383E+03  0.92963289049E+02 0.  0.
         23    2    1    2    0    0 -0.74382715993E+02  0.21965910280E+03  0.32992967757E+03  0.41288119824E+03  0.88512043478E+02 0.  0.
        -11    1    3    3    0    0  0.45356862676E+01 -0.12212942241E+03  0.65734357654E+03  0.66860806597E+03  0.00000000000E+00 0.  1.
         11    1    3    3    0    0  0.32904560566E+02 -0.71276466656E+01  0.82627754926E+02  0.89223647858E+02  0.00000000000E+00 0. -1.
        -13    1    4    4    0    0 -0.73854891135E+02  0.16701147245E+03  0.30292285257E+03  0.35370839894E+03  0.00000000000E+00 0. -1.
         13    1    4    4    0    0 -0.52782485885E+00  0.52647630346E+02  0.27006824998E+02  0.59172799297E+02  0.00000000000E+00 0.  1.
         21    1    1    2  503  501  0.22182254919E+02 -0.65247651191E+01 -0.93359938553E+01  0.24935632625E+02  0.00000000000E+00 0. -1.
          1    1    1    2  501    0  0.14760214240E+02 -0.83877268609E+02  0.48694745730E+03  0.49433903981E+03  0.00000000000E+00 0. -1.
<scales pt_clust_5="13000.00000" pt_clust_6="13000.00000" pt_clust_7="13000.00000" pt_clust_8="13000.00000" pt_clust_9="23.12196" pt_clust_10="13000.00000"></scales>
<clustering>
<clus scale="   23.122">  2  9  1 -1</clus>
<clus scale="   88.512">  7  8 -1 -1</clus>
<clus scale="   85.879">  7 10 -1 -1</clus>
<clus scale="   92.963">  5  6 -1 -1</clus>
<clus scale="  165.283">  1  5  2 -1</clus>
<clus scale="   23.122">  2  5  1 -1</clus>
</clustering>
</event>
<event>
10    2  0.4951045E-006  0.1410653E+03  0.7546771E-02  0.1231079E+00
         21   -1    0    0  501  502  0.00000000000E+00  0.00000000000E+00  0.37469736595E+02  0.37469736595E+02  0.00000000000E+00 0. -1.
         -1   -1    0    0    0  501 -0.00000000000E+00 -0.00000000000E+00 -0.52035265203E+03  0.52035265203E+03  0.00000000000E+00 0.  1.
         23    2    1    2    0    0 -0.83324541047E+01 -0.35580618324E+02 -0.17270454368E+03  0.19891252910E+03  0.91672922044E+02 0.  0.
         23    2    1    2    0    0 -0.29173291631E+02  0.34368433309E+02 -0.22014602694E+03  0.24399726843E+03  0.95069046874E+02 0.  0.
        -11    1    4    4    0    0  0.19855115116E+02  0.49202240120E+02 -0.95746863834E+02  0.10946482523E+03  0.00000000000E+00 0. -1.
         11    1    4    4    0    0 -0.49028406746E+02 -0.14833806811E+02 -0.12439916310E+03  0.13453244320E+03  0.00000000000E+00 0.  1.
        -13    1    3    3    0    0  0.13384465774E+01 -0.54702395908E+02 -0.49270667382E+02  0.73632480751E+02  0.00000000000E+00 0.  1.
         13    1    3    3    0    0 -0.96709006821E+01  0.19121777584E+02 -0.12343387629E+03  0.12528004835E+03  0.00000000000E+00 0. -1.
         21    1    1    2  503  502  0.18147184795E+02  0.29424842445E+02 -0.29807085630E+02  0.45646511615E+02  0.00000000000E+00 0. -1.
         -1    1    1    2    0  503  0.19358560940E+02 -0.28212657431E+02 -0.60225259191E+02  0.69266079474E+02  0.00000000000E+00 0.  1.
<scales pt_clust_5="13000.00000" pt_clust_6="13000.00000" pt_clust_7="13000.00000" pt_clust_8="13000.00000" pt_clust_9="34.57082" pt_clust_10="13000.00000"></scales>
<clustering>
<clus scale="   34.571">  1  9  2 -1</clus>
<clus scale="   91.673">  7  8 -1 -1</clus>
<clus scale="   94.402">  2  7  1 -1</clus>
<clus scale="   95.069">  5  6 -1 -1</clus>
<clus scale="   35.895">  5 10 -1 -1</clus>
<clus scale="   34.571">  1  5  2 -1</clus>
</clustering>
</event>
<event>
10    2  0.4951045E-006  0.1408685E+03  0.7546771E-02  0.1230303E+00
         21   -1    0    0  501  502  0.00000000000E+00  0.00000000000E+00  0.54336631433E+03  0.54336631433E+03  0.00000000000E+00 0.  1.
          1   -1    0    0  503    0 -0.00000000000E+00 -0.00000000000E+00 -0.15360701142E+03  0.15360701142E+03  0.00000000000E+00 0. -1.
         23    2    1    2    0    0 -0.19140716600E+02 -0.38470791986E+01 -0.83616474941E+02  0.12591775203E+03  0.92099936723E+02 0.  0.
         23    2    1    2    0    0  0.32202953415E+02 -0.22443933282E+02  0.60675652378E+02  0.11059010383E+03  0.83713057068E+02 0.  0.
        -11    1    3    3    0    0 -0.28104537318E+02  0.21106864932E+02  0.30558373766E+01  0.35280347322E+02  0.00000000000E+00 0.  1.
         11    1    3    3    0    0  0.89638207182E+01 -0.24953944131E+02 -0.86672312318E+02  0.90637404707E+02  0.00000000000E+00 0. -1.
        -13    1    4    4    0    0  0.43782176375E+02 -0.47232386659E+02  0.36196397276E+02  0.73877983821E+02  0.00000000000E+00 0. -1.
         13    1    4    4    0    0 -0.11579222960E+02  0.24788453377E+02  0.24479255101E+02  0.36712120008E+02  0.00000000000E+00 0.  1.
         21    1    1    2  503  502 -0.66650783803E+02 -0.21771142324E+02  0.37038919296E+03  0.37696745732E+03  0.00000000000E+00 0.  1.
          1    1    1    2  501    0  0.53588546987E+02  0.48062154805E+02  0.42310932513E+02  0.83498012568E+02  0.00000000000E+00 0. -1.
<scales pt_clust_5="13000.00000" pt_clust_6="13000.00000" pt_clust_7="13000.00000" pt_clust_8="13000.00000" pt_clust_9="70.11640" pt_clust_10="13000.00000"></scales>
<clustering>
<clus scale="   70.116">  1  9  2 -1</clus>
<clus scale="   83.713">  7  8 -1 -1</clus>
<clus scale="   49.330">  7 10 -1 -1</clus>
<clus scale="   92.100">  5  6 -1 -1</clus>
<clus scale="   96.327">  2  5  1 -1</clus>
<clus scale="   70.116">  1  5  2 -1</clus>
</clustering>
</event>
<event>
10    2  0.4951045E-006  0.2424274E+03  0.7546771E-02  0.1138037E+00
         21   -1    0    0  503  502  0.00000000000E+00  0.00000000000E+00  0.11507281016E+03  0.11507281016E+03  0.00000000000E+00 0. -1.
          1   -1    0    0  502    0 -0.00000000000E+00 -0.00000000000E+00 -0.79232589998E+03  0.79232589998E+03  0.00000000000E+00 0. -1.
         23    2    1    2    0    0  0.88079807127E+02  0.10708157329E+03 -0.33766181830E+03  0.37653488850E+03  0.92404020237E+02 0.  0.
         23    2    1    2    0    0  0.16113410209E+02  0.20319219292E+01 -0.31357341768E+03  0.32734779908E+03  0.92544705924E+02 0.  0.
        -13    1    4    4    0    0 -0.36523215186E+02 -0.12463676809E+02 -0.15092578322E+03  0.15578151536E+03  0.00000000000E+00 0. -1.
         13    1    4    4    0    0  0.52636625395E+02  0.14495598738E+02 -0.16264763446E+03  0.17156628372E+03  0.00000000000E+00 0.  1.
        -13    1    3    3    0    0  0.77179895798E+01  0.20860921573E+02 -0.39118566431E+01  0.22584243056E+02  0.00000000000E+00 0.  1.
         13    1    3    3    0    0  0.80361817547E+02  0.86220651720E+02 -0.33374996166E+03  0.35395064544E+03  0.00000000000E+00 0. -1.
         21    1    1    2  503  501 -0.19358346510E+02 -0.60019183733E+02  0.49182954201E+02  0.79975064736E+02  0.00000000000E+00 0. -1.
          1    1    1    2  501    0 -0.84834870826E+02 -0.49094311489E+02 -0.75200808045E+02  0.12354095782E+03  0.00000000000E+00 0. -1.
<scales pt_clust_5="13000.00000" pt_clust_6="13000.00000" pt_clust_7="13000.00000" pt_clust_8="13000.00000" pt_clust_9="63.06384" pt_clust_10="13000.00000"></scales>
<clustering>
<clus scale="   63.064">  1  9  2 -1</clus>
<clus scale="   92.404">  7  8 -1 -1</clus>
<clus scale="   92.545">  5  6 -1 -1</clus>
<clus scale="  122.113">  5 10 -1 -1</clus>
<clus scale="  148.633">  2  7  1 -1</clus>
<clus scale="   63.064">  1  5  2 -1</clus>
</clustering>
</event>
<event>
10    2  0.4951045E-006  0.4186656E+03  0.7546771E-02  0.1071993E+00
         21   -1    0    0  501  502  0.00000000000E+00  0.00000000000E+00  0.50784394718E+03  0.50784394718E+03  0.00000000000E+00 0. -1.
          2   -1    0    0  503    0 -0.00000000000E+00 -0.00000000000E+00 -0.45953516918E+03  0.45953516918E+03  0.00000000000E+00 0. -1.
         23    2    1    2    0    0 -0.71008902532E+01  0.13086146516E+03  0.15829909879E+03  0.22355890595E+03  0.88004738774E+02 0.  0.
         23    2    1    2    0    0  0.14699883074E+03 -0.46884367996E+02 -0.27952856068E+02  0.18184298481E+03  0.92079904218E+02 0.  0.
        -11    1    3    3    0    0 -0.17286766810E+02  0.68513191165E+02  0.14154217612E+03  0.15819948575E+03  0.00000000000E+00 0. -1.
         11    1    3    3    0    0  0.10185876556E+02  0.62348274000E+02  0.16756922665E+02  0.65359420203E+02  0.00000000000E+00 0.  1.
        -13    1    4    4    0    0  0.78340819023E+02  0.26595953483E+01 -0.51710251987E+02  0.93905843978E+02  0.00000000000E+00 0.  1.
         13    1    4    4    0    0  0.68658011720E+02 -0.49543963344E+02  0.23757395920E+02  0.87937140834E+02  0.00000000000E+00 0. -1.
         21    1    1    2  503  502 -0.16441004451E+03 -0.29066439521E+03 -0.11084668696E+03  0.35185713207E+03  0.00000000000E+00 0. -1.
          2    1    1    2  501    0  0.24512104019E+02  0.20668729804E+03  0.28809222245E+02  0.21012009352E+03  0.00000000000E+00 0. -1.
<scales pt_clust_5="13000.00000" pt_clust_6="13000.00000" pt_clust_7="13000.00000" pt_clust_8="13000.00000" pt_clust_9="276.76634" pt_clust_10="13000.00000"></scales>
<clustering>
<clus scale="   88.005">  5  6 -1 -1</clus>
<clus scale="   92.080">  7  8 -1 -1</clus>
<clus scale="  157.861">  2  5  1 -1</clus>
<clus scale="  235.602">  7 10 -1 -1</clus>
<clus scale="  276.766">  1  9  2 -1</clus>
<clus scale="  276.766">  1  5  2 -1</clus>
</clustering>
</event>
<event>
10    2  0.4951045E-006  0.3834053E+03  0.7546771E-02  0.1066148E+00
          1   -1    0    0  503    0 -0.00000000000E+00  0.00000000000E+00  0.73179840617E+03  0.73179840617E+03  0.00000000000E+00 0. -1.
         21   -1    0    0  501  502  0.00000000000E+00 -0.00000000000E+00 -0.71346281554E+03  0.71346281554E+03  0.00000000000E+00 0. -1.
         23    2    1    2    0    0 -0.72403234440E+02 -0.20162400249E+03  0.50371768008E+03  0.55458427637E+03  0.89094060591E+02 0.  0.
         23    2    1    2    0    0 -0.47226710651E+02  0.12589169084E+03 -0.12140680452E+03  0.20355580435E+03  0.92823883133E+02 0.  0.
        -11    1    4    4    0    0 -0.70666474752E+02  0.73910034142E+02 -0.55293394523E+02  0.11624888506E+03  0.00000000000E+00 0. -1.
         11    1    4    4    0    0  0.23439764100E+02  0.51981656693E+02 -0.66113409994E+02  0.87306919283E+02  0.00000000000E+00 0.  1.
        -11    1    3    3    0    0  0.79535410904E+01 -0.10940886707E+03  0.23623812764E+03  0.26046499181E+03  0.00000000000E+00 0.  1.
         11    1    3    3    0    0 -0.80356775530E+02 -0.92215135427E+02  0.26747955244E+03  0.29411928456E+03  0.00000000000E+00 0. -1.
         21    1    1    2  503  502 -0.54650656917E+02 -0.10246866534E+03 -0.41650196521E+03  0.43238918662E+03  0.00000000000E+00 0. -1.
          1    1    1    2  501    0  0.17428060201E+03  0.17820097700E+03  0.52526680281E+02  0.25473195438E+03  0.00000000000E+00 0. -1.
<scales pt_clust_5="13000.00000" pt_clust_6="13000.00000" pt_clust_7="13000.00000" pt_clust_8="13000.00000" pt_clust_9="116.13148" pt_clust_10="13000.00000"></scales>
<clustering>
<clus scale="   89.094">  7  8 -1 -1</clus>
<clus scale="   92.824">  5  6 -1 -1</clus>
<clus scale="  116.131">  2  9  1 -1</clus>
<clus scale="  210.573">  5 10 -1 -1</clus>
<clus scale="  241.390">  1  7  2 -1</clus>
<clus scale="  116.131">  2  5  1 -1</clus>
</clustering>
</event>
<event>
10    2  0.4951045E-006  0.4968990E+03  0.7546771E-02  0.1058533E+00
          2   -1    0    0  502    0 -0.00000000000E+00  0.00000000000E+00  0.12247412989E+04  0.12247412989E+04  0.00000000000E+00 0. -1.
         21   -1    0    0  503  502  0.00000000000E+00 -0.00000000000E+00 -0.25708494193E+03  0.25708494193E+03  0.00000000000E+00 0.  1.
         23    2    1    2    0    0 -0.25586202493E+02  0.97190456023E+02  0.12511904757E+03  0.18560799282E+03  0.93246514322E+02 0.  0.
         23    2    1    2    0    0  0.15888068729E+03  0.91000651335E+02  0.18446135306E+03  0.27545134413E+03  0.91231907101E+02 0.  0.
        -11    1    4    4    0    0  0.35823939974E+02  0.42616081935E+02  0.10033607710E+02  0.56569942535E+02  0.00000000000E+00 0.  1.
         11    1    4    4    0    0  0.12305674732E+03  0.48384569401E+02  0.17442774536E+03  0.21888140160E+03  0.00000000000E+00 0. -1.
        -13    1    3    3    0    0  0.11804943893E+02  0.68088989035E+02  0.22662274818E+02  0.72725826417E+02  0.00000000000E+00 0.  1.
         13    1    3    3    0    0 -0.37391146385E+02  0.29101466989E+02  0.10245677275E+03  0.11288216640E+03  0.00000000000E+00 0. -1.
         21    1    1    2  503  501 -0.26142141854E+03 -0.39441012489E+03  0.22425641459E+03  0.52363292885E+03  0.00000000000E+00 0.  1.
          2    1    1    2  501    0  0.12812693374E+03  0.20621901753E+03  0.43381954178E+03  0.49713397508E+03  0.00000000000E+00 0. -1.
<scales pt_clust_5="13000.00000" pt_clust_6="13000.00000" pt_clust_7="13000.00000" pt_clust_8="13000.00000" pt_clust_9="450.56042" pt_clust_10="13000.00000"></scales>
<clustering>
<clus scale="   91.232">  5  6 -1 -1</clus>
<clus scale="   93.247">  7  8 -1 -1</clus>
<clus scale="  137.097">  1  7  2 -1</clus>
<clus scale="  274.683">  5 10 -1 -1</clus>
<clus scale="  450.560">  2  9  1 -1</clus>
<clus scale="  450.560">  2  5  1 -1</clus>
</clustering>
</event>
<event>
10    2  0.4951045E-006  0.1544764E+03  0.7546771E-02  0.1207925E+00
         21   -1    0    0  501  502  0.00000000000E+00  0.00000000000E+00  0.49443218019E+02  0.49443218019E+02  0.00000000000E+00 0. -1.
          1   -1    0    0  503    0 -0.00000000000E+00 -0.00000000000E+00 -0.61133871022E+03  0.61133871022E+03  0.00000000000E+00 0. -1.
         23    2    1    2    0    0 -0.25257701310E+02 -0.82086003654E+02 -0.38253993866E+03  0.40190110167E+03  0.88383411209E+02 0.  0.
         23    2    1    2    0    0  0.37382979064E+02  0.26498588826E+02 -0.96352824370E+02  0.13930663714E+03  0.89570140414E+02 0.  0.
        -11    1    4    4    0    0  0.25467453566E+02 -0.30847848534E+02 -0.25759423707E+02  0.47578659713E+02  0.00000000000E+00 0. -1.
         11    1    4    4    0    0  0.11915525497E+02  0.57346437360E+02 -0.70593400663E+02  0.91727977428E+02  0.00000000000E+00 0.  1.
        -13    1    3    3    0    0 -0.12779907530E+01 -0.90559706146E+02 -0.22883029520E+03  0.24610160024E+03  0.00000000000E+00 0. -1.
         13    1    3    3    0    0 -0.23979710557E+02  0.84737024918E+01 -0.15370964346E+03  0.15579950143E+03  0.00000000000E+00 0.  1.
         21    1    1    2  503  502  0.18651926592E+02  0.30828448039E+02 -0.11388218338E+02  0.37788610599E+02  0.00000000000E+00 0. -1.
          1    1    1    2  501    0 -0.30777204345E+02  0.24758966788E+02 -0.71614510828E+02  0.81785578832E+02  0.00000000000E+00 0. -1.
<scales pt_clust_5="13000.00000" pt_clust_6="13000.00000" pt_clust_7="13000.00000" pt_clust_8="13000.00000" pt_clust_9="36.03176" pt_clust_10="13000.00000"></scales>
<clustering>
<clus scale="   36.032">  1  9  2 -1</clus>
<clus scale="   88.383">  7  8 -1 -1</clus>
<clus scale="   89.570">  5  6 -1 -1</clus>
<clus scale="   40.483">  5 10 -1 -1</clus>
<clus scale="  116.948">  2  7  1 -1</clus>
<clus scale="   36.032">  1  5  2 -1</clus>
</clustering>
</event>
<event>
10    2  0.4951045E-006  0.1948935E+03  0.7546771E-02  0.1187676E+00
          1   -1    0    0  503    0 -0.00000000000E+00  0.00000000000E+00  0.55224056909E+03  0.55224056909E+03  0.00000000000E+00 0. -1.
         21   -1    0    0  501  502  0.00000000000E+00 -0.00000000000E+00 -0.63890482199E+02  0.63890482199E+02  0.00000000000E+00 0. -1.
         23    2    1    2    0    0  0.12840337331E+02 -0.47224102161E+01  0.13312817778E+03  0.16121680013E+03  0.89891987993E+02 0.  0.
         23    2    1    2    0    0  0.20270301864E+02 -0.58361173447E+02  0.25980590247E+03  0.28224435315E+03  0.91355657871E+02 0.  0.
        -11    1    3    3    0    0 -0.29672375588E+02 -0.20270813846E+02  0.96542844880E+02  0.10301396344E+03  0.00000000000E+00 0.  1.
         11    1    3    3    0    0  0.42512712919E+02  0.15548403630E+02  0.36585332898E+02  0.58202836687E+02  0.00000000000E+00 0. -1.
        -13    1    4    4    0    0 -0.22627419476E+02  0.37078564855E+01  0.13079853131E+03  0.13279308756E+03  0.00000000000E+00 0.  1.
         13    1    4    4    0    0  0.42897721340E+02 -0.62069029932E+02  0.12900737117E+03  0.14945126559E+03  0.00000000000E+00 0. -1.
         21    1    1    2  503  502 -0.57178681917E+02 -0.11821694862E+02  0.15251401721E+02  0.60346991554E+02  0.00000000000E+00 0. -1.
          1    1    1    2  501    0  0.24068042722E+02  0.74905278525E+02  0.80164604924E+02  0.11232290645E+03  0.00000000000E+00 0. -1.
<scales pt_clust_5="13000.00000" pt_clust_6="13000.00000" pt_clust_7="13000.00000" pt_clust_8="13000.00000" pt_clust_9="58.38796" pt_clust_10="13000.00000"></scales>
<clustering>
<clus scale="   58.388">  2  9  1 -1</clus>
<clus scale="   89.892">  5  6 -1 -1</clus>
<clus scale="   90.555">  1  5  2 -1</clus>
<clus scale="   91.356">  7  8 -1 -1</clus>
<clus scale="   68.079">  7 10 -1 -1</clus>
<clus scale="   58.388">  2  5  1 -1</clus>
</clustering>
</event>
<event>
10    2  0.4951045E-006  0.2112121E+03  0.7546771E-02  0.1174383E+00
          2   -1    0    0  502    0 -0.00000000000E+00  0.00000000000E+00  0.53120036613E+03  0.53120036613E+03  0.00000000000E+00 0. -1.
         21   -1    0    0  503  502  0.00000000000E+00 -0.00000000000E+00 -0.87577006718E+02  0.87577006718E+02  0.00000000000E+00 0.  1.
         23    2    1    2    0    0 -0.26690809122E+02  0.84944639737E+01  0.27476095704E+03  0.29146013369E+03  0.93117510754E+02 0.  0.
         23    2    1    2    0    0 -0.33102217703E+02 -0.94844916480E+02  0.12728734890E+03  0.18600436204E+03  0.91127594657E+02 0.  0.
        -11    1    4    4    0    0 -0.24115818219E+02  0.75634151810E+01  0.41782373152E+01  0.25617095945E+02  0.00000000000E+00 0.  1.
         11    1    4    4    0    0 -0.89863994830E+01 -0.10240833166E+03  0.12310911159E+03  0.16038726609E+03  0.00000000000E+00 0. -1.
        -13    1    3    3    0    0  0.20246951031E+02  0.24932828864E+02  0.39059894544E+02  0.50569361702E+02  0.00000000000E+00 0. -1.
         13    1    3    3    0    0 -0.46937760153E+02 -0.16438364890E+02  0.23570106250E+03  0.24089077199E+03  0.00000000000E+00 0.  1.
         21    1    1    2  503  501  0.43173033097E+02  0.12695119879E+02 -0.14479858085E+02  0.47273069984E+02  0.00000000000E+00 0.  1.
          2    1    1    2  501    0  0.16619993728E+02  0.73655332627E+02  0.56054911557E+02  0.94039807133E+02  0.00000000000E+00 0. -1.
<scales pt_clust_5="13000.00000" pt_clust_6="13000.00000" pt_clust_7="13000.00000" pt_clust_8="13000.00000" pt_clust_9="45.00085" pt_clust_10="13000.00000"></scales>
<clustering>
<clus scale="   45.001">  2  9  1 -1</clus>
<clus scale="   91.128">  5  6 -1 -1</clus>
<clus scale="   83.879">  5 10 -1 -1</clus>
<clus scale="   93.118">  7  8 -1 -1</clus>
<clus scale="   95.873">  1  7  2 -1</clus>
<clus scale="   45.001">  2  5  1 -1</clus>
</clustering>
</event>
<event>
10    2  0.4951045E-006  0.4673124E+03  0.7546771E-02  0.1061506E+00
          3   -1    0    0  503    0 -0.00000000000E+00  0.00000000000E+00  0.76719140142E+03  0.76719140142E+03  0.00000000000E+00 0. -1.
         21   -1    0    0  501  502  0.00000000000E+00 -0.00000000000E+00 -0.36290882282E+03  0.36290882282E+03  0.00000000000E+00 0. -1.
         23    2    1    2    0    0  0.11083482833E+03  0.47594624495E+02  0.27727856455E+02  0.15417756028E+03  0.91936274763E+02 0.  0.
         23    2    1    2    0    0  0.28630894153E+02 -0.16086610106E+02  0.18477454893E+03  0.20869462158E+03  0.91286932376E+02 0.  0.
        -13    1    4    4    0    0  0.33477881461E+02  0.30121131380E+02  0.12579561531E+03  0.13361357691E+03  0.00000000000E+00 0.  1.
         13    1    4    4    0    0 -0.48469873080E+01 -0.46207741486E+02  0.58978933615E+02  0.75081044676E+02  0.00000000000E+00 0. -1.
        -13    1    3    3    0    0  0.38454132121E+02  0.60244070096E+02  0.36371438052E+02  0.80193202736E+02  0.00000000000E+00 0. -1.
         13    1    3    3    0    0  0.72380696213E+02 -0.12649445602E+02 -0.86435815975E+01  0.73984357544E+02  0.00000000000E+00 0.  1.
         21    1    1    2  503  502 -0.39909668379E+03  0.11879286897E+03  0.10136614176E+02  0.41652450070E+03  0.00000000000E+00 0. -1.
          3    1    1    2  501    0  0.25963096131E+03 -0.15030088335E+03  0.18164355905E+03  0.35070354168E+03  0.00000000000E+00 0. -1.
<scales pt_clust_5="13000.00000" pt_clust_6="13000.00000" pt_clust_7="13000.00000" pt_clust_8="13000.00000" pt_clust_9="387.93884" pt_clust_10="13000.00000"></scales>
<clustering>
<clus scale="   91.287">  5  6 -1 -1</clus>
<clus scale="   91.936">  7  8 -1 -1</clus>
<clus scale="  151.664">  1  7  2 -1</clus>
<clus scale="  330.567">  5 10 -1 -1</clus>
<clus scale="  387.939">  2  9  1 -1</clus>
<clus scale="  387.939">  2  5  1 -1</clus>
</clustering>
</event>
<event>
10    2  0.4951045E-006  0.2036300E+03  0.7546771E-02  0.1173100E+00
          1   -1    0    0  502    0 -0.00000000000E+00  0.00000000000E+00  0.13684908509E+03  0.13684908509E+03  0.00000000000E+00 0. -1.
         21   -1    0    0  503  502  0.00000000000E+00 -0.00000000000E+00 -0.64293812551E+03  0.64293812551E+03  0.00000000000E+00 0.  1.
         23    2    1    2    0    0  0.39770743595E+02 -0.59356733890E+02 -0.41070775095E+02  0.12132405242E+03  0.89038099845E+02 0.  0.
         23    2    1    2    0    0  0.34013080302E+02  0.11303710035E+03 -0.61836405478E+02  0.16167680124E+03  0.91549829770E+02 0.  0.
        -11    1    3    3    0    0  0.77845578070E+01 -0.54428257130E+02  0.14637513422E+02  0.56897199523E+02  0.00000000000E+00 0.  1.
         11    1    3    3    0    0  0.31986185789E+02 -0.49284767604E+01 -0.55708288516E+02  0.64426852895E+02  0.00000000000E+00 0. -1.
        -13    1    4    4    0    0 -0.24000457062E+02  0.65740761466E+02 -0.10154022810E+02  0.70717563847E+02  0.00000000000E+00 0. -1.
         13    1    4    4    0    0  0.58013537365E+02  0.47296338880E+02 -0.51682382669E+02  0.90959237394E+02  0.00000000000E+00 0.  1.
         21    1    1    2  503  501 -0.91552267072E+02 -0.13605839280E+02 -0.43363923556E+03  0.44340717527E+03  0.00000000000E+00 0.  1.
          1    1    1    2  501    0  0.17768443174E+02 -0.40074527175E+02  0.30457375702E+02  0.53379181671E+02  0.00000000000E+00 0. -1.
<scales pt_clust_5="13000.00000" pt_clust_6="13000.00000" pt_clust_7="13000.00000" pt_clust_8="13000.00000" pt_clust_9="92.55775" pt_clust_10="13000.00000"></scales>
<clustering>
<clus scale="   89.038">  5  6 -1 -1</clus>
<clus scale="   91.550">  7  8 -1 -1</clus>
<clus scale="   43.837">  7 10 -1 -1</clus>
<clus scale="   92.558">  2  9  1 -1</clus>
<clus scale="  110.152">  1  5  2 -1</clus>
<clus scale="   92.558">  2  5  1 -1</clus>
</clustering>
</event>
<event>
10    2  0.4951045E-006  0.3778163E+03  0.7546771E-02  0.1102408E+00
         -3   -1    0    0    0  501 -0.00000000000E+00  0.00000000000E+00  0.10326192303E+03  0.10326192303E+03  0.00000000000E+00 0.  1.
         21   -1    0    0  503  502  0.00000000000E+00 -0.00000000000E+00 -0.13446300946E+04  0.13446300946E+04  0.00000000000E+00 0.  1.
         23    2    1    2    0    0 -0.30882634985E+02  0.18977522907E+01 -0.59042052931E+02  0.11245236743E+03  0.90566176464E+02 0.  0.
         23    2    1    2    0    0 -0.20948697089E+02  0.14732677151E+02 -0.69544444318E+01  0.94534348506E+02  0.90733009783E+02 0.  0.
        -11    1    3    3    0    0 -0.48729886499E+02  0.27866797778E+02 -0.14652986153E+02  0.58016120689E+02  0.00000000000E+00 0.  1.
         11    1    3    3    0    0  0.17847251514E+02 -0.25969045487E+02 -0.44389066778E+02  0.54436246743E+02  0.00000000000E+00 0. -1.
        -13    1    4    4    0    0  0.35904031437E+02  0.61479471103E+01 -0.66939093481E+01  0.37036538033E+02  0.00000000000E+00 0. -1.
         13    1    4    4    0    0 -0.56852728526E+02  0.85847300409E+01 -0.26053508373E+00  0.57497810473E+02  0.00000000000E+00 0.  1.
         21    1    1    2  503  501 -0.82730513462E+02 -0.16985761454E+03 -0.66448521060E+03  0.69082309036E+03  0.00000000000E+00 0.  1.
         -3    1    1    2    0  502  0.13456184554E+03  0.15322718509E+03 -0.51088646357E+03  0.55008221129E+03  0.00000000000E+00 0.  1.
<scales pt_clust_5="13000.00000" pt_clust_6="13000.00000" pt_clust_7="13000.00000" pt_clust_8="13000.00000" pt_clust_9="191.02972" pt_clust_10="13000.00000"></scales>
<clustering>
<clus scale="   90.566">  5  6 -1 -1</clus>
<clus scale="   90.733">  7  8 -1 -1</clus>
<clus scale="   95.706">  1  5  2 -1</clus>
<clus scale="  191.030">  2  9  1 -1</clus>
<clus scale="   56.414">  7 10 -1 -1</clus>
<clus scale="  191.030">  2  5  1 -1</clus>
</clustering>
</event>
<event>
10    2  0.4951045E-006  0.2991655E+03  0.7546771E-02  0.1121495E+00
         21   -1    0    0  501  502  0.00000000000E+00  0.00000000000E+00  0.29730427638E+03  0.29730427638E+03  0.00000000000E+00 0. -1.
          1   -1    0    0  503    0 -0.00000000000E+00 -0.00000000000E+00 -0.12964713061E+04  0.12964713061E+04  0.00000000000E+00 0. -1.
         23    2    1    2    0    0  0.33750465994E+02  0.45121604256E+02 -0.46847096100E+03  0.48328796445E+03  0.10453306725E+03 0.  0.
         23    2    1    2    0    0 -0.23891062690E+03 -0.30073651140E+02 -0.63021753309E+03  0.68070383680E+03  0.90558612379E+02 0.  0.
        -11    1    3    3    0    0 -0.35546072785E+01  0.72268893669E+02 -0.27027366586E+03  0.27979149859E+03  0.00000000000E+00 0. -1.
         11    1    3    3    0    0  0.37305073273E+02 -0.27147289413E+02 -0.19819729514E+03  0.20349646586E+03  0.00000000000E+00 0.  1.
        -13    1    4    4    0    0 -0.45977101165E+02 -0.33365480242E+02 -0.84012306224E+02  0.10141605741E+03  0.00000000000E+00 0.  1.
         13    1    4    4    0    0 -0.19293352574E+03  0.32918291020E+01 -0.54620522687E+03  0.57928777939E+03  0.00000000000E+00 0. -1.
         21    1    1    2  503  502  0.25026835219E+03  0.36438444259E+02  0.19000236808E+03  0.31632721698E+03  0.00000000000E+00 0. -1.
          1    1    1    2  501    0 -0.45108191286E+02 -0.51486397375E+02 -0.90480903680E+02  0.11345656423E+03  0.00000000000E+00 0. -1.
<scales pt_clust_5="13000.00000" pt_clust_6="13000.00000" pt_clust_7="13000.00000" pt_clust_8="13000.00000" pt_clust_9="255.99656" pt_clust_10="13000.00000"></scales>
<clustering>
<clus scale="   90.559">  7  8 -1 -1</clus>
<clus scale="   68.451">  7 10 -1 -1</clus>
<clus scale="  104.533">  5  6 -1 -1</clus>
<clus scale="  118.753">  2  5  1 -1</clus>
<clus scale="  255.997">  1  9  2 -1</clus>
<clus scale="  255.997">  1  5  2 -1</clus>
</clustering>
</event>
<event>
10    2  0.4951045E-006  0.2389328E+03  0.7546771E-02  0.1155043E+00
         21   -1    0    0  501  502  0.00000000000E+00  0.00000000000E+00  0.76706074690E+02  0.76706074690E+02  0.00000000000E+00 0.  1.
          1   -1    0    0  503    0 -0.00000000000E+00 -0.00000000000E+00 -0.96918970726E+03  0.96918970726E+03  0.00000000000E+00 0. -1.
         23    2    1    2    0    0  0.12362239911E+02  0.48181004236E+02 -0.55356779174E+03  0.56343766996E+03  0.92468771626E+02 0.  0.
         23    2    1    2    0    0 -0.79761993100E+02 -0.63523853175E+02 -0.28545940852E+03  0.31657044469E+03  0.91282621994E+02 0.  0.
        -13    1    4    4    0    0 -0.84572309208E+02 -0.39758478982E+02 -0.27448114773E+03  0.28995363870E+03  0.00000000000E+00 0.  1.
         13    1    4    4    0    0  0.48103161077E+01 -0.23765374193E+02 -0.10978260790E+02  0.26616805998E+02  0.00000000000E+00 0. -1.
        -13    1    3    3    0    0  0.46975203538E+02  0.23384111861E+01 -0.22153494196E+03  0.22647266595E+03  0.00000000000E+00 0.  1.
         13    1    3    3    0    0 -0.34612963627E+02  0.45842593050E+02 -0.33203284978E+03  0.33696500400E+03  0.00000000000E+00 0. -1.
         21    1    1    2  503  502 -0.12111401886E+02 -0.23490170685E+02  0.32930220221E+02  0.42224087655E+02  0.00000000000E+00 0.  1.
          1    1    1    2  501    0  0.79511155075E+02  0.38833019623E+02 -0.86386652528E+02  0.12366357964E+03  0.00000000000E+00 0. -1.
<scales pt_clust_5="13000.00000" pt_clust_6="13000.00000" pt_clust_7="13000.00000" pt_clust_8="13000.00000" pt_clust_9="26.42866" pt_clust_10="13000.00000"></scales>
<clustering>
<clus scale="   26.429">  1  9  2 -1</clus>
<clus scale="   91.283">  5  6 -1 -1</clus>
<clus scale="   78.753">  5 10 -1 -1</clus>
<clus scale="   92.469">  7  8 -1 -1</clus>
<clus scale="  103.502">  2  7  1 -1</clus>
<clus scale="   26.429">  1  5  2 -1</clus>
</clustering>
</event>
<event>
10    2  0.4951045E-006  0.1671154E+03  0.7546771E-02  0.1201732E+00
         -3   -1    0    0    0  501 -0.00000000000E+00  0.00000000000E+00  0.66622539136E+03  0.66622539136E+03  0.00000000000E+00 0.  1.
         21   -1    0    0  503  502  0.00000000000E+00 -0.00000000000E+00 -0.49324987018E+02  0.49324987018E+02  0.00000000000E+00 0. -1.
         23    2    1    2    0    0  0.60124342502E+02  0.10933233327E+02  0.22112759534E+03  0.24722342477E+03  0.92127825230E+02 0.  0.
         23    2    1    2    0    0 -0.57689433916E+02 -0.11812632975E+02  0.40113150334E+03  0.41558434392E+03  0.91303093369E+02 0.  0.
        -13    1    3    3    0    0  0.74789290804E+02 -0.49082051397E+01  0.20992251112E+03  0.22290129917E+03  0.00000000000E+00 0.  1.
         13    1    3    3    0    0 -0.14664948302E+02  0.15841438466E+02  0.11205084222E+02  0.24322125602E+02  0.00000000000E+00 0. -1.
        -13    1    4    4    0    0 -0.12308690295E+02  0.35371142447E+02  0.87246385706E+02  0.94945001941E+02  0.00000000000E+00 0.  1.
         13    1    4    4    0    0 -0.45380743621E+02 -0.47183775422E+02  0.31388511763E+03  0.32063934198E+03  0.00000000000E+00 0. -1.
         21    1    1    2  503  501 -0.19425008896E+02 -0.15517018289E+02 -0.12830116410E+02  0.27977146285E+02  0.00000000000E+00 0. -1.
         -3    1    1    2    0  502  0.16990100310E+02  0.16396417937E+02  0.74714220746E+01  0.24765463402E+02  0.00000000000E+00 0.  1.
<scales pt_clust_5="13000.00000" pt_clust_6="13000.00000" pt_clust_7="13000.00000" pt_clust_8="13000.00000" pt_clust_9="24.86179" pt_clust_10="13000.00000"></scales>
<clustering>
<clus scale="   24.862">  2  9  1 -1</clus>
<clus scale="   91.303">  7  8 -1 -1</clus>
<clus scale="   16.226">  7 10 -1 -1</clus>
<clus scale="   92.128">  5  6 -1 -1</clus>
<clus scale="  105.551">  1  5  2 -1</clus>
<clus scale="   24.862">  2  5  1 -1</clus>
</clustering>
</event>
<event>
10    2  0.4951045E-006  0.3788496E+03  0.7546771E-02  0.1098381E+00
          2   -1    0    0  502    0 -0.00000000000E+00  0.00000000000E+00  0.19108939811E+03  0.19108939811E+03  0.00000000000E+00 0. -1.
         21   -1    0    0  503  502  0.00000000000E+00 -0.00000000000E+00 -0.94370880016E+03  0.94370880016E+03  0.00000000000E+00 0. -1.
         23    2    1    2    0    0  0.50552943396E+02  0.15406487680E+02 -0.58743656539E+01  0.10553650737E+03  0.91161868495E+02 0.  0.
         23    2    1    2    0    0  0.14375135645E+03  0.19178218687E+03 -0.24976085699E+03  0.35817723590E+03  0.92008624321E+02 0.  0.
        -11    1    3    3    0    0 -0.14812617484E+02  0.34161204988E+02 -0.46398588309E+01  0.37522391354E+02  0.00000000000E+00 0.  1.
         11    1    3    3    0    0  0.65365560880E+02 -0.18754717308E+02 -0.12345068231E+01  0.68014116016E+02  0.00000000000E+00 0. -1.
        -13    1    4    4    0    0  0.39811878282E+01  0.42102389074E+02 -0.11153795509E+02  0.43736348459E+02  0.00000000000E+00 0.  1.
         13    1    4    4    0    0  0.13977016862E+03  0.14967979779E+03 -0.23860706148E+03  0.31444088744E+03  0.00000000000E+00 0. -1.
         21    1    1    2  503  501 -0.15834217091E+03 -0.27603129643E+03 -0.50076578647E+03  0.59332275584E+03  0.00000000000E+00 0. -1.
          2    1    1    2  501    0 -0.35962128936E+02  0.68842621883E+02  0.37816070604E+01  0.77761699166E+02  0.00000000000E+00 0. -1.
<scales pt_clust_5="13000.00000" pt_clust_6="13000.00000" pt_clust_7="13000.00000" pt_clust_8="13000.00000" pt_clust_9="305.83312" pt_clust_10="13000.00000"></scales>
<clustering>
<clus scale="   91.162">  5  6 -1 -1</clus>
<clus scale="   92.009">  7  8 -1 -1</clus>
<clus scale="   77.670">  7 10 -1 -1</clus>
<clus scale="  105.373">  1  5  2 -1</clus>
<clus scale="  305.833">  2  9  1 -1</clus>
<clus scale="  305.833">  2  5  1 -1</clus>
</clustering>
</event>
<event>
10    2  0.4951045E-006  0.1661339E+03  0.7546771E-02  0.1208276E+00
         21   -1    0    0  503  502  0.00000000000E+00  0.00000000000E+00  0.30532415589E+03  0.30532415589E+03  0.00000000000E+00 0. -1.
          1   -1    0    0  502    0 -0.00000000000E+00 -0.00000000000E+00 -0.11516910785E+03  0.11516910785E+03  0.00000000000E+00 0. -1.
         23    2    1    2    0    0 -0.52876655705E+02  0.39622517842E+02  0.30274101570E+01  0.10004009253E+03  0.75053116274E+02 0.  0.
         23    2    1    2    0    0  0.49872992263E+02  0.49867765246E+02  0.99947170671E+01  0.11413960024E+03  0.89184329372E+02 0.  0.
        -11    1    4    4    0    0  0.53505471615E+02  0.72112349281E+02  0.15033232236E+02  0.91044079890E+02  0.00000000000E+00 0. -1.
         11    1    4    4    0    0 -0.36324793516E+01 -0.22244584034E+02 -0.50385151689E+01  0.23095520349E+02  0.00000000000E+00 0.  1.
        -13    1    3    3    0    0 -0.42587548528E+02 -0.10220259010E+02  0.17445684644E+02  0.47143450198E+02  0.00000000000E+00 0.  1.
         13    1    3    3    0    0 -0.10289107177E+02  0.49842776852E+02 -0.14418274487E+02  0.52896642332E+02  0.00000000000E+00 0. -1.
         21    1    1    2  503  501  0.92090754275E+01 -0.46758431888E+02  0.14459653934E+03  0.15224755240E+03  0.00000000000E+00 0. -1.
          1    1    1    2  501    0 -0.62054119856E+01 -0.42731851200E+02  0.32536381468E+02  0.54066018569E+02  0.00000000000E+00 0. -1.
<scales pt_clust_5="13000.00000" pt_clust_6="13000.00000" pt_clust_7="13000.00000" pt_clust_8="13000.00000" pt_clust_9="47.65667" pt_clust_10="13000.00000"></scales>
<clustering>
<clus scale="   47.657">  1  9  2 -1</clus>
<clus scale="   75.053">  7  8 -1 -1</clus>
<clus scale="   89.184">  5  6 -1 -1</clus>
<clus scale="   55.757">  5 10 -1 -1</clus>
<clus scale="   93.311">  2  7  1 -1</clus>
<clus scale="   47.657">  1  5  2 -1</clus>
</clustering>
</event>
<event>
10    2  0.4951045E-006  0.1714931E+03  0.7546771E-02  0.1203020E+00
          1   -1    0    0  503    0 -0.00000000000E+00  0.00000000000E+00  0.42839265296E+03  0.42839265296E+03  0.00000000000E+00 0. -1.
         21   -1    0    0  501  502  0.00000000000E+00 -0.00000000000E+00 -0.11601759433E+03  0.11601759433E+03  0.00000000000E+00 0.  1.
         23    2    1    2    0    0 -0.25184550007E+02  0.57859594007E+02  0.60625451019E+02  0.12585648599E+03  0.90456705539E+02 0.  0.
         23    2    1    2    0    0  0.23052331298E+02 -0.38298502562E+02  0.26215889645E+03  0.28078294494E+03  0.90075467842E+02 0.  0.
        -13    1    3    3    0    0  0.31537470849E+02  0.45473929068E+01  0.23628533645E+02  0.39668607891E+02  0.00000000000E+00 0.  1.
         13    1    3    3    0    0 -0.56722020856E+02  0.53312201100E+02  0.36996917374E+02  0.86187878099E+02  0.00000000000E+00 0. -1.
        -13    1    4    4    0    0 -0.42265234568E+01  0.27688291173E+02  0.56098577955E+02  0.62702116528E+02  0.00000000000E+00 0.  1.
         13    1    4    4    0    0  0.27278854755E+02 -0.65986793735E+02  0.20606031849E+03  0.21808082841E+03  0.00000000000E+00 0. -1.
         21    1    1    2  503  502  0.42461091625E+02 -0.49023184559E+02 -0.43288924727E+02  0.77975303336E+02  0.00000000000E+00 0.  1.
          1    1    1    2  501    0 -0.40328872915E+02  0.29462093115E+02  0.32879635893E+02  0.59795513024E+02  0.00000000000E+00 0. -1.
<scales pt_clust_5="13000.00000" pt_clust_6="13000.00000" pt_clust_7="13000.00000" pt_clust_8="13000.00000" pt_clust_9="64.85535" pt_clust_10="13000.00000"></scales>
<clustering>
<clus scale="   64.855">  2  9  1 -1</clus>
<clus scale="   90.075">  7  8 -1 -1</clus>
<clus scale="   34.766">  7 10 -1 -1</clus>
<clus scale="   90.457">  5  6 -1 -1</clus>
<clus scale="   94.989">  1  5  2 -1</clus>
<clus scale="   64.855">  2  5  1 -1</clus>
</clustering>
</event>
<event>
10    2  0.4951045E-006  0.1405917E+03  0.7546771E-02  0.1223782E+00
         21   -1    0    0  501  502  0.00000000000E+00  0.00000000000E+00  0.33331483042E+02  0.33331483042E+02  0.00000000000E+00 0.  1.
          1   -1    0    0  503    0 -0.00000000000E+00 -0.00000000000E+00 -0.97311136894E+03  0.97311136894E+03  0.00000000000E+00 0. -1.
         23    2    1    2    0    0 -0.43241507042E+02  0.48749041246E+02 -0.40249295613E+03  0.41770275174E+03  0.90712249032E+02 0.  0.
         23    2    1    2    0    0 -0.23147542261E+02 -0.57641700541E+02 -0.32797030049E+03  0.34452331053E+03  0.85284342882E+02 0.  0.
        -13    1    3    3    0    0 -0.36966332662E+02  0.69559317801E+02 -0.37204444386E+03  0.38029209386E+03  0.00000000000E+00 0. -1.
         13    1    3    3    0    0 -0.62751743794E+01 -0.20810276555E+02 -0.30448512265E+02  0.37410657879E+02  0.00000000000E+00 0.  1.
        -13    1    4    4    0    0  0.31773907891E+02 -0.27267554399E+02 -0.11006928775E+03  0.11776395396E+03  0.00000000000E+00 0. -1.
         13    1    4    4    0    0 -0.54921450151E+02 -0.30374146142E+02 -0.21790101274E+03  0.22675935657E+03  0.00000000000E+00 0.  1.
         21    1    1    2  503  502  0.75513081190E+02  0.38424559656E+02 -0.18928944499E+03  0.20738651402E+03  0.00000000000E+00 0. -1.
          1    1    1    2  501    0 -0.91240318881E+01 -0.29531900361E+02 -0.20027184299E+02  0.36830275695E+02  0.00000000000E+00 0. -1.
<scales pt_clust_5="13000.00000" pt_clust_6="13000.00000" pt_clust_7="13000.00000" pt_clust_8="13000.00000" pt_clust_9="84.72705" pt_clust_10="13000.00000"></scales>
<clustering>
<clus scale="   84.727">  1  9  2 -1</clus>
<clus scale="   85.284">  7  8 -1 -1</clus>
<clus scale="   23.510">  7 10 -1 -1</clus>
<clus scale="   90.712">  5  6 -1 -1</clus>
<clus scale="  110.937">  2  5  1 -1</clus>
<clus scale="   84.727">  1  5  2 -1</clus>
</clustering>
</event>
<event>
10    2  0.4951045E-006  0.1903901E+03  0.7546771E-02  0.1168833E+00
         21   -1    0    0  503  502  0.00000000000E+00  0.00000000000E+00  0.32204208047E+03  0.32204208047E+03  0.00000000000E+00 0.  1.
          1   -1    0    0  502    0 -0.00000000000E+00 -0.00000000000E+00 -0.21148261456E+03  0.21148261456E+03  0.00000000000E+00 0. -1.
         23    2    1    2    0    0  0.42685487639E+02 -0.11778702026E+03  0.14883343560E+02  0.15570398009E+03  0.91249013722E+02 0.  0.
         23    2    1    2    0    0 -0.25350791738E+02  0.73665615988E+02 -0.87717158801E+01  0.12243156192E+03  0.94038602368E+02 0.  0.
        -11    1    4    4    0    0 -0.45603264757E+02  0.69741127341E+02  0.21260191093E+02  0.85996966950E+02  0.00000000000E+00 0.  1.
         11    1    4    4    0    0  0.20252473019E+02  0.39244886466E+01 -0.30031906973E+02  0.36434594975E+02  0.00000000000E+00 0. -1.
        -13    1    3    3    0    0  0.23422080643E+02 -0.32773482059E+02 -0.36634243651E+02  0.54449635406E+02  0.00000000000E+00 0.  1.
         13    1    3    3    0    0  0.19263406996E+02 -0.85013538198E+02  0.51517587211E+02  0.10125434469E+03  0.00000000000E+00 0. -1.
         21    1    1    2  503  501 -0.38160804589E+02  0.42381035028E+01  0.17088765266E+03  0.17514793279E+03  0.00000000000E+00 0.  1.
          1    1    1    2  501    0  0.20826108688E+02  0.39883300767E+02 -0.66439814428E+02  0.80241220232E+02  0.00000000000E+00 0. -1.
<scales pt_clust_5="13000.00000" pt_clust_6="13000.00000" pt_clust_7="13000.00000" pt_clust_8="13000.00000" pt_clust_9="38.39542" pt_clust_10="13000.00000"></scales>
<clustering>
<clus scale="   38.395">  1  9  2 -1</clus>
<clus scale="   91.249">  7  8 -1 -1</clus>
<clus scale="   94.039">  5  6 -1 -1</clus>
<clus scale="   44.380">  5 10 -1 -1</clus>
<clus scale="  148.557">  2  7  1 -1</clus>
<clus scale="   38.395">  1  5  2 -1</clus>
</clustering>
</event>
<event>
10    2  0.4951045E-006  0.1387301E+03  0.7546771E-02  0.1232731E+00
          1   -1    0    0  503    0 -0.00000000000E+00  0.00000000000E+00  0.40979127521E+03  0.40979127521E+03  0.00000000000E+00 0. -1.
         21   -1    0    0  501  502  0.00000000000E+00 -0.00000000000E+00 -0.78671779251E+02  0.78671779251E+02  0.00000000000E+00 0. -1.
         23    2    1    2    0    0 -0.12942794151E+01  0.25580955926E+01  0.91531948215E+02  0.12893734118E+03  0.90766300983E+02 0.  0.
         23    2    1    2    0    0  0.29093348508E+02  0.23987324236E+02  0.19280184338E+03  0.21602274570E+03  0.89841311182E+02 0.  0.
        -11    1    3    3    0    0 -0.46836938099E+00  0.32141976327E+02 -0.61816557793E+00  0.32151331866E+02  0.00000000000E+00 0. -1.
         11    1    3    3    0    0 -0.82591003416E+00 -0.29583880734E+02  0.92150113793E+02  0.96786009313E+02  0.00000000000E+00 0.  1.
        -13    1    4    4    0    0  0.48790606071E+02  0.40806629360E+02  0.91323044897E+02  0.11129062301E+03  0.00000000000E+00 0. -1.
         13    1    4    4    0    0 -0.19697257564E+02 -0.16819305124E+02  0.10147879849E+03  0.10473212269E+03  0.00000000000E+00 0.  1.
         21    1    1    2  503  502 -0.75223603014E+01 -0.72154065569E+02 -0.35288674236E+01  0.72630902431E+02  0.00000000000E+00 0. -1.
          1    1    1    2  501    0 -0.20276708791E+02  0.45608645740E+02  0.50314571789E+02  0.70872065160E+02  0.00000000000E+00 0. -1.
<scales pt_clust_5="13000.00000" pt_clust_6="13000.00000" pt_clust_7="13000.00000" pt_clust_8="13000.00000" pt_clust_9="72.54512" pt_clust_10="13000.00000"></scales>
<clustering>
<clus scale="   72.545">  2  9  1 -1</clus>
<clus scale="   89.841">  7  8 -1 -1</clus>
<clus scale="   35.205">  7 10 -1 -1</clus>
<clus scale="   90.766">  5  6 -1 -1</clus>
<clus scale="   95.932">  1  5  2 -1</clus>
<clus scale="   72.545">  2  5  1 -1</clus>
</clustering>
</event>
<event>
10    2  0.4951045E-006  0.2678869E+03  0.7546771E-02  0.1121548E+00
          2   -1    0    0  502    0 -0.00000000000E+00  0.00000000000E+00  0.14272084214E+04  0.14272084214E+04  0.00000000000E+00 0. -1.
         21   -1    0    0  503  502  0.00000000000E+00 -0.00000000000E+00 -0.58037982791E+02  0.58037982791E+02  0.00000000000E+00 0. -1.
         23    2    1    2    0    0  0.43957364628E+02 -0.10498033435E+03  0.38245768747E+03  0.40945780968E+03  0.91807922872E+02 0.  0.
         23    2    1    2    0    0 -0.13796154209E+03  0.60690925838E+02  0.70119351694E+03  0.72301180037E+03  0.91416298841E+02 0.  0.
        -11    1    4    4    0    0 -0.13015031809E+03  0.79854215271E+02  0.65202435431E+03  0.66966525937E+03  0.00000000000E+00 0. -1.
         11    1    4    4    0    0 -0.78112239993E+01 -0.19163289434E+02  0.49169162633E+02  0.53346540997E+02  0.00000000000E+00 0.  1.
        -13    1    3    3    0    0 -0.35666338680E+01 -0.63929723158E+02  0.29451551566E+03  0.30139528753E+03  0.00000000000E+00 0. -1.
         13    1    3    3    0    0  0.47523998496E+02 -0.41050611189E+02  0.87942171812E+02  0.10806252216E+03  0.00000000000E+00 0.  1.
         21    1    1    2  503  501  0.40826417660E+02 -0.47562890068E+02  0.18372825758E+02  0.65319106063E+02  0.00000000000E+00 0. -1.
          2    1    1    2  501    0  0.53177759803E+02  0.91852298577E+02  0.26714640843E+03  0.28745768806E+03  0.00000000000E+00 0. -1.
<scales pt_clust_5="13000.00000" pt_clust_6="13000.00000" pt_clust_7="13000.00000" pt_clust_8="13000.00000" pt_clust_9="62.68193" pt_clust_10="13000.00000"></scales>
<clustering>
<clus scale="   62.682">  2  9  1 -1</clus>
<clus scale="   91.416">  5  6 -1 -1</clus>
<clus scale="   91.808">  7  8 -1 -1</clus>
<clus scale="  101.550">  5 10 -1 -1</clus>
<clus scale="  165.177">  1  7  2 -1</clus>
<clus scale="   62.682">  2  5  1 -1</clus>
</clustering>
</event>
<event>
10    2  0.4951045E-006  0.1514279E+03  0.7546771E-02  0.1215156E+00
          2   -1    0    0  502    0 -0.00000000000E+00  0.00000000000E+00  0.68404388951E+03  0.68404388951E+03  0.00000000000E+00 0. -1.
         21   -1    0    0  503  502  0.00000000000E+00 -0.00000000000E+00 -0.37676253096E+02  0.37676253096E+02  0.00000000000E+00 0. -1.
         23    2    1    2    0    0 -0.22808123756E+02 -0.49702911716E+02  0.18171917486E+03  0.20931412059E+03  0.88317340447E+02 0.  0.
         23    2    1    2    0    0  0.26413283820E+02 -0.97979683139E+01  0.31055774729E+03  0.32409727604E+03  0.88313465511E+02 0.  0.
        -11    1    3    3    0    0  0.97617782483E+01  0.22557297649E+02  0.40659404251E+02  0.47511168643E+02  0.00000000000E+00 0.  1.
         11    1    3    3    0    0 -0.32569902004E+02 -0.72260209365E+02  0.14105977061E+03  0.16180295194E+03  0.00000000000E+00 0. -1.
        -13    1    4    4    0    0 -0.28074648040E+02  0.12987130519E+02  0.14656669639E+03  0.14979535344E+03  0.00000000000E+00 0.  1.
         13    1    4    4    0    0  0.54487931860E+02 -0.22785098833E+02  0.16399105090E+03  0.17430192261E+03  0.00000000000E+00 0. -1.
         21    1    1    2  503  501 -0.21944852236E+02  0.24093924713E+01 -0.92806197157E+00  0.22096221640E+02  0.00000000000E+00 0.  1.
          2    1    1    2  501    0  0.18339692171E+02  0.57091487559E+02  0.15501877623E+03  0.16621252433E+03  0.00000000000E+00 0. -1.
<scales pt_clust_5="13000.00000" pt_clust_6="13000.00000" pt_clust_7="13000.00000" pt_clust_8="13000.00000" pt_clust_9="22.07672" pt_clust_10="13000.00000"></scales>
<clustering>
<clus scale="   22.077">  2  9  1 -1</clus>
<clus scale="   88.313">  7  8 -1 -1</clus>
<clus scale="   59.201">  7 10 -1 -1</clus>
<clus scale="   88.317">  5  6 -1 -1</clus>
<clus scale="  106.432">  1  5  2 -1</clus>
<clus scale="   22.077">  2  5  1 -1</clus>
</clustering>
</event>
<event>
10    2  0.4951045E-006  0.1927732E+03  0.7546771E-02  0.1171837E+00
         21   -1    0    0  503  502  0.00000000000E+00  0.00000000000E+00  0.20989993638E+03  0.20989993638E+03  0.00000000000E+00 0.  1.
         -2   -1    0    0    0  501 -0.00000000000E+00 -0.00000000000E+00 -0.79452619610E+03  0.79452619610E+03  0.00000000000E+00 0.  1.
         23    2    1    2    0    0  0.70312330937E+02  0.41738034871E+02 -0.22819909611E+03  0.25912918388E+03  0.91581761489E+02 0.  0.
         23    2    1    2    0    0 -0.36407767003E+02 -0.11738315920E+03 -0.46430408652E+03  0.48854370145E+03  0.89399842911E+02 0.  0.
        -11    1    3    3    0    0  0.79984670031E+02  0.17400246651E+02 -0.10478529740E+03  0.13296719360E+03  0.00000000000E+00 0.  1.
         11    1    3    3    0    0 -0.96723390946E+01  0.24337788220E+02 -0.12341379871E+03  0.12616199028E+03  0.00000000000E+00 0. -1.
        -11    1    4    4    0    0 -0.33693050715E+02 -0.86985729160E+02 -0.43928638828E+03  0.44908158465E+03  0.00000000000E+00 0.  1.
         11    1    4    4    0    0 -0.27147162878E+01 -0.30397430042E+02 -0.25017698239E+02  0.39462116807E+02  0.00000000000E+00 0. -1.
         21    1    1    2  503  501  0.45341274308E+01  0.52421231227E+02  0.17121026404E+03  0.17911308804E+03  0.00000000000E+00 0.  1.
         -2    1    1    2    0  502 -0.38438691364E+02  0.23223893104E+02 -0.63333341133E+02  0.77640159091E+02  0.00000000000E+00 0.  1.
<scales pt_clust_5="13000.00000" pt_clust_6="13000.00000" pt_clust_7="13000.00000" pt_clust_8="13000.00000" pt_clust_9="52.61695" pt_clust_10="13000.00000"></scales>
<clustering>
<clus scale="   52.617">  1  9  2 -1</clus>
<clus scale="   89.400">  7  8 -1 -1</clus>
<clus scale="   50.635">  7 10 -1 -1</clus>
<clus scale="   91.582">  5  6 -1 -1</clus>
<clus scale="  133.618">  2  5  1 -1</clus>
<clus scale="   52.617">  1  5  2 -1</clus>
</clustering>
</event>
<event>
10    2  0.4951045E-006  0.2139628E+03  0.7546771E-02  0.1166724E+00
          1   -1    0    0  503    0 -0.00000000000E+00  0.00000000000E+00  0.32308602340E+03  0.32308602340E+03  0.00000000000E+00 0. -1.
         21   -1    0    0  501  502  0.00000000000E+00 -0.00000000000E+00 -0.13401841765E+03  0.13401841765E+03  0.00000000000E+00 0. -1.
         23    2    1    2    0    0  0.79528864073E+02  0.18387862611E+02  0.79092714204E+02  0.14779419548E+03  0.94469640967E+02 0.  0.
         23    2    1    2    0    0 -0.61219441215E+02 -0.57235813742E+02  0.21388383742E+02  0.12580649053E+03  0.91356727954E+02 0.  0.
        -11    1    3    3    0    0  0.13866717283E+01  0.23147016554E+02 -0.13269853285E+02  0.26716965397E+02  0.00000000000E+00 0.  1.
         11    1    3    3    0    0  0.78142192345E+02 -0.47591539427E+01  0.92362567489E+02  0.12107723008E+03  0.00000000000E+00 0. -1.
        -13    1    4    4    0    0 -0.39073773292E+02  0.45107958587E+01  0.41516288792E+02  0.57190115174E+02  0.00000000000E+00 0.  1.
         13    1    4    4    0    0 -0.22145667923E+02 -0.61746609601E+02 -0.20127905050E+02  0.68616375354E+02  0.00000000000E+00 0. -1.
         21    1    1    2  503  502 -0.81291442618E+02 -0.84658857978E+01  0.40533606420E+02  0.91230165596E+02  0.00000000000E+00 0. -1.
          1    1    1    2  501    0  0.62982019759E+02  0.47313836929E+02  0.48052901382E+02  0.92273589446E+02  0.00000000000E+00 0. -1.
<scales pt_clust_5="13000.00000" pt_clust_6="13000.00000" pt_clust_7="13000.00000" pt_clust_8="13000.00000" pt_clust_9="81.73112" pt_clust_10="13000.00000"></scales>
<clustering>
<clus scale="   81.731">  2  9  1 -1</clus>
<clus scale="   91.357">  7  8 -1 -1</clus>
<clus scale="   65.080">  7 10 -1 -1</clus>
<clus scale="   94.470">  5  6 -1 -1</clus>
<clus scale="  109.860">  1  5  2 -1</clus>
<clus scale="   81.731">  2  5  1 -1</clus>
</clustering>
</event>
<event>
10    2  0.4951045E-006  0.2647284E+03  0.7546771E-02  0.1119163E+00
          4   -1    0    0  503    0 -0.00000000000E+00  0.00000000000E+00  0.11073149461E+04  0.11073149461E+04  0.00000000000E+00 0. -1.
         21   -1    0    0  501  502  0.00000000000E+00 -0.00000000000E+00 -0.87146588598E+02  0.87146588598E+02  0.00000000000E+00 0. -1.
         23    2    1    2    0    0  0.14956924277E+03  0.95467281231E+01  0.65177671528E+03  0.67458391583E+03  0.88252334341E+02 0.  0.
         23    2    1    2    0    0 -0.53832515172E+02 -0.79824931725E+02  0.24311454907E+03  0.27434166693E+03  0.82998233884E+02 0.  0.
        -13    1    3    3    0    0  0.78741091265E+02 -0.34621875801E+02  0.40624317407E+03  0.41524974439E+03  0.00000000000E+00 0. -1.
         13    1    3    3    0    0  0.70828151500E+02  0.44168603924E+02  0.24553354122E+03  0.25933417145E+03  0.00000000000E+00 0.  1.
        -13    1    4    4    0    0  0.52374554354E+01 -0.65808453536E+02  0.11588794400E+03  0.13337240742E+03  0.00000000000E+00 0. -1.
         13    1    4    4    0    0 -0.59069970607E+02 -0.14016478189E+02  0.12722660507E+03  0.14096925951E+03  0.00000000000E+00 0.  1.
         21    1    1    2  503  502  0.47145673117E+02  0.29357164208E+02  0.77927488013E+01  0.56082836214E+02  0.00000000000E+00 0.  1.
          4    1    1    2  501    0 -0.14288240071E+03  0.40921039395E+02  0.11748434440E+03  0.18945311577E+03  0.00000000000E+00 0. -1.
<scales pt_clust_5="13000.00000" pt_clust_6="13000.00000" pt_clust_7="13000.00000" pt_clust_8="13000.00000" pt_clust_9="55.53879" pt_clust_10="13000.00000"></scales>
<clustering>
<clus scale="   55.539">  2  9  1 -1</clus>
<clus scale="   82.998">  7  8 -1 -1</clus>
<clus scale="   88.252">  5  6 -1 -1</clus>
<clus scale="  129.512">  7 10 -1 -1</clus>
<clus scale="  181.675">  1  5  2 -1</clus>
<clus scale="   55.539">  2  5  1 -1</clus>
</clustering>
</event>
<event>
10    2  0.4951045E-006  0.2592055E+03  0.7546771E-02  0.1130476E+00
          2   -1    0    0  503    0 -0.00000000000E+00  0.00000000000E+00  0.15437191502E+03  0.15437191502E+03  0.00000000000E+00 0. -1.
         21   -1    0    0  501  502  0.00000000000E+00 -0.00000000000E+00 -0.48249477580E+03  0.48249477580E+03  0.00000000000E+00 0.  1.
         23    2    1    2    0    0 -0.92827757988E+02  0.80597052063E+02  0.31664945816E+02  0.15422926980E+03  0.87584938284E+02 0.  0.
         23    2    1    2    0    0 -0.43783646108E+02  0.13310304619E+02 -0.47508163521E+02  0.11265647229E+03  0.91325151368E+02 0.  0.
        -11    1    3    3    0    0 -0.28991122797E+02  0.77515425391E+02 -0.32306378702E+00  0.82760079416E+02  0.00000000000E+00 0.  1.
         11    1    3    3    0    0 -0.63836635190E+02  0.30816266717E+01  0.31988009603E+02  0.71469190381E+02  0.00000000000E+00 0. -1.
        -13    1    4    4    0    0 -0.50824359985E+02  0.44909255457E+02 -0.21560915740E+02  0.71167618206E+02  0.00000000000E+00 0.  1.
         13    1    4    4    0    0  0.70407138767E+01 -0.31598950837E+02 -0.25947247780E+02  0.41488854085E+02  0.00000000000E+00 0. -1.
         21    1    1    2  503  502  0.87299508229E+01 -0.38189959478E+02 -0.15446063250E+03  0.15935109676E+03  0.00000000000E+00 0.  1.
          2    1    1    2  501    0  0.12788145327E+03 -0.55717397204E+02 -0.15781901057E+03  0.21062985197E+03  0.00000000000E+00 0. -1.
<scales pt_clust_5="13000.00000" pt_clust_6="13000.00000" pt_clust_7="13000.00000" pt_clust_8="13000.00000" pt_clust_9="39.17506" pt_clust_10="13000.00000"></scales>
<clustering>
<clus scale="   39.175">  2  9  1 -1</clus>
<clus scale="   87.585">  5  6 -1 -1</clus>
<clus scale="   91.325">  7  8 -1 -1</clus>
<clus scale="  146.201">  1  5  2 -1</clus>
<clus scale="   96.336">  7 10 -1 -1</clus>
<clus scale="   39.175">  2  5  1 -1</clus>
</clustering>
</event>
<event>
10    2  0.4951045E-006  0.3411029E+03  0.7546771E-02  0.1106543E+00
          1   -1    0    0  503    0 -0.00000000000E+00  0.00000000000E+00  0.22322208985E+03  0.22322208985E+03  0.00000000000E+00 0. -1.
         21   -1    0    0  501  502  0.00000000000E+00 -0.00000000000E+00 -0.58502730438E+03  0.58502730438E+03  0.00000000000E+00 0. -1.
         23    2    1    2    0    0  0.45269154433E+02  0.57770550269E+02  0.96912542020E+02  0.15260513638E+03  0.92247244015E+02 0.  0.
         23    2    1    2    0    0  0.77160254181E+02 -0.93770900777E+02 -0.34845704666E+02  0.15564541611E+03  0.90909767157E+02 0.  0.
        -11    1    4    4    0    0 -0.35810191984E+01 -0.51009223671E+02  0.12643722698E+02  0.52674740832E+02  0.00000000000E+00 0.  1.
         11    1    4    4    0    0  0.80741273380E+02 -0.42761677106E+02 -0.47489427364E+02  0.10297067528E+03  0.00000000000E+00 0. -1.
        -13    1    3    3    0    0  0.69264729907E+02  0.59217270240E+02  0.88787165295E+02  0.12722990460E+03  0.00000000000E+00 0. -1.
         13    1    3    3    0    0 -0.23995575475E+02 -0.14467199715E+01  0.81253767251E+01  0.25375231782E+02  0.00000000000E+00 0.  1.
         21    1    1    2  503  502  0.27800074764E+02 -0.47199156621E+02 -0.24881086902E+03  0.25476941159E+03  0.00000000000E+00 0. -1.
          1    1    1    2  501    0 -0.15022948338E+03  0.83199507129E+02 -0.17506118287E+03  0.24522943015E+03  0.00000000000E+00 0. -1.
<scales pt_clust_5="13000.00000" pt_clust_6="13000.00000" pt_clust_7="13000.00000" pt_clust_8="13000.00000" pt_clust_9="54.77777" pt_clust_10="13000.00000"></scales>
<clustering>
<clus scale="   54.778">  2  9  1 -1</clus>
<clus scale="   90.910">  5  6 -1 -1</clus>
<clus scale="   92.247">  7  8 -1 -1</clus>
<clus scale="  116.927">  1  7  2 -1</clus>
<clus scale="  137.710">  5 10 -1 -1</clus>
<clus scale="   54.778">  2  5  1 -1</clus>
</clustering>
</event>
<event>
10    2  0.4951045E-006  0.2438657E+03  0.7546771E-02  0.1124445E+00
         -1   -1    0    0    0  501 -0.00000000000E+00  0.00000000000E+00  0.68272226106E+03  0.68272226106E+03  0.00000000000E+00 0.  1.
         21   -1    0    0  503  502  0.00000000000E+00 -0.00000000000E+00 -0.10431113350E+03  0.10431113350E+03  0.00000000000E+00 0.  1.
         23    2    1    2    0    0 -0.89328578114E+02 -0.10966767425E+03  0.18083758572E+03  0.25355207383E+03  0.10760960967E+03 0.  0.
         23    2    1    2    0    0  0.52135849127E+02  0.80140764791E+02  0.24380657965E+03  0.27797674047E+03  0.93213362843E+02 0.  0.
        -13    1    3    3    0    0 -0.48987040989E+02  0.76367963938E+01  0.28825369497E+02  0.57349392069E+02  0.00000000000E+00 0. -1.
         13    1    3    3    0    0 -0.40341537125E+02 -0.11730447064E+03  0.15201221622E+03  0.19620268176E+03  0.00000000000E+00 0.  1.
        -13    1    4    4    0    0 -0.66050234870E+01  0.59634776923E+02  0.64075998716E+02  0.87781926188E+02  0.00000000000E+00 0. -1.
         13    1    4    4    0    0  0.58740872614E+02  0.20505987868E+02  0.17973058094E+03  0.19019481428E+03  0.00000000000E+00 0.  1.
         21    1    1    2  503  501 -0.60905746595E+02 -0.48048464709E+02  0.73710256731E+02  0.10701105960E+03  0.00000000000E+00 0.  1.
         -1    1    1    2    0  502  0.98098475582E+02  0.77575374167E+02  0.80056705454E+02  0.14849352066E+03  0.00000000000E+00 0.  1.
<scales pt_clust_5="13000.00000" pt_clust_6="13000.00000" pt_clust_7="13000.00000" pt_clust_8="13000.00000" pt_clust_9="77.57683" pt_clust_10="13000.00000"></scales>
<clustering>
<clus scale="   77.577">  2  9  1 -1</clus>
<clus scale="   93.213">  7  8 -1 -1</clus>
<clus scale="   94.783">  7 10 -1 -1</clus>
<clus scale="  107.610">  5  6 -1 -1</clus>
<clus scale="  203.729">  1  5  2 -1</clus>
<clus scale="   77.577">  2  5  1 -1</clus>
</clustering>
</event>
<event>
10    2  0.4951045E-006  0.2220309E+03  0.7546771E-02  0.1152952E+00
          1   -1    0    0  502    0 -0.00000000000E+00  0.00000000000E+00  0.29193597586E+03  0.29193597586E+03  0.00000000000E+00 0. -1.
         21   -1    0    0  503  502  0.00000000000E+00 -0.00000000000E+00 -0.32255392915E+03  0.32255392915E+03  0.00000000000E+00 0. -1.
         23    2    1    2    0    0  0.85950141180E+02 -0.51590107164E+02  0.18036571639E+03  0.22578785760E+03  0.91648235483E+02 0.  0.
         23    2    1    2    0    0 -0.54657845377E+02 -0.37449123903E+02 -0.99017055881E+01  0.11053127148E+03  0.87915876039E+02 0.  0.
        -11    1    4    4    0    0 -0.72446840506E+02 -0.55274560272E+01 -0.13171358744E+02  0.73841601828E+02  0.00000000000E+00 0. -1.
         11    1    4    4    0    0  0.17788995128E+02 -0.31921667875E+02  0.32696531561E+01  0.36689669655E+02  0.00000000000E+00 0.  1.
        -13    1    3    3    0    0  0.31022917951E+02 -0.10260286455E+02  0.14470546692E+03  0.14834880206E+03  0.00000000000E+00 0. -1.
         13    1    3    3    0    0  0.54927223229E+02 -0.41329820709E+02  0.35660249470E+02  0.77439055545E+02  0.00000000000E+00 0.  1.
         21    1    1    2  503  501 -0.16060925214E+02 -0.19513429770E+02 -0.15861531905E+03  0.16061614707E+03  0.00000000000E+00 0. -1.
          1    1    1    2  501    0 -0.15231370588E+02  0.10855266084E+03 -0.42466645034E+02  0.11755462885E+03  0.00000000000E+00 0. -1.
<scales pt_clust_5="13000.00000" pt_clust_6="13000.00000" pt_clust_7="13000.00000" pt_clust_8="13000.00000" pt_clust_9="25.27305" pt_clust_10="13000.00000"></scales>
<clustering>
<clus scale="   25.273">  2  9  1 -1</clus>
<clus scale="   87.916">  5  6 -1 -1</clus>
<clus scale="   91.648">  7  8 -1 -1</clus>
<clus scale="  101.635">  5 10 -1 -1</clus>
<clus scale="  135.486">  1  7  2 -1</clus>
<clus scale="   25.273">  2  5  1 -1</clus>
</clustering>
</event>
<event>
10    2  0.4951045E-006  0.2638768E+03  0.7546771E-02  0.1136229E+00
          2   -1    0    0  503    0 -0.00000000000E+00  0.00000000000E+00  0.13170484632E+04  0.13170484632E+04  0.00000000000E+00 0.  1.
         21   -1    0    0  501  502  0.00000000000E+00 -0.00000000000E+00 -0.82681702935E+02  0.82681702935E+02  0.00000000000E+00 0. -1.
         23    2    1    2    0    0  0.94858635266E+02 -0.14419436813E+02  0.49875077880E+03  0.51601978056E+03  0.91203035757E+02 0.  0.
         23    2    1    2    0    0 -0.65633050816E+02  0.14359874860E+03  0.48242316970E+03  0.51749591239E+03  0.10070554461E+03 0.  0.
        -11    1    4    4    0    0 -0.28552574570E+02 -0.71894194192E+01  0.11281796884E+03  0.11659687543E+03  0.00000000000E+00 0.  1.
         11    1    4    4    0    0 -0.37080476246E+02  0.15078816802E+03  0.36960520086E+03  0.40089903696E+03  0.00000000000E+00 0. -1.
        -13    1    3    3    0    0  0.42288213682E+02  0.38024976034E+02  0.25202354073E+03  0.25836032378E+03  0.00000000000E+00 0.  1.
         13    1    3    3    0    0  0.52570421584E+02 -0.52444412847E+02  0.24672723807E+03  0.25765945678E+03  0.00000000000E+00 0. -1.
         21    1    1    2  503  502 -0.95113018906E+02 -0.80598984115E+02  0.29640356348E+02  0.12814536016E+03  0.00000000000E+00 0. -1.
          2    1    1    2  501    0  0.65887434456E+02 -0.48580327670E+02  0.22355245541E+03  0.23806911302E+03  0.00000000000E+00 0.  1.
<scales pt_clust_5="13000.00000" pt_clust_6="13000.00000" pt_clust_7="13000.00000" pt_clust_8="13000.00000" pt_clust_9="124.67030" pt_clust_10="13000.00000"></scales>
<clustering>
<clus scale="   91.203">  7  8 -1 -1</clus>
<clus scale="  100.706">  5  6 -1 -1</clus>
<clus scale="   81.861">  5 10 -1 -1</clus>
<clus scale="  124.670">  2  9  1 -1</clus>
<clus scale="  120.418">  1  7  2 -1</clus>
<clus scale="  124.670">  2  5  1 -1</clus>
</clustering>
</event>
<event>
10    2  0.4951045E-006  0.1605608E+03  0.7546771E-02  0.1198616E+00
         21   -1    0    0  501  502  0.00000000000E+00  0.00000000000E+00  0.14863316959E+03  0.14863316959E+03  0.00000000000E+00 0.  1.
          2   -1    0    0  503    0 -0.00000000000E+00 -0.00000000000E+00 -0.43075327966E+03  0.43075327966E+03  0.00000000000E+00 0. -1.
         23    2    1    2    0    0  0.70387334690E+02  0.56625465507E+02 -0.32992532915E+03  0.35445665430E+03  0.92886902903E+02 0.  0.
         23    2    1    2    0    0 -0.66951351953E+02 -0.56446178629E+02 -0.19075385949E+02  0.12830166561E+03  0.91808455156E+02 0.  0.
        -11    1    4    4    0    0  0.23460678089E+01  0.20926643519E+02  0.50788410575E+01  0.21661557415E+02  0.00000000000E+00 0. -1.
         11    1    4    4    0    0 -0.69297419762E+02 -0.77372822148E+02 -0.24154227006E+02  0.10664010819E+03  0.00000000000E+00 0.  1.
        -11    1    3    3    0    0  0.58330846227E+02  0.76517061683E+02 -0.30728952823E+03  0.32200031446E+03  0.00000000000E+00 0. -1.
         11    1    3    3    0    0  0.12056488463E+02 -0.19891596176E+02 -0.22635800922E+02  0.32456339841E+02  0.00000000000E+00 0.  1.
         21    1    1    2  503  502 -0.69454972990E+01 -0.25119044276E+02  0.66516695609E+02  0.71440024585E+02  0.00000000000E+00 0.  1.
          2    1    1    2  501    0  0.35095145625E+01  0.24939757398E+02  0.36390942239E+00  0.25188104764E+02  0.00000000000E+00 0. -1.
<scales pt_clust_5="13000.00000" pt_clust_6="13000.00000" pt_clust_7="13000.00000" pt_clust_8="13000.00000" pt_clust_9="26.06159" pt_clust_10="13000.00000"></scales>
<clustering>
<clus scale="   26.062">  1  9  2 -1</clus>
<clus scale="   91.808">  5  6 -1 -1</clus>
<clus scale="   21.048">  5 10 -1 -1</clus>
<clus scale="   92.887">  7  8 -1 -1</clus>
<clus scale="  127.343">  2  7  1 -1</clus>
<clus scale="   26.062">  1  5  2 -1</clus>
</clustering>
</event>
<event>
10    2  0.4951045E-006  0.2788656E+03  0.7546771E-02  0.1117178E+00
         21   -1    0    0  503  502  0.00000000000E+00  0.00000000000E+00  0.65045490554E+03  0.65045490554E+03  0.00000000000E+00 0.  1.
          1   -1    0    0  502    0 -0.00000000000E+00 -0.00000000000E+00 -0.86944314525E+02  0.86944314525E+02  0.00000000000E+00 0. -1.
         23    2    1    2    0    0 -0.60596506830E+02 -0.12628824088E+03  0.13617221420E+03  0.21609563357E+03  0.92378539200E+02 0.  0.
         23    2    1    2    0    0 -0.65070000559E+02  0.15253688830E+02  0.19145494302E+03  0.22202565905E+03  0.90408064213E+02 0.  0.
        -11    1    3    3    0    0 -0.45532575876E+02 -0.19289567525E+02  0.10856707943E+02  0.50627768947E+02  0.00000000000E+00 0.  1.
         11    1    3    3    0    0 -0.15063930954E+02 -0.10699867335E+03  0.12531550626E+03  0.16546786462E+03  0.00000000000E+00 0. -1.
        -11    1    4    4    0    0 -0.42927345598E+02  0.15523217689E+02  0.19439901454E+03  0.19968651467E+03  0.00000000000E+00 0.  1.
         11    1    4    4    0    0 -0.22142654961E+02 -0.26952885902E+00 -0.29440715196E+01  0.22339144380E+02  0.00000000000E+00 0. -1.
         21    1    1    2  503  501 -0.44709316045E+01  0.22353770208E+02  0.54464661066E+02  0.59043031570E+02  0.00000000000E+00 0. -1.
          1    1    1    2  501    0  0.13013743899E+03  0.88680781841E+02  0.18141877272E+03  0.24023489587E+03  0.00000000000E+00 0. -1.
<scales pt_clust_5="13000.00000" pt_clust_6="13000.00000" pt_clust_7="13000.00000" pt_clust_8="13000.00000" pt_clust_9="22.79650" pt_clust_10="13000.00000"></scales>
<clustering>
<clus scale="   22.796">  1  9  2 -1</clus>
<clus scale="   90.408">  7  8 -1 -1</clus>
<clus scale="   92.379">  5  6 -1 -1</clus>
<clus scale="  160.811">  7 10 -1 -1</clus>
<clus scale="  163.358">  2  5  1 -1</clus>
<clus scale="   22.796">  1  5  2 -1</clus>
</clustering>
</event>
<event>
10    2  0.4951045E-006  0.3574470E+03  0.7546771E-02  0.1105201E+00
         21   -1    0    0  501  502  0.00000000000E+00  0.00000000000E+00  0.99511394483E+02  0.99511394483E+02  0.00000000000E+00 0. -1.
          2   -1    0    0  503    0 -0.00000000000E+00 -0.00000000000E+00 -0.99193610421E+03  0.99193610421E+03  0.00000000000E+00 0. -1.
         23    2    1    2    0    0  0.51230588481E+02 -0.15510035172E+02 -0.53834421304E+03  0.54868971812E+03  0.91546603790E+02 0.  0.
         23    2    1    2    0    0 -0.78141516560E+02 -0.11624131246E+03 -0.73183706365E+02  0.18279125428E+03  0.91862116408E+02 0.  0.
        -13    1    3    3    0    0  0.13082475565E+02  0.37547915677E+02 -0.16949540121E+03  0.17409677817E+03  0.00000000000E+00 0.  1.
         13    1    3    3    0    0  0.38148112916E+02 -0.53057950849E+02 -0.36884881183E+03  0.37459293994E+03  0.00000000000E+00 0. -1.
        -13    1    4    4    0    0 -0.90465172447E+02 -0.78803494506E+02 -0.28702597623E+02  0.12336035539E+03  0.00000000000E+00 0. -1.
         13    1    4    4    0    0  0.12323655887E+02 -0.37437817954E+02 -0.44481108742E+02  0.59430898887E+02  0.00000000000E+00 0.  1.
         21    1    1    2  503  502 -0.41897697405E+02 -0.28214628348E+02 -0.73053186830E+02  0.88815822952E+02  0.00000000000E+00 0. -1.
          2    1    1    2  501    0  0.68808625485E+02  0.15996597598E+03 -0.20784360349E+03  0.27115070335E+03  0.00000000000E+00 0. -1.
<scales pt_clust_5="13000.00000" pt_clust_6="13000.00000" pt_clust_7="13000.00000" pt_clust_8="13000.00000" pt_clust_9="50.51222" pt_clust_10="13000.00000"></scales>
<clustering>
<clus scale="   50.512">  1  9  2 -1</clus>
<clus scale="   91.547">  5  6 -1 -1</clus>
<clus scale="   91.862">  7  8 -1 -1</clus>
<clus scale="  105.172">  2  5  1 -1</clus>
<clus scale="  162.237">  7 10 -1 -1</clus>
<clus scale="   50.512">  1  5  2 -1</clus>
</clustering>
</event>
<event>
10    2  0.4951045E-006  0.4446599E+03  0.7546771E-02  0.1076165E+00
         21   -1    0    0  503  502  0.00000000000E+00  0.00000000000E+00  0.39295770727E+03  0.39295770727E+03  0.00000000000E+00 0.  1.
          3   -1    0    0  502    0 -0.00000000000E+00 -0.00000000000E+00 -0.10356759017E+04  0.10356759017E+04  0.00000000000E+00 0. -1.
         23    2    1    2    0    0  0.48710554391E+02 -0.55134068497E+02 -0.26036763822E+02  0.12045679668E+03  0.91757523825E+02 0.  0.
         23    2    1    2    0    0  0.10294225386E+03  0.23754182613E+02 -0.61703372361E+03  0.63306045211E+03  0.94199528299E+02 0.  0.
        -11    1    4    4    0    0  0.82857260204E+02 -0.26724996283E+02 -0.39423431161E+03  0.40373288626E+03  0.00000000000E+00 0.  1.
         11    1    4    4    0    0  0.20084993655E+02  0.50479178897E+02 -0.22279941200E+03  0.22932756585E+03  0.00000000000E+00 0. -1.
        -13    1    3    3    0    0  0.67598386435E+02 -0.21146005160E+02 -0.37198751783E+02  0.80002765684E+02  0.00000000000E+00 0.  1.
         13    1    3    3    0    0 -0.18887832044E+02 -0.33988063337E+02  0.11161987961E+02  0.40454030998E+02  0.00000000000E+00 0. -1.
         21    1    1    2  503  501 -0.16991094630E+03 -0.20267601518E+03  0.22719456301E+03  0.34866124858E+03  0.00000000000E+00 0.  1.
          3    1    1    2  501    0  0.18258138047E+02  0.23405590106E+03 -0.22684227000E+03  0.32645511159E+03  0.00000000000E+00 0. -1.
<scales pt_clust_5="13000.00000" pt_clust_6="13000.00000" pt_clust_7="13000.00000" pt_clust_8="13000.00000" pt_clust_9="265.20669" pt_clust_10="13000.00000"></scales>
<clustering>
<clus scale="   91.758">  7  8 -1 -1</clus>
<clus scale="   94.200">  5  6 -1 -1</clus>
<clus scale="  117.609">  2  7  1 -1</clus>
<clus scale="  220.580">  5 10 -1 -1</clus>
<clus scale="  265.207">  1  9  2 -1</clus>
<clus scale="  265.207">  1  5  2 -1</clus>
</clustering>
</event>
<event>
10    2  0.4951045E-006  0.3972644E+03  0.7546771E-02  0.1069618E+00
         21   -1    0    0  501  502  0.00000000000E+00  0.00000000000E+00  0.68724956111E+03  0.68724956111E+03  0.00000000000E+00 0. -1.
          2   -1    0    0  503    0 -0.00000000000E+00 -0.00000000000E+00 -0.20580908266E+03  0.20580908266E+03  0.00000000000E+00 0. -1.
         23    2    1    2    0    0 -0.13681175953E+03  0.11059803206E+03 -0.52470194288E+02  0.20616832419E+03  0.93823634375E+02 0.  0.
         23    2    1    2    0    0 -0.22530667788E+02  0.80998996715E+02  0.43425971487E+02  0.13156797262E+03  0.91410327427E+02 0.  0.
        -11    1    3    3    0    0 -0.12273857545E+03  0.12681786522E+03 -0.54207920564E+02  0.18462401657E+03  0.00000000000E+00 0. -1.
         11    1    3    3    0    0 -0.14073184077E+02 -0.16219833162E+02  0.17377262763E+01  0.21544307612E+02  0.00000000000E+00 0.  1.
        -13    1    4    4    0    0 -0.34783089710E+02 -0.61824074930E+01  0.19426871005E+02  0.40317351218E+02  0.00000000000E+00 0.  1.
         13    1    4    4    0    0  0.12252421922E+02  0.87181404208E+02  0.23999100481E+02  0.91250621404E+02  0.00000000000E+00 0. -1.
         21    1    1    2  503  502  0.85047261715E+01 -0.19308509769E+02  0.10379779953E+03  0.10592040456E+03  0.00000000000E+00 0. -1.
          2    1    1    2  501    0  0.15083770115E+03 -0.17228851901E+03  0.38668690172E+03  0.44940194240E+03  0.00000000000E+00 0. -1.
<scales pt_clust_5="13000.00000" pt_clust_6="13000.00000" pt_clust_7="13000.00000" pt_clust_8="13000.00000" pt_clust_9="21.09855" pt_clust_10="13000.00000"></scales>
<clustering>
<clus scale="   21.099">  1  9  2 -1</clus>
<clus scale="   91.410">  7  8 -1 -1</clus>
<clus scale="   93.824">  5  6 -1 -1</clus>
<clus scale="  197.204">  2  5  1 -1</clus>
<clus scale="  166.886">  7 10 -1 -1</clus>
<clus scale="   21.099">  1  5  2 -1</clus>
</clustering>
</event>
<event>
10    2  0.4951045E-006  0.2177156E+03  0.7546771E-02  0.1172619E+00
          1   -1    0    0  503    0 -0.00000000000E+00  0.00000000000E+00  0.86360326202E+03  0.86360326202E+03  0.00000000000E+00 0. -1.
         21   -1    0    0  501  502  0.00000000000E+00 -0.00000000000E+00 -0.37325541457E+02  0.37325541457E+02  0.00000000000E+00 0. -1.
         23    2    1    2    0    0  0.30879929018E+02 -0.12813744532E+02  0.19119915757E+03  0.21250518836E+03  0.86507659553E+02 0.  0.
         23    2    1    2    0    0  0.86717172925E+02  0.22752277288E+02  0.30501388758E+03  0.33247748172E+03  0.97315312454E+02 0.  0.
        -13    1    3    3    0    0  0.22124220691E+02  0.31718359138E+02  0.44548704584E+02  0.58992563326E+02  0.00000000000E+00 0. -1.
         13    1    3    3    0    0  0.87557083271E+01 -0.44532103670E+02  0.14665045298E+03  0.15351262504E+03  0.00000000000E+00 0.  1.
        -13    1    4    4    0    0  0.95529271910E+01 -0.20703703642E+02  0.10810465377E+02  0.25234260917E+02  0.00000000000E+00 0. -1.
         13    1    4    4    0    0  0.77164245734E+02  0.43455980930E+02  0.29420342220E+03  0.30724322081E+03  0.00000000000E+00 0.  1.
         21    1    1    2  503  502 -0.34328933576E+02 -0.24762486560E+02  0.63740630544E+02  0.76514863937E+02  0.00000000000E+00 0.  1.
          1    1    1    2  501    0 -0.83268168366E+02  0.14823953804E+02  0.26632404488E+03  0.27943126945E+03  0.00000000000E+00 0. -1.
<scales pt_clust_5="13000.00000" pt_clust_6="13000.00000" pt_clust_7="13000.00000" pt_clust_8="13000.00000" pt_clust_9="42.32796" pt_clust_10="13000.00000"></scales>
<clustering>
<clus scale="   42.328">  2  9  1 -1</clus>
<clus scale="   86.508">  5  6 -1 -1</clus>
<clus scale="   91.117">  1  5  2 -1</clus>
<clus scale="   97.315">  7  8 -1 -1</clus>
<clus scale="   80.693">  7 10 -1 -1</clus>
<clus scale="   42.328">  2  5  1 -1</clus>
</clustering>
</event>
<event>
10    2  0.4951045E-006  0.1985137E+03  0.7546771E-02  0.1172854E+00
         21   -1    0    0  503  502  0.00000000000E+00  0.00000000000E+00  0.97115833166E+02  0.97115833166E+02  0.00000000000E+00 0.  1.
          1   -1    0    0  502    0 -0.00000000000E+00 -0.00000000000E+00 -0.33188061607E+03  0.33188061607E+03  0.00000000000E+00 0. -1.
         23    2    1    2    0    0 -0.49624693000E+01  0.67507439377E+02 -0.10935996958E+03  0.15803751581E+03  0.91838842459E+02 0.  0.
         23    2    1    2    0    0  0.32096049730E+02 -0.12668829857E+03 -0.65569427356E+02  0.17398929357E+03  0.94301872047E+02 0.  0.
        -13    1    4    4    0    0  0.51457465143E+02 -0.77700228782E+02 -0.44466106896E+01  0.93300421319E+02  0.00000000000E+00 0.  1.
         13    1    4    4    0    0 -0.19361415413E+02 -0.48988069784E+02 -0.61122816666E+02  0.80688872251E+02  0.00000000000E+00 0. -1.
        -13    1    3    3    0    0  0.26467417881E+02 -0.53255953871E+01 -0.58449111934E+01  0.27623344518E+02  0.00000000000E+00 0.  1.
         13    1    3    3    0    0 -0.31429887181E+02  0.72833034764E+02 -0.10351505839E+03  0.13041417129E+03  0.00000000000E+00 0. -1.
         21    1    1    2  503  501 -0.77331438513E+00  0.30910732280E+02 -0.73412845185E+01  0.31779959780E+02  0.00000000000E+00 0. -1.
          1    1    1    2  501    0 -0.26360266045E+02  0.28270126909E+02 -0.52494101448E+02  0.65189680075E+02  0.00000000000E+00 0. -1.
<scales pt_clust_5="13000.00000" pt_clust_6="13000.00000" pt_clust_7="13000.00000" pt_clust_8="13000.00000" pt_clust_9="30.92040" pt_clust_10="13000.00000"></scales>
<clustering>
<clus scale="   30.920">  1  9  2 -1</clus>
<clus scale="   91.839">  7  8 -1 -1</clus>
<clus scale="   94.302">  5  6 -1 -1</clus>
<clus scale="   40.412">  5 10 -1 -1</clus>
<clus scale="  119.555">  2  7  1 -1</clus>
<clus scale="   30.920">  1  5  2 -1</clus>
</clustering>
</event>
<event>
10    2  0.4951045E-006  0.6145958E+03  0.7546771E-02  0.1044915E+00
         -1   -1    0    0    0  501 -0.00000000000E+00  0.00000000000E+00  0.37471411428E+03  0.37471411428E+03  0.00000000000E+00 0.  1.
         21   -1    0    0  501  502  0.00000000000E+00 -0.00000000000E+00 -0.61201954854E+03  0.61201954854E+03  0.00000000000E+00 0.  1.
         23    2    1    2    0    0  0.56420673986E+02  0.71288005603E+01  0.87083734253E+02  0.13890912936E+03  0.92076366118E+02 0.  0.
         23    2    1    2    0    0 -0.23383952315E+03  0.85073386178E+02 -0.22796073685E+03  0.34910864349E+03  0.89399909381E+02 0.  0.
        -11    1    4    4    0    0 -0.94811962223E+02  0.72276210349E+02 -0.14091383059E+03  0.18458024383E+03  0.00000000000E+00 0.  1.
         11    1    4    4    0    0 -0.13902756092E+03  0.12797175829E+02 -0.87046906260E+02  0.16452839966E+03  0.00000000000E+00 0. -1.
        -11    1    3    3    0    0  0.31932443179E+02 -0.36571306155E+02  0.71541137190E+02  0.86459676565E+02  0.00000000000E+00 0.  1.
         11    1    3    3    0    0  0.24488230807E+02  0.43700106715E+02  0.15542597063E+02  0.52449452795E+02  0.00000000000E+00 0. -1.
         21    1    1    2  503  502 -0.44112031584E+02  0.15672582910E+01 -0.22269857566E+03  0.22703079798E+03  0.00000000000E+00 0.  1.
         -1    1    1    2    0  503  0.22153088074E+03 -0.93769445029E+02  0.12627014399E+03  0.27168509199E+03  0.00000000000E+00 0.  1.
<scales pt_clust_5="13000.00000" pt_clust_6="13000.00000" pt_clust_7="13000.00000" pt_clust_8="13000.00000" pt_clust_9="44.13986" pt_clust_10="13000.00000"></scales>
<clustering>
<clus scale="   44.140">  2  9  1 -1</clus>
<clus scale="   89.400">  5  6 -1 -1</clus>
<clus scale="   92.076">  7  8 -1 -1</clus>
<clus scale="  106.720">  1  7  2 -1</clus>
<clus scale="  266.179">  5 10 -1 -1</clus>
<clus scale="   44.140">  2  5  1 -1</clus>
</clustering>
</event>
<event>
10    2  0.4951045E-006  0.2459845E+03  0.7546771E-02  0.1126074E+00
         -1   -1    0    0    0  501 -0.00000000000E+00  0.00000000000E+00  0.40775832190E+03  0.40775832190E+03  0.00000000000E+00 0.  1.
         21   -1    0    0  501  502  0.00000000000E+00 -0.00000000000E+00 -0.29927331385E+03  0.29927331385E+03  0.00000000000E+00 0.  1.
         23    2    1    2    0    0  0.58698694829E+02 -0.19584545069E+03  0.10629406579E+02  0.22395617514E+03  0.90787701631E+02 0.  0.
         23    2    1    2    0    0 -0.31202620883E+02  0.12955281232E+03  0.25828660561E+03  0.30441608166E+03  0.90551893416E+02 0.  0.
        -11    1    4    4    0    0 -0.38308909060E+02  0.11670606479E+02  0.42289269341E+02  0.58242234421E+02  0.00000000000E+00 0.  1.
         11    1    4    4    0    0  0.71062881763E+01  0.11788220584E+03  0.21599733627E+03  0.24617384724E+03  0.00000000000E+00 0. -1.
        -11    1    3    3    0    0  0.44605128228E+02 -0.18141717986E+03  0.37310397373E+02  0.19050951778E+03  0.00000000000E+00 0.  1.
         11    1    3    3    0    0  0.14093566602E+02 -0.14428270832E+02 -0.26680990794E+02  0.33446657359E+02  0.00000000000E+00 0. -1.
         21    1    1    2  503  502 -0.12860442840E+02  0.51980252961E+02 -0.13930649723E+03  0.14924355215E+03  0.00000000000E+00 0.  1.
         -1    1    1    2    0  503 -0.14635631106E+02  0.14312385410E+02 -0.21124506922E+02  0.29415826806E+02  0.00000000000E+00 0.  1.
<scales pt_clust_5="13000.00000" pt_clust_6="13000.00000" pt_clust_7="13000.00000" pt_clust_8="13000.00000" pt_clust_9="53.54753" pt_clust_10="13000.00000"></scales>
<clustering>
<clus scale="   53.548">  2  9  1 -1</clus>
<clus scale="   90.552">  5  6 -1 -1</clus>
<clus scale="   28.270">  5 10 -1 -1</clus>
<clus scale="   90.788">  7  8 -1 -1</clus>
<clus scale="  190.660">  1  7  2 -1</clus>
<clus scale="   53.548">  2  5  1 -1</clus>
</clustering>
</event>
<event>
10    2  0.4951045E-006  0.7160440E+03  0.7546771E-02  0.1022561E+00
          1   -1    0    0  502    0 -0.00000000000E+00  0.00000000000E+00  0.75652658938E+03  0.75652658938E+03  0.00000000000E+00 0. -1.
         21   -1    0    0  503  502  0.00000000000E+00 -0.00000000000E+00 -0.27725450338E+03  0.27725450338E+03  0.00000000000E+00 0. -1.
         23    2    1    2    0    0 -0.17941647336E+02 -0.88800945732E+02  0.90643326589E+02  0.15607285275E+03  0.89078684542E+02 0.  0.
         23    2    1    2    0    0  0.17691852547E+02 -0.21045120536E+03  0.39585140210E+03  0.45725855181E+03  0.88228902122E+02 0.  0.
        -11    1    3    3    0    0 -0.22420070484E+02  0.11350337387E+02  0.86996675183E+01  0.26592742135E+02  0.00000000000E+00 0.  1.
         11    1    3    3    0    0  0.44784231479E+01 -0.10015128312E+03  0.81943659071E+02  0.12948011062E+03  0.00000000000E+00 0. -1.
        -11    1    4    4    0    0 -0.41749826872E+01 -0.18173927730E+03  0.26384327575E+03  0.32040578888E+03  0.00000000000E+00 0. -1.
         11    1    4    4    0    0  0.21866835235E+02 -0.28711928067E+02  0.13200812635E+03  0.13685276292E+03  0.00000000000E+00 0.  1.
         21    1    1    2  503  501  0.46680336262E+02 -0.44291454019E+02  0.31466443770E+02  0.71630466815E+02  0.00000000000E+00 0. -1.
          1    1    1    2  501    0 -0.46430541473E+02  0.34354360511E+03 -0.38689086468E+02  0.34881922139E+03  0.00000000000E+00 0. -1.
<scales pt_clust_5="13000.00000" pt_clust_6="13000.00000" pt_clust_7="13000.00000" pt_clust_8="13000.00000" pt_clust_9="64.34894" pt_clust_10="13000.00000"></scales>
<clustering>
<clus scale="   64.349">  2  9  1 -1</clus>
<clus scale="   88.229">  7  8 -1 -1</clus>
<clus scale="   89.079">  5  6 -1 -1</clus>
<clus scale="  130.373">  1  5  2 -1</clus>
<clus scale="  285.922">  7 10 -1 -1</clus>
<clus scale="   64.349">  2  5  1 -1</clus>
</clustering>
</event>
<event>
10    2  0.4951045E-006  0.2947163E+03  0.7546771E-02  0.1103177E+00
          2   -1    0    0  502    0 -0.00000000000E+00  0.00000000000E+00  0.59278179149E+03  0.59278179149E+03  0.00000000000E+00 0.  1.
         21   -1    0    0  503  502  0.00000000000E+00 -0.00000000000E+00 -0.28298376540E+03  0.28298376540E+03  0.00000000000E+00 0.  1.
         23    2    1    2    0    0  0.11220103956E+03 -0.13176239981E+03  0.43921949066E+03  0.48075976846E+03  0.90916394093E+02 0.  0.
         23    2    1    2    0    0  0.22677113010E+02  0.21076007462E+02 -0.63607276788E+02  0.11594908732E+03  0.91868686968E+02 0.  0.
        -13    1    3    3    0    0  0.48890162578E+02 -0.26770409152E+02  0.24359398460E+03  0.24988984000E+03  0.00000000000E+00 0.  1.
         13    1    3    3    0    0  0.63310876978E+02 -0.10499199065E+03  0.19562550606E+03  0.23086992846E+03  0.00000000000E+00 0. -1.
        -13    1    4    4    0    0  0.56266582943E+02  0.76400611839E+00 -0.47036690944E+02  0.73341409560E+02  0.00000000000E+00 0.  1.
         13    1    4    4    0    0 -0.33589469933E+02  0.20312001344E+02 -0.16570585844E+02  0.42607677761E+02  0.00000000000E+00 0. -1.
         21    1    1    2  503  501  0.47013954315E+01 -0.27539056246E+02 -0.77387518528E+02  0.82275942789E+02  0.00000000000E+00 0.  1.
          2    1    1    2  501    0 -0.13957954800E+03  0.13822544859E+03  0.11573330742E+02  0.19678075831E+03  0.00000000000E+00 0.  1.
<scales pt_clust_5="13000.00000" pt_clust_6="13000.00000" pt_clust_7="13000.00000" pt_clust_8="13000.00000" pt_clust_9="27.93748" pt_clust_10="13000.00000"></scales>
<clustering>
<clus scale="   27.937">  2  9  1 -1</clus>
<clus scale="   90.916">  5  6 -1 -1</clus>
<clus scale="   91.869">  7  8 -1 -1</clus>
<clus scale="  186.232">  7 10 -1 -1</clus>
<clus scale="  197.672">  1  5  2 -1</clus>
<clus scale="   27.937">  2  5  1 -1</clus>
</clustering>
</event>
<event>
10    2  0.4951045E-006  0.2427697E+03  0.7546771E-02  0.1141473E+00
          2   -1    0    0  503    0 -0.00000000000E+00  0.00000000000E+00  0.11513782517E+04  0.11513782517E+04  0.00000000000E+00 0. -1.
         21   -1    0    0  501  502  0.00000000000E+00 -0.00000000000E+00 -0.47151606706E+02  0.47151606706E+02  0.00000000000E+00 0.  1.
         23    2    1    2    0    0  0.88491416408E+02 -0.38108050055E+02  0.53019958829E+03  0.54656730227E+03  0.91330489045E+02 0.  0.
         23    2    1    2    0    0 -0.13215618099E+03  0.88948119723E+02  0.31867883618E+03  0.36780107578E+03  0.91347723231E+02 0.  0.
        -11    1    3    3    0    0  0.42118475313E+02  0.18811145161E+02  0.99724699325E+02  0.10987647974E+03  0.00000000000E+00 0.  1.
         11    1    3    3    0    0  0.46372941095E+02 -0.56919195216E+02  0.43047488896E+03  0.43669082253E+03  0.00000000000E+00 0. -1.
        -13    1    4    4    0    0  0.24254051129E+00  0.39787347465E+02  0.98347679982E+02  0.10609127203E+03  0.00000000000E+00 0. -1.
         13    1    4    4    0    0 -0.13239872150E+03  0.49160772258E+02  0.22033115620E+03  0.26170980375E+03  0.00000000000E+00 0.  1.
         21    1    1    2  503  502  0.89240972013E+01 -0.28145490537E+02  0.44560003390E+01  0.29860744925E+02  0.00000000000E+00 0.  1.
          2    1    1    2  501    0  0.34740667384E+02 -0.22694579131E+02  0.25089222015E+03  0.25430073539E+03  0.00000000000E+00 0. -1.
<scales pt_clust_5="13000.00000" pt_clust_6="13000.00000" pt_clust_7="13000.00000" pt_clust_8="13000.00000" pt_clust_9="29.52640" pt_clust_10="13000.00000"></scales>
<clustering>
<clus scale="   29.526">  2  9  1 -1</clus>
<clus scale="   91.330">  5  6 -1 -1</clus>
<clus scale="   91.348">  7  8 -1 -1</clus>
<clus scale="   42.638">  7 10 -1 -1</clus>
<clus scale="  136.229">  1  5  2 -1</clus>
<clus scale="   29.526">  2  5  1 -1</clus>
</clustering>
</event>
<event>
10    2  0.4951045E-006  0.1432314E+03  0.7546771E-02  0.1229425E+00
          1   -1    0    0  503    0 -0.00000000000E+00  0.00000000000E+00  0.33994321643E+03  0.33994321643E+03  0.00000000000E+00 0. -1.
         21   -1    0    0  501  502  0.00000000000E+00 -0.00000000000E+00 -0.38816320126E+03  0.38816320126E+03  0.00000000000E+00 0. -1.
         23    2    1    2    0    0  0.13441133604E+02 -0.16583596470E+02  0.17948011805E+03  0.20120335344E+03  0.88396815068E+02 0.  0.
         23    2    1    2    0    0  0.27752414705E+02  0.67214663987E+02  0.71404771573E+02  0.13490606231E+03  0.88391157185E+02 0.  0.
        -13    1    4    4    0    0 -0.31213984530E+02  0.11392154224E+02  0.19267509552E+02  0.38410036872E+02  0.00000000000E+00 0.  1.
         13    1    4    4    0    0  0.58966399235E+02  0.55822509763E+02  0.52137262021E+02  0.96496025441E+02  0.00000000000E+00 0. -1.
        -13    1    3    3    0    0  0.28728032423E+02 -0.34086728407E+02  0.17059597100E+03  0.17632410562E+03  0.00000000000E+00 0.  1.
         13    1    3    3    0    0 -0.15286898819E+02  0.17503131936E+02  0.88841470461E+01  0.24879247815E+02  0.00000000000E+00 0. -1.
         21    1    1    2  503  502 -0.14073204317E+01 -0.48682335638E+02 -0.33491220309E+03  0.33843482996E+03  0.00000000000E+00 0. -1.
          1    1    1    2  501    0 -0.39786227877E+02 -0.19487318780E+01  0.35807328633E+02  0.53562171992E+02  0.00000000000E+00 0. -1.
<scales pt_clust_5="13000.00000" pt_clust_6="13000.00000" pt_clust_7="13000.00000" pt_clust_8="13000.00000" pt_clust_9="48.70267" pt_clust_10="13000.00000"></scales>
<clustering>
<clus scale="   48.703">  2  9  1 -1</clus>
<clus scale="   88.391">  5  6 -1 -1</clus>
<clus scale="   41.343">  5 10 -1 -1</clus>
<clus scale="   88.397">  7  8 -1 -1</clus>
<clus scale="   93.316">  1  7  2 -1</clus>
<clus scale="   48.703">  2  5  1 -1</clus>
</clustering>
</event>
<event>
10    2  0.4951045E-006  0.1824380E+03  0.7546771E-02  0.1188336E+00
         21   -1    0    0  501  502  0.00000000000E+00  0.00000000000E+00  0.13029793858E+03  0.13029793858E+03  0.00000000000E+00 0.  1.
          1   -1    0    0  503    0 -0.00000000000E+00 -0.00000000000E+00 -0.56782100070E+03  0.56782100070E+03  0.00000000000E+00 0. -1.
         23    2    1    2    0    0 -0.63553826630E+02 -0.16862405769E+02 -0.30666406799E+03  0.32639736162E+03  0.90382285146E+02 0.  0.
         23    2    1    2    0    0  0.72555089804E+02  0.88309177018E+01 -0.22163590918E+03  0.25232153189E+03  0.95924204729E+02 0.  0.
        -13    1    3    3    0    0 -0.14787037488E+02 -0.44923174906E+02 -0.80731682008E+02  0.93564697409E+02  0.00000000000E+00 0. -1.
         13    1    3    3    0    0 -0.48766789142E+02  0.28060769138E+02 -0.22593238598E+03  0.23283266421E+03  0.00000000000E+00 0.  1.
        -13    1    4    4    0    0  0.33057267020E+02  0.48860357753E+02 -0.76023349294E+02  0.96227164047E+02  0.00000000000E+00 0.  1.
         13    1    4    4    0    0  0.39497822784E+02 -0.40029440052E+02 -0.14561255989E+03  0.15609436784E+03  0.00000000000E+00 0. -1.
         21    1    1    2  503  502  0.19823986553E+02  0.10589589860E+02  0.87425370418E+02  0.90268074362E+02  0.00000000000E+00 0.  1.
          1    1    1    2  501    0 -0.28825249727E+02 -0.25581017929E+01  0.33515446299E+01  0.29131971406E+02  0.00000000000E+00 0. -1.
<scales pt_clust_5="13000.00000" pt_clust_6="13000.00000" pt_clust_7="13000.00000" pt_clust_8="13000.00000" pt_clust_9="22.47509" pt_clust_10="13000.00000"></scales>
<clustering>
<clus scale="   22.475">  1  9  2 -1</clus>
<clus scale="   90.382">  5  6 -1 -1</clus>
<clus scale="   95.924">  7  8 -1 -1</clus>
<clus scale="   21.118">  7 10 -1 -1</clus>
<clus scale="  108.794">  2  5  1 -1</clus>
<clus scale="   22.475">  1  5  2 -1</clus>
</clustering>
</event>
<event>
10    2  0.4951045E-006  0.3761797E+03  0.7546771E-02  0.1066172E+00
         21   -1    0    0  501  502  0.00000000000E+00  0.00000000000E+00  0.58201827526E+03  0.58201827526E+03  0.00000000000E+00 0. -1.
          1   -1    0    0  503    0 -0.00000000000E+00 -0.00000000000E+00 -0.20481945231E+03  0.20481945231E+03  0.00000000000E+00 0. -1.
         23    2    1    2    0    0  0.60280111639E+02 -0.24136863230E+03  0.19392388503E+03  0.32783759608E+03  0.89322492693E+02 0.  0.
         23    2    1    2    0    0 -0.17127819610E+03  0.79197103617E+02  0.53690001954E+02  0.21634851227E+03  0.91190244927E+02 0.  0.
        -13    1    3    3    0    0  0.80372743117E+02 -0.17910408954E+03  0.12459960841E+03  0.23251476328E+03  0.00000000000E+00 0. -1.
         13    1    3    3    0    0 -0.20092631478E+02 -0.62264542768E+02  0.69324276618E+02  0.95322832808E+02  0.00000000000E+00 0.  1.
        -13    1    4    4    0    0 -0.83191211948E+02 -0.10505619099E+02  0.22364142964E+02  0.86783066716E+02  0.00000000000E+00 0.  1.
         13    1    4    4    0    0 -0.88086984154E+02  0.89702722716E+02  0.31325858990E+02  0.12956544555E+03  0.00000000000E+00 0. -1.
         21    1    1    2  503  502  0.25989895880E+02  0.27173256173E+02  0.54798983435E+02  0.66458928101E+02  0.00000000000E+00 0. -1.
          1    1    1    2  501    0  0.85008188583E+02  0.13499827252E+03  0.74785952522E+02  0.17619269112E+03  0.00000000000E+00 0. -1.
<scales pt_clust_5="13000.00000" pt_clust_6="13000.00000" pt_clust_7="13000.00000" pt_clust_8="13000.00000" pt_clust_9="37.60134" pt_clust_10="13000.00000"></scales>
<clustering>
<clus scale="   37.601">  1  9  2 -1</clus>
<clus scale="   89.322">  5  6 -1 -1</clus>
<clus scale="   91.190">  7  8 -1 -1</clus>
<clus scale="  168.411">  7 10 -1 -1</clus>
<clus scale="  255.400">  2  5  1 -1</clus>
<clus scale="   37.601">  1  5  2 -1</clus>
</clustering>
</event>
<event>
10    2  0.4951045E-006  0.1225453E+03  0.7546771E-02  0.1254689E+00
         -1   -1    0    0    0  501 -0.00000000000E+00  0.00000000000E+00  0.16898205610E+03  0.16898205610E+03  0.00000000000E+00 0.  1.
         21   -1    0    0  501  502  0.00000000000E+00 -0.00000000000E+00 -0.99943035541E+02  0.99943035541E+02  0.00000000000E+00 0. -1.
         23    2    1    2    0    0  0.58846011723E+00  0.66212185272E+01  0.58067490171E+02  0.10650567349E+03  0.89036162597E+02 0.  0.
         23    2    1    2    0    0 -0.15260236017E+01 -0.87752640013E+01  0.70282125278E+01  0.91953932342E+02  0.91251278870E+02 0.  0.
        -11    1    4    4    0    0 -0.27471960713E+02 -0.38657328845E+02 -0.10657635874E+02  0.48607436687E+02  0.00000000000E+00 0. -1.
         11    1    4    4    0    0  0.25945937111E+02  0.29882064843E+02  0.17685848402E+02  0.43346495655E+02  0.00000000000E+00 0.  1.
        -11    1    3    3    0    0  0.31874373817E+02  0.22025278822E+02  0.60175592689E+02  0.71569480708E+02  0.00000000000E+00 0.  1.
         11    1    3    3    0    0 -0.31285913700E+02 -0.15404060295E+02 -0.21081025178E+01  0.34936192778E+02  0.00000000000E+00 0. -1.
         21    1    1    2  503  502  0.19641317640E+02 -0.14581048958E+02 -0.23047411354E+02  0.33609098731E+02  0.00000000000E+00 0.  1.
         -1    1    1    2    0  503 -0.18703754155E+02  0.16735094432E+02  0.26990729212E+02  0.36856387079E+02  0.00000000000E+00 0.  1.
<scales pt_clust_5="13000.00000" pt_clust_6="13000.00000" pt_clust_7="13000.00000" pt_clust_8="13000.00000" pt_clust_9="24.46198" pt_clust_10="13000.00000"></scales>
<clustering>
<clus scale="   24.462">  2  9  1 -1</clus>
<clus scale="   89.036">  7  8 -1 -1</clus>
<clus scale="   89.345">  1  7  2 -1</clus>
<clus scale="   91.251">  5  6 -1 -1</clus>
<clus scale="   22.097">  5 10 -1 -1</clus>
<clus scale="   24.462">  2  5  1 -1</clus>
</clustering>
</event>
<event>
10    2  0.4951045E-006  0.7221218E+03  0.7546771E-02  0.1031645E+00
         21   -1    0    0  501  502  0.00000000000E+00  0.00000000000E+00  0.46883320003E+03  0.46883320003E+03  0.00000000000E+00 0. -1.
          1   -1    0    0  503    0 -0.00000000000E+00 -0.00000000000E+00 -0.59758770582E+03  0.59758770582E+03  0.00000000000E+00 0. -1.
         23    2    1    2    0    0 -0.27305098858E+02  0.16948374724E+02 -0.14728243881E+03  0.17626098058E+03  0.91340027710E+02 0.  0.
         23    2    1    2    0    0  0.17796769368E+03 -0.24300218104E+03 -0.29705738632E+03  0.43290460004E+03  0.91873510803E+02 0.  0.
        -13    1    3    3    0    0 -0.13018224872E+02 -0.37541291511E+02 -0.50240353057E+02  0.64054007075E+02  0.00000000000E+00 0.  1.
         13    1    3    3    0    0 -0.14286873986E+02  0.54489666234E+02 -0.97042085758E+02  0.11220697350E+03  0.00000000000E+00 0. -1.
        -13    1    4    4    0    0  0.58438478585E+02 -0.71581160312E+02 -0.15418297707E+03  0.17975346648E+03  0.00000000000E+00 0.  1.
         13    1    4    4    0    0  0.11952921509E+03 -0.17142102073E+03 -0.14287440925E+03  0.25315113357E+03  0.00000000000E+00 0. -1.
         21    1    1    2  503  502  0.18733523956E+02  0.39378234268E+02  0.14864973324E+03  0.15491395498E+03  0.00000000000E+00 0. -1.
          1    1    1    2  501    0 -0.16939611878E+03  0.18667557205E+03  0.16693558610E+03  0.30234137025E+03  0.00000000000E+00 0. -1.
<scales pt_clust_5="13000.00000" pt_clust_6="13000.00000" pt_clust_7="13000.00000" pt_clust_8="13000.00000" pt_clust_9="43.60723" pt_clust_10="13000.00000"></scales>
<clustering>
<clus scale="   43.607">  1  9  2 -1</clus>
<clus scale="   91.340">  5  6 -1 -1</clus>
<clus scale="   91.874">  7  8 -1 -1</clus>
<clus scale="   96.923">  2  5  1 -1</clus>
<clus scale="  271.593">  7 10 -1 -1</clus>
<clus scale="   43.607">  1  5  2 -1</clus>
</clustering>
</event>
<event>
10    2  0.4951045E-006  0.6689526E+03  0.7546771E-02  0.1028734E+00
          2   -1    0    0  503    0 -0.00000000000E+00  0.00000000000E+00  0.35945598452E+03  0.35945598452E+03  0.00000000000E+00 0. -1.
         21   -1    0    0  501  502  0.00000000000E+00 -0.00000000000E+00 -0.71965833013E+03  0.71965833013E+03  0.00000000000E+00 0. -1.
         23    2    1    2    0    0  0.92801959715E+02 -0.13713030055E+02  0.12754258628E+02  0.13030984750E+03  0.89541802098E+02 0.  0.
         23    2    1    2    0    0  0.30429334165E+02  0.95571117498E+02  0.24405131549E+03  0.28341007794E+03  0.10344295438E+03 0.  0.
        -11    1    4    4    0    0  0.49770353281E+02  0.33615833838E+02  0.18896745631E+03  0.19828215223E+03  0.00000000000E+00 0. -1.
         11    1    4    4    0    0 -0.19341019116E+02  0.61955283660E+02  0.55083859178E+02  0.85127925710E+02  0.00000000000E+00 0.  1.
        -13    1    3    3    0    0  0.72768858150E+01 -0.31580791893E+02 -0.18738629238E+02  0.37435754426E+02  0.00000000000E+00 0.  1.
         13    1    3    3    0    0  0.85525073900E+02  0.17867761838E+02  0.31492887866E+02  0.92874093077E+02  0.00000000000E+00 0. -1.
         21    1    1    2  503  502  0.36259930932E+02  0.12649994734E+02 -0.26292286355E+03  0.26571269660E+03  0.00000000000E+00 0. -1.
          2    1    1    2  501    0 -0.15949122481E+03 -0.94508082177E+02 -0.35408505618E+03  0.39968169260E+03  0.00000000000E+00 0. -1.
<scales pt_clust_5="13000.00000" pt_clust_6="13000.00000" pt_clust_7="13000.00000" pt_clust_8="13000.00000" pt_clust_9="38.40319" pt_clust_10="13000.00000"></scales>
<clustering>
<clus scale="   38.403">  2  9  1 -1</clus>
<clus scale="   89.542">  7  8 -1 -1</clus>
<clus scale="  103.443">  5  6 -1 -1</clus>
<clus scale="  132.915">  1  7  2 -1</clus>
<clus scale="  149.769">  5 10 -1 -1</clus>
<clus scale="   38.403">  2  5  1 -1</clus>
</clustering>
</event>
<event>
10    2  0.4951045E-006  0.3787328E+03  0.7546771E-02  0.1094939E+00
          2   -1    0    0  502    0 -0.00000000000E+00  0.00000000000E+00  0.12246335103E+04  0.12246335103E+04  0.00000000000E+00 0. -1.
         21   -1    0    0  503  502  0.00000000000E+00 -0.00000000000E+00 -0.59076918813E+02  0.59076918813E+02  0.00000000000E+00 0.  1.
         23    2    1    2    0    0 -0.20675689718E+02 -0.66273603761E+02  0.38107495097E+03  0.39741545032E+03  0.88888959937E+02 0.  0.
         23    2    1    2    0    0 -0.61257018530E+02 -0.10245059768E+03  0.18655079943E+03  0.23996739781E+03  0.92382920271E+02 0.  0.
        -11    1    4    4    0    0 -0.28508791062E+02  0.12499322081E+02  0.44766558984E+02  0.54525489668E+02  0.00000000000E+00 0.  1.
         11    1    4    4    0    0 -0.32748227469E+02 -0.11494991976E+03  0.14178424045E+03  0.18544190814E+03  0.00000000000E+00 0. -1.
        -13    1    3    3    0    0  0.32034991448E+02 -0.11352428660E+02  0.16096198011E+03  0.16451102503E+03  0.00000000000E+00 0. -1.
         13    1    3    3    0    0 -0.52710681166E+02 -0.54921175101E+02  0.22011297086E+03  0.23290442530E+03  0.00000000000E+00 0.  1.
         21    1    1    2  503  501 -0.11237030106E+02 -0.25935472318E+02  0.50116191353E+02  0.57537398322E+02  0.00000000000E+00 0. -1.
          2    1    1    2  501    0  0.93169738354E+02  0.19465967376E+03  0.54781464970E+03  0.58879018263E+03  0.00000000000E+00 0. -1.
<scales pt_clust_5="13000.00000" pt_clust_6="13000.00000" pt_clust_7="13000.00000" pt_clust_8="13000.00000" pt_clust_9="28.26517" pt_clust_10="13000.00000"></scales>
<clustering>
<clus scale="   28.265">  2  9  1 -1</clus>
<clus scale="   88.889">  7  8 -1 -1</clus>
<clus scale="   92.383">  5  6 -1 -1</clus>
<clus scale="  115.387">  1  7  2 -1</clus>
<clus scale="  157.891">  5 10 -1 -1</clus>
<clus scale="   28.265">  2  5  1 -1</clus>
</clustering>
</event>
<event>
10    2  0.4951045E-006  0.2613671E+03  0.7546771E-02  0.1136356E+00
          1   -1    0    0  503    0 -0.00000000000E+00  0.00000000000E+00  0.30226499103E+03  0.30226499103E+03  0.00000000000E+00 0. -1.
         21   -1    0    0  501  502  0.00000000000E+00 -0.00000000000E+00 -0.18719631490E+03  0.18719631490E+03  0.00000000000E+00 0. -1.
         23    2    1    2    0    0 -0.76953277189E+02  0.25236222587E+02  0.14044226540E+03  0.18601066300E+03  0.91199029820E+02 0.  0.
         23    2    1    2    0    0 -0.25608620046E+02  0.45275046396E+02 -0.41791844519E+02  0.11451281157E+03  0.93064464207E+02 0.  0.
        -11    1    3    3    0    0 -0.47243586937E+02 -0.16365935330E+02  0.12168572587E+03  0.13155689350E+03  0.00000000000E+00 0.  1.
         11    1    3    3    0    0 -0.29709690252E+02  0.41602157917E+02  0.18756539525E+02  0.54453769503E+02  0.00000000000E+00 0. -1.
        -13    1    4    4    0    0  0.31290771799E+02  0.33712072012E+02 -0.62052152625E+01  0.46412507965E+02  0.00000000000E+00 0.  1.
         13    1    4    4    0    0 -0.56899391846E+02  0.11562974383E+02 -0.35586629256E+02  0.68100303603E+02  0.00000000000E+00 0. -1.
         21    1    1    2  503  502 -0.82311897769E+01  0.25323451593E+02 -0.25188320002E+02  0.36653528482E+02  0.00000000000E+00 0. -1.
          1    1    1    2  501    0  0.11079308701E+03 -0.95834720575E+02  0.41606575247E+02  0.15228430287E+03  0.00000000000E+00 0. -1.
<scales pt_clust_5="13000.00000" pt_clust_6="13000.00000" pt_clust_7="13000.00000" pt_clust_8="13000.00000" pt_clust_9="26.62761" pt_clust_10="13000.00000"></scales>
<clustering>
<clus scale="   26.628">  2  9  1 -1</clus>
<clus scale="   91.199">  5  6 -1 -1</clus>
<clus scale="   93.064">  7  8 -1 -1</clus>
<clus scale="  123.540">  1  5  2 -1</clus>
<clus scale="   88.249">  7 10 -1 -1</clus>
<clus scale="   26.628">  2  5  1 -1</clus>
</clustering>
</event>
<event>
10    2  0.4951045E-006  0.1205071E+03  0.7546771E-02  0.1252809E+00
          2   -1    0    0  502    0 -0.00000000000E+00  0.00000000000E+00  0.61123320491E+03  0.61123320491E+03  0.00000000000E+00 0. -1.
         21   -1    0    0  503  502  0.00000000000E+00 -0.00000000000E+00 -0.41578603864E+02  0.41578603864E+02  0.00000000000E+00 0.  1.
         23    2    1    2    0    0 -0.38340175389E+01  0.47821254286E+01  0.22844033365E+03  0.24825821421E+03  0.97003023005E+02 0.  0.
         23    2    1    2    0    0  0.77378436424E+01 -0.14557851068E+02  0.26977308775E+03  0.28455443647E+03  0.89005073952E+02 0.  0.
        -11    1    4    4    0    0 -0.20973857603E+02 -0.37306604888E+02  0.21102665793E+03  0.21532286415E+03  0.00000000000E+00 0.  1.
         11    1    4    4    0    0  0.28711701246E+02  0.22748753820E+02  0.58746429829E+02  0.69231572324E+02  0.00000000000E+00 0. -1.
        -11    1    3    3    0    0 -0.40164065891E+02  0.17185139854E+02  0.18587080258E+03  0.19093568674E+03  0.00000000000E+00 0. -1.
         11    1    3    3    0    0  0.36330048352E+02 -0.12403014425E+02  0.42569531076E+02  0.57322527475E+02  0.00000000000E+00 0.  1.
         21    1    1    2  503  501 -0.92674100279E+01 -0.21075308836E+02 -0.15390750845E+02  0.27693478343E+02  0.00000000000E+00 0.  1.
          2    1    1    2  501    0  0.53635839243E+01  0.30851034476E+02  0.86831930482E+02  0.92305679739E+02  0.00000000000E+00 0. -1.
<scales pt_clust_5="13000.00000" pt_clust_6="13000.00000" pt_clust_7="13000.00000" pt_clust_8="13000.00000" pt_clust_9="23.02289" pt_clust_10="13000.00000"></scales>
<clustering>
<clus scale="   23.023">  2  9  1 -1</clus>
<clus scale="   89.005">  5  6 -1 -1</clus>
<clus scale="   28.271">  5 10 -1 -1</clus>
<clus scale="   97.003">  7  8 -1 -1</clus>
<clus scale="   97.531">  1  7  2 -1</clus>
<clus scale="   23.023">  2  5  1 -1</clus>
</clustering>
</event>
<event>
10    2  0.4951045E-006  0.2436023E+03  0.7546771E-02  0.1131432E+00
          1   -1    0    0  502    0 -0.00000000000E+00  0.00000000000E+00  0.79846208713E+03  0.79846208713E+03  0.00000000000E+00 0. -1.
         21   -1    0    0  503  502  0.00000000000E+00 -0.00000000000E+00 -0.72770118196E+02  0.72770118196E+02  0.00000000000E+00 0. -1.
         23    2    1    2    0    0  0.53494785931E+02  0.13371843437E+03  0.34445109506E+03  0.38404675332E+03  0.90016887509E+02 0.  0.
         23    2    1    2    0    0 -0.26907949317E+02 -0.75764397432E+02  0.31684905440E+03  0.33913303048E+03  0.90297327916E+02 0.  0.
        -13    1    4    4    0    0 -0.50995304377E+02 -0.11744103064E+02  0.12841954720E+03  0.13867236613E+03  0.00000000000E+00 0.  1.
         13    1    4    4    0    0  0.24087355060E+02 -0.64020294368E+02  0.18842950720E+03  0.20046066434E+03  0.00000000000E+00 0. -1.
        -13    1    3    3    0    0  0.34551045033E+02  0.70025814155E+02  0.28286900564E+03  0.29344891159E+03  0.00000000000E+00 0. -1.
         13    1    3    3    0    0  0.18943740899E+02  0.63692620217E+02  0.61582089416E+02  0.90597841731E+02  0.00000000000E+00 0.  1.
         21    1    1    2  503  501 -0.43281165835E+02  0.22987712744E+02  0.35454749255E+02  0.60487465627E+02  0.00000000000E+00 0. -1.
          1    1    1    2  501    0  0.16694329221E+02 -0.80941749684E+02  0.28937070222E+02  0.87564955907E+02  0.00000000000E+00 0. -1.
<scales pt_clust_5="13000.00000" pt_clust_6="13000.00000" pt_clust_7="13000.00000" pt_clust_8="13000.00000" pt_clust_9="49.00708" pt_clust_10="13000.00000"></scales>
<clustering>
<clus scale="   49.007">  2  9  1 -1</clus>
<clus scale="   90.017">  7  8 -1 -1</clus>
<clus scale="   90.297">  5  6 -1 -1</clus>
<clus scale="   69.894">  5 10 -1 -1</clus>
<clus scale="  172.056">  1  7  2 -1</clus>
<clus scale="   49.007">  2  5  1 -1</clus>
</clustering>
</event>
<event>
10    2  0.4951045E-006  0.1617564E+03  0.7546771E-02  0.1216483E+00
         -1   -1    0    0    0  501 -0.00000000000E+00  0.00000000000E+00  0.20436208084E+03  0.20436208084E+03  0.00000000000E+00 0.  1.
         21   -1    0    0  501  502  0.00000000000E+00 -0.00000000000E+00 -0.11232268699E+03  0.11232268699E+03  0.00000000000E+00 0.  1.
         23    2    1    2    0    0  0.28232437623E+02  0.28641548756E+02  0.80154520966E+01  0.80482959494E+02  0.69252079010E+02 0.  0.
         23    2    1    2    0    0 -0.57591056356E+02 -0.60623471603E+02  0.11725448983E+03  0.17401302702E+03  0.97672837089E+02 0.  0.
        -13    1    3    3    0    0  0.11497766100E+02  0.45812313870E+02  0.22660221177E+02  0.52387520949E+02  0.00000000000E+00 0. -1.
         13    1    3    3    0    0  0.16734671523E+02 -0.17170765114E+02 -0.14644769081E+02  0.28095438544E+02  0.00000000000E+00 0.  1.
        -13    1    4    4    0    0 -0.75441456658E+02 -0.14487933909E+02  0.86843916686E+02  0.11594472596E+03  0.00000000000E+00 0.  1.
         13    1    4    4    0    0  0.17850400302E+02 -0.46135537694E+02  0.30410573148E+02  0.58068301064E+02  0.00000000000E+00 0. -1.
         21    1    1    2  503  502  0.60592650053E+01  0.20926257032E+02 -0.28655737825E+02  0.35996864253E+02  0.00000000000E+00 0. -1.
         -1    1    1    2    0  503  0.23299353727E+02  0.11055665814E+02 -0.45748102478E+01  0.26191917064E+02  0.00000000000E+00 0.  1.
<scales pt_clust_5="13000.00000" pt_clust_6="13000.00000" pt_clust_7="13000.00000" pt_clust_8="13000.00000" pt_clust_9="21.78584" pt_clust_10="13000.00000"></scales>
<clustering>
<clus scale="   21.786">  2  9  1 -1</clus>
<clus scale="   69.252">  5  6 -1 -1</clus>
<clus scale="   84.903">  1  5  2 -1</clus>
<clus scale="   97.673">  7  8 -1 -1</clus>
<clus scale="   33.266">  7 10 -1 -1</clus>
<clus scale="   21.786">  2  5  1 -1</clus>
</clustering>
</event>
<event>
10    2  0.4951045E-006  0.1837588E+03  0.7546771E-02  0.1183557E+00
         -2   -1    0    0    0  501 -0.00000000000E+00  0.00000000000E+00  0.40510062056E+03  0.40510062056E+03  0.00000000000E+00 0. -1.
         21   -1    0    0  503  502  0.00000000000E+00 -0.00000000000E+00 -0.13256513254E+03  0.13256513254E+03  0.00000000000E+00 0. -1.
         23    2    1    2    0    0 -0.11810602325E+02  0.66029072320E+02  0.17181922224E+03  0.20462864560E+03  0.88609868256E+02 0.  0.
         23    2    1    2    0    0 -0.12359778702E+02 -0.10442764608E+02  0.51040644140E+02  0.10425043393E+03  0.89449372043E+02 0.  0.
        -13    1    3    3    0    0  0.21643530984E+02 -0.12667984839E+02  0.30933638753E+02  0.39822233487E+02  0.00000000000E+00 0.  1.
         13    1    3    3    0    0 -0.33454133309E+02  0.78697057159E+02  0.14088558348E+03  0.16480641212E+03  0.00000000000E+00 0. -1.
        -13    1    4    4    0    0 -0.29442435505E+02  0.26026123862E+02  0.77868454150E-01  0.39296592667E+02  0.00000000000E+00 0.  1.
         13    1    4    4    0    0  0.17082656803E+02 -0.36468888469E+02  0.50962775685E+02  0.64953841266E+02  0.00000000000E+00 0. -1.
         21    1    1    2  503  501  0.64019179321E+02  0.64192275326E+02 -0.59213016503E+01  0.90852437203E+02  0.00000000000E+00 0. -1.
         -2    1    1    2    0  502 -0.39848798294E+02 -0.11977858304E+03  0.55596923296E+02  0.13793423636E+03  0.00000000000E+00 0. -1.
<scales pt_clust_5="13000.00000" pt_clust_6="13000.00000" pt_clust_7="13000.00000" pt_clust_8="13000.00000" pt_clust_9="90.65927" pt_clust_10="13000.00000"></scales>
<clustering>
<clus scale="   88.610">  5  6 -1 -1</clus>
<clus scale="   89.449">  7  8 -1 -1</clus>
<clus scale="   90.659">  2  9  1 -1</clus>
<clus scale="   88.796">  7 10 -1 -1</clus>
<clus scale="  118.408">  1  5  2 -1</clus>
<clus scale="   90.659">  2  5  1 -1</clus>
</clustering>
</event>
<event>
10    2  0.4951045E-006  0.1933545E+03  0.7546771E-02  0.1159912E+00
         21   -1    0    0  503  502  0.00000000000E+00  0.00000000000E+00  0.14759816941E+03  0.14759816941E+03  0.00000000000E+00 0.  1.
          2   -1    0    0  502    0 -0.00000000000E+00 -0.00000000000E+00 -0.95993811880E+03  0.95993811880E+03  0.00000000000E+00 0. -1.
         23    2    1    2    0    0  0.46315351771E+02  0.13914995393E+03 -0.81599331428E+03  0.83407729835E+03  0.91279949524E+02 0.  0.
         23    2    1    2    0    0 -0.41854391698E+01 -0.13080865502E+03 -0.40707609832E+02  0.16442580213E+03  0.90831232398E+02 0.  0.
        -13    1    3    3    0    0  0.72752561964E+02  0.82391490188E+02 -0.49963267540E+03  0.51158000670E+03  0.00000000000E+00 0. -1.
         13    1    3    3    0    0 -0.26437210193E+02  0.56758463742E+02 -0.31636063888E+03  0.32249729165E+03  0.00000000000E+00 0.  1.
        -13    1    4    4    0    0  0.17079374090E+02 -0.13621432318E+03 -0.33229971358E+02  0.14124545251E+03  0.00000000000E+00 0. -1.
         13    1    4    4    0    0 -0.21264813260E+02  0.54056681620E+01 -0.74776384734E+01  0.23180349618E+02  0.00000000000E+00 0.  1.
         21    1    1    2  503  501 -0.51349770811E+01  0.20486130336E+02  0.56726114726E+02  0.60530171135E+02  0.00000000000E+00 0.  1.
          2    1    1    2  501    0 -0.36994935520E+02 -0.28827429248E+02 -0.12365140005E+02  0.48503016592E+02  0.00000000000E+00 0. -1.
<scales pt_clust_5="13000.00000" pt_clust_6="13000.00000" pt_clust_7="13000.00000" pt_clust_8="13000.00000" pt_clust_9="21.11988" pt_clust_10="13000.00000"></scales>
<clustering>
<clus scale="   21.120">  1  9  2 -1</clus>
<clus scale="   90.831">  7  8 -1 -1</clus>
<clus scale="   45.336">  7 10 -1 -1</clus>
<clus scale="   91.280">  5  6 -1 -1</clus>
<clus scale="  174.286">  2  5  1 -1</clus>
<clus scale="   21.120">  1  5  2 -1</clus>
</clustering>
</event>
<event>
10    2  0.4951045E-006  0.1597636E+03  0.7546771E-02  0.1214396E+00
         21   -1    0    0  503  502  0.00000000000E+00  0.00000000000E+00  0.46273834491E+02  0.46273834491E+02  0.00000000000E+00 0.  1.
         -1   -1    0    0    0  501 -0.00000000000E+00 -0.00000000000E+00 -0.61282287910E+03  0.61282287910E+03  0.00000000000E+00 0.  1.
         23    2    1    2    0    0  0.45355521241E+01  0.20793148386E+02 -0.23844547183E+03  0.25593669410E+03  0.90523047322E+02 0.  0.
         23    2    1    2    0    0 -0.37724856612E+02  0.55341022999E+02 -0.24825454303E+03  0.27251914862E+03  0.90280532758E+02 0.  0.
        -11    1    3    3    0    0 -0.25594169225E+02 -0.26175259552E+02 -0.80799367200E+02  0.88705938081E+02  0.00000000000E+00 0.  1.
         11    1    3    3    0    0  0.30129721349E+02  0.46968407938E+02 -0.15764610463E+03  0.16723075602E+03  0.00000000000E+00 0. -1.
        -11    1    4    4    0    0  0.23762729997E+02  0.38144081349E+02 -0.70092119074E+02  0.83261896658E+02  0.00000000000E+00 0. -1.
         11    1    4    4    0    0 -0.61487586609E+02  0.17196941650E+02 -0.17816242396E+03  0.18925725196E+03  0.00000000000E+00 0.  1.
         21    1    1    2  503  501  0.24482222025E+02 -0.28780602871E+02 -0.45418252820E+00  0.37787677603E+02  0.00000000000E+00 0.  1.
         -1    1    1    2    0  502  0.87070824626E+01 -0.47353568514E+02 -0.79394847222E+02  0.92853193276E+02  0.00000000000E+00 0.  1.
<scales pt_clust_5="13000.00000" pt_clust_6="13000.00000" pt_clust_7="13000.00000" pt_clust_8="13000.00000" pt_clust_9="37.78495" pt_clust_10="13000.00000"></scales>
<clustering>
<clus scale="   37.785">  1  9  2 -1</clus>
<clus scale="   90.281">  7  8 -1 -1</clus>
<clus scale="   56.314">  7 10 -1 -1</clus>
<clus scale="   90.523">  5  6 -1 -1</clus>
<clus scale="   92.097">  2  5  1 -1</clus>
<clus scale="   37.785">  1  5  2 -1</clus>
</clustering>
</event>
<event>
10    2  0.4951045E-006  0.2263068E+03  0.7546771E-02  0.1162283E+00
         21   -1    0    0  503  502  0.00000000000E+00  0.00000000000E+00  0.19017610120E+03  0.19017610120E+03  0.00000000000E+00 0. -1.
          1   -1    0    0  502    0 -0.00000000000E+00 -0.00000000000E+00 -0.18902124215E+03  0.18902124215E+03  0.00000000000E+00 0. -1.
         23    2    1    2    0    0 -0.13570870749E+02 -0.44116079948E+02 -0.54722843154E+02  0.11556034999E+03  0.90714981579E+02 0.  0.
         23    2    1    2    0    0 -0.80087120993E+02  0.83416493713E+01 -0.17879959684E+02  0.12424104526E+03  0.92911863112E+02 0.  0.
        -11    1    4    4    0    0 -0.93991339311E+02 -0.15359438647E+02 -0.17034936037E+02  0.96749538845E+02  0.00000000000E+00 0. -1.
         11    1    4    4    0    0  0.13904218317E+02  0.23701088018E+02 -0.84502364635E+00  0.27491506420E+02  0.00000000000E+00 0.  1.
        -13    1    3    3    0    0  0.17489806237E+02 -0.62682102433E+02 -0.29498949295E+02  0.71450173528E+02  0.00000000000E+00 0. -1.
         13    1    3    3    0    0 -0.31060676986E+02  0.18566022484E+02 -0.25223893858E+02  0.44110176457E+02  0.00000000000E+00 0.  1.
         21    1    1    2  503  501  0.17079722043E+02 -0.17737169895E+02  0.19064872926E+02  0.31141507359E+02  0.00000000000E+00 0. -1.
          1    1    1    2  501    0  0.76578269700E+02  0.53511600472E+02  0.54692788961E+02  0.10825444074E+03  0.00000000000E+00 0. -1.
<scales pt_clust_5="13000.00000" pt_clust_6="13000.00000" pt_clust_7="13000.00000" pt_clust_8="13000.00000" pt_clust_9="24.62365" pt_clust_10="13000.00000"></scales>
<clustering>
<clus scale="   24.624">  1  9  2 -1</clus>
<clus scale="   90.715">  7  8 -1 -1</clus>
<clus scale="   92.912">  5  6 -1 -1</clus>
<clus scale="   96.071">  5 10 -1 -1</clus>
<clus scale="  102.874">  2  7  1 -1</clus>
<clus scale="   24.624">  1  5  2 -1</clus>
</clustering>
</event>
<event>
10    2  0.4951045E-006  0.1651582E+03  0.7546771E-02  0.1196743E+00
         21   -1    0    0  503  502  0.00000000000E+00  0.00000000000E+00  0.13830873695E+03  0.13830873695E+03  0.00000000000E+00 0.  1.
          1   -1    0    0  502    0 -0.00000000000E+00 -0.00000000000E+00 -0.57672606133E+03  0.57672606133E+03  0.00000000000E+00 0. -1.
         23    2    1    2    0    0  0.37947404236E+02 -0.10078760432E+03 -0.19994089918E+03  0.24534424740E+03  0.92840130860E+02 0.  0.
         23    2    1    2    0    0 -0.15579583124E+02  0.73436397424E+02 -0.19967405194E+03  0.23203526789E+03  0.91296279512E+02 0.  0.
        -11    1    4    4    0    0 -0.41770112831E+02  0.54619736176E+02 -0.18349480128E+03  0.19595509690E+03  0.00000000000E+00 0. -1.
         11    1    4    4    0    0  0.26190529707E+02  0.18816661248E+02 -0.16179250658E+02  0.36080170991E+02  0.00000000000E+00 0.  1.
        -11    1    3    3    0    0 -0.21233631138E+02 -0.50285004541E+02 -0.12893296485E+03  0.14001127883E+03  0.00000000000E+00 0.  1.
         11    1    3    3    0    0  0.59181035374E+02 -0.50502599777E+02 -0.71007934323E+02  0.10533296858E+03  0.00000000000E+00 0. -1.
         21    1    1    2  503  501 -0.50970589779E+02  0.40286502190E+02  0.86668890274E+02  0.10831666457E+03  0.00000000000E+00 0.  1.
          1    1    1    2  501    0  0.28602768667E+02 -0.12935295297E+02 -0.12547126354E+03  0.12933861842E+03  0.00000000000E+00 0. -1.
<scales pt_clust_5="13000.00000" pt_clust_6="13000.00000" pt_clust_7="13000.00000" pt_clust_8="13000.00000" pt_clust_9="64.96925" pt_clust_10="13000.00000"></scales>
<clustering>
<clus scale="   64.969">  1  9  2 -1</clus>
<clus scale="   91.296">  5  6 -1 -1</clus>
<clus scale="   28.415">  5 10 -1 -1</clus>
<clus scale="   92.840">  7  8 -1 -1</clus>
<clus scale="  121.881">  2  7  1 -1</clus>
<clus scale="   64.969">  1  5  2 -1</clus>
</clustering>
</event>
<event>
10    2  0.4951045E-006  0.1418835E+03  0.7546771E-02  0.1226839E+00
         21   -1    0    0  503  502  0.00000000000E+00  0.00000000000E+00  0.24821629553E+03  0.24821629553E+03  0.00000000000E+00 0.  1.
         -2   -1    0    0    0  501 -0.00000000000E+00 -0.00000000000E+00 -0.98694198825E+02  0.98694198825E+02  0.00000000000E+00 0.  1.
         23    2    1    2    0    0  0.42295127405E+02 -0.15605202373E+02 -0.28179225904E+02  0.10575466848E+03  0.91419806332E+02 0.  0.
         23    2    1    2    0    0 -0.19474898797E+02 -0.52118137361E+00  0.59708382421E+02  0.11059207430E+03  0.91027318166E+02 0.  0.
        -11    1    3    3    0    0  0.68554257574E+02  0.46745673347E+01 -0.17622834927E+02  0.70937311213E+02  0.00000000000E+00 0.  1.
         11    1    3    3    0    0 -0.26259130169E+02 -0.20279769708E+02 -0.10556390977E+02  0.34817357268E+02  0.00000000000E+00 0. -1.
        -13    1    4    4    0    0  0.87018949704E+01 -0.35576367504E+02  0.54009939939E+02  0.65256988232E+02  0.00000000000E+00 0. -1.
         13    1    4    4    0    0 -0.28176793768E+02  0.35055186131E+02  0.56984424815E+01  0.45335086063E+02  0.00000000000E+00 0.  1.
         21    1    1    2  503  501 -0.21224889570E+01  0.21377713325E+02  0.17161304855E+02  0.27495853700E+02  0.00000000000E+00 0.  1.
         -2    1    1    2    0  502 -0.20697739650E+02 -0.52513295782E+01  0.10083163533E+03  0.10306789788E+03  0.00000000000E+00 0.  1.
<scales pt_clust_5="13000.00000" pt_clust_6="13000.00000" pt_clust_7="13000.00000" pt_clust_8="13000.00000" pt_clust_9="21.48282" pt_clust_10="13000.00000"></scales>
<clustering>
<clus scale="   21.483">  1  9  2 -1</clus>
<clus scale="   91.027">  7  8 -1 -1</clus>
<clus scale="   22.098">  7 10 -1 -1</clus>
<clus scale="   91.420">  5  6 -1 -1</clus>
<clus scale="  101.283">  2  5  1 -1</clus>
<clus scale="   21.483">  1  5  2 -1</clus>
</clustering>
</event>
<event>
10    2  0.4951045E-006  0.1001684E+04  0.7546771E-02  0.9765757E-01
         21   -1    0    0  501  502  0.00000000000E+00  0.00000000000E+00  0.32098876712E+03  0.32098876712E+03  0.00000000000E+00 0. -1.
          2   -1    0    0  503    0 -0.00000000000E+00 -0.00000000000E+00 -0.27658099162E+04  0.27658099162E+04  0.00000000000E+00 0. -1.
         23    2    1    2    0    0 -0.12577640386E+02  0.16528968309E+03 -0.52552271543E+03  0.56056221001E+03  0.10284449661E+03 0.  0.
         23    2    1    2    0    0 -0.87097655626E+02 -0.60904480147E+03 -0.12805974812E+04  0.14236486411E+04  0.91235807579E+02 0.  0.
        -11    1    3    3    0    0  0.19514434187E+02 -0.49940464179E+01 -0.80806529787E+02  0.83279342561E+02  0.00000000000E+00 0.  1.
         11    1    3    3    0    0 -0.32092074573E+02  0.17028372951E+03 -0.44471618565E+03  0.47728286745E+03  0.00000000000E+00 0. -1.
        -11    1    4    4    0    0 -0.89809567698E+02 -0.51993458078E+03 -0.11529826661E+04  0.12679774269E+04  0.00000000000E+00 0. -1.
         11    1    4    4    0    0  0.27119120718E+01 -0.89110220694E+02 -0.12761481509E+03  0.15567121420E+03  0.00000000000E+00 0.  1.
         21    1    1    2  503  502 -0.25922540477E+02  0.71400094424E+02  0.17950054451E+03  0.19491125434E+03  0.00000000000E+00 0. -1.
          2    1    1    2  501    0  0.12559783649E+03  0.37235502395E+03 -0.81820149694E+03  0.90767657786E+03  0.00000000000E+00 0. -1.
<scales pt_clust_5="13000.00000" pt_clust_6="13000.00000" pt_clust_7="13000.00000" pt_clust_8="13000.00000" pt_clust_9="75.96020" pt_clust_10="13000.00000"></scales>
<clustering>
<clus scale="   75.960">  1  9  2 -1</clus>
<clus scale="   91.236">  7  8 -1 -1</clus>
<clus scale="  102.844">  5  6 -1 -1</clus>
<clus scale="  203.301">  2  5  1 -1</clus>
<clus scale="  486.139">  7 10 -1 -1</clus>
<clus scale="   75.960">  1  5  2 -1</clus>
</clustering>
</event>
<event>
10    2  0.4951045E-006  0.1715609E+03  0.7546771E-02  0.1195200E+00
         -1   -1    0    0    0  501 -0.00000000000E+00  0.00000000000E+00  0.10984216826E+03  0.10984216826E+03  0.00000000000E+00 0.  1.
         21   -1    0    0  501  502  0.00000000000E+00 -0.00000000000E+00 -0.33409096737E+03  0.33409096737E+03  0.00000000000E+00 0.  1.
         23    2    1    2    0    0 -0.13267306189E+02  0.52801452477E+02  0.25882523748E+02  0.11795576686E+03  0.10138857481E+03 0.  0.
         23    2    1    2    0    0  0.43216833125E+02  0.34681697581E+02 -0.11231760765E+03  0.15525136903E+03  0.91745451035E+02 0.  0.
        -11    1    3    3    0    0 -0.22310101669E+02 -0.25377107860E+02 -0.34545451447E+01  0.33965749248E+02  0.00000000000E+00 0. -1.
         11    1    3    3    0    0  0.90427954803E+01  0.78178560337E+02  0.29337068893E+02  0.83990017607E+02  0.00000000000E+00 0.  1.
        -13    1    4    4    0    0  0.68457124167E+02  0.42599894696E+02 -0.81653613037E+02  0.11475382956E+03  0.00000000000E+00 0.  1.
         13    1    4    4    0    0 -0.25240291042E+02 -0.79181971149E+01 -0.30663994610E+02  0.40497539467E+02  0.00000000000E+00 0. -1.
         21    1    1    2  503  502 -0.53448583891E+01 -0.33534547138E+02 -0.84188712924E+02  0.90779252843E+02  0.00000000000E+00 0.  1.
         -1    1    1    2    0  503 -0.24604668547E+02 -0.53948602920E+02 -0.53625002286E+02  0.79946746910E+02  0.00000000000E+00 0.  1.
<scales pt_clust_5="13000.00000" pt_clust_6="13000.00000" pt_clust_7="13000.00000" pt_clust_8="13000.00000" pt_clust_9="33.95782" pt_clust_10="13000.00000"></scales>
<clustering>
<clus scale="   33.958">  2  9  1 -1</clus>
<clus scale="   91.745">  7  8 -1 -1</clus>
<clus scale="   68.202">  7 10 -1 -1</clus>
<clus scale="  101.389">  5  6 -1 -1</clus>
<clus scale="  112.469">  1  5  2 -1</clus>
<clus scale="   33.958">  2  5  1 -1</clus>
</clustering>
</event>
<event>
10    2  0.4951045E-006  0.5496214E+03  0.7546771E-02  0.1039166E+00
          2   -1    0    0  503    0 -0.00000000000E+00  0.00000000000E+00  0.10455235827E+04  0.10455235827E+04  0.00000000000E+00 0. -1.
         21   -1    0    0  501  502  0.00000000000E+00 -0.00000000000E+00 -0.20938290050E+03  0.20938290050E+03  0.00000000000E+00 0. -1.
         23    2    1    2    0    0 -0.14759623354E+03 -0.47803506539E+02  0.22102678173E+03  0.28525579668E+03  0.91914133309E+02 0.  0.
         23    2    1    2    0    0 -0.97612068140E+02 -0.11482916527E+03  0.52895066598E+02  0.18323259459E+03  0.89791105384E+02 0.  0.
        -11    1    3    3    0    0 -0.90606754726E+02 -0.69481511293E+02  0.10977722749E+03  0.15839287891E+03  0.00000000000E+00 0. -1.
         11    1    3    3    0    0 -0.56989478818E+02  0.21678004754E+02  0.11124955424E+03  0.12686291777E+03  0.00000000000E+00 0.  1.
        -13    1    4    4    0    0 -0.72245895060E+02 -0.16967717829E+02  0.18986759488E+02  0.76602022409E+02  0.00000000000E+00 0.  1.
         13    1    4    4    0    0 -0.25366173080E+02 -0.97861447445E+02  0.33908307110E+02  0.10663057218E+03  0.00000000000E+00 0. -1.
         21    1    1    2  503  502  0.21458065559E+02 -0.53802763108E+01 -0.81535592046E+02  0.84483422758E+02  0.00000000000E+00 0.  1.
          2    1    1    2  501    0  0.22375023612E+03  0.16801294812E+03  0.64375442597E+03  0.70193466922E+03  0.00000000000E+00 0. -1.
<scales pt_clust_5="13000.00000" pt_clust_6="13000.00000" pt_clust_7="13000.00000" pt_clust_8="13000.00000" pt_clust_9="22.12230" pt_clust_10="13000.00000"></scales>
<clustering>
<clus scale="   22.122">  2  9  1 -1</clus>
<clus scale="   89.791">  7  8 -1 -1</clus>
<clus scale="   91.914">  5  6 -1 -1</clus>
<clus scale="  176.269">  1  5  2 -1</clus>
<clus scale="  164.086">  7 10 -1 -1</clus>
<clus scale="   22.122">  2  5  1 -1</clus>
</clustering>
</event>
<event>
10    2  0.4951045E-006  0.5285534E+03  0.7546771E-02  0.1056098E+00
          1   -1    0    0  502    0 -0.00000000000E+00  0.00000000000E+00  0.13651050705E+04  0.13651050705E+04  0.00000000000E+00 0. -1.
         21   -1    0    0  503  502  0.00000000000E+00 -0.00000000000E+00 -0.34636846929E+03  0.34636846929E+03  0.00000000000E+00 0.  1.
         23    2    1    2    0    0  0.11645273338E+02 -0.79245451863E+02  0.40085662471E+03  0.41900648810E+03  0.92005159989E+02 0.  0.
         23    2    1    2    0    0 -0.30634241440E+03  0.19429763075E+03  0.51053216094E+03  0.63320405622E+03  0.93311549577E+02 0.  0.
        -11    1    4    4    0    0 -0.21947363303E+03  0.16807323014E+03  0.43368137416E+03  0.51429254378E+03  0.00000000000E+00 0. -1.
         11    1    4    4    0    0 -0.86868781371E+02  0.26224400612E+02  0.76850786774E+02  0.11891151245E+03  0.00000000000E+00 0.  1.
        -13    1    3    3    0    0  0.42526983855E+02 -0.15073102276E+02  0.97974523432E+02  0.10786449837E+03  0.00000000000E+00 0.  1.
         13    1    3    3    0    0 -0.30881710516E+02 -0.64172349587E+02  0.30288210128E+03  0.31114198973E+03  0.00000000000E+00 0. -1.
         21    1    1    2  503  501  0.12088955812E+03 -0.11594434322E+03 -0.22719251798E+03  0.28226550659E+03  0.00000000000E+00 0.  1.
          1    1    1    2  501    0  0.17380758295E+03  0.89216432640E+00  0.33454033351E+03  0.37699748884E+03  0.00000000000E+00 0. -1.
<scales pt_clust_5="13000.00000" pt_clust_6="13000.00000" pt_clust_7="13000.00000" pt_clust_8="13000.00000" pt_clust_9="169.33292" pt_clust_10="13000.00000"></scales>
<clustering>
<clus scale="   92.005">  7  8 -1 -1</clus>
<clus scale="   93.312">  5  6 -1 -1</clus>
<clus scale="  121.985">  1  7  2 -1</clus>
<clus scale="  169.333">  2  9  1 -1</clus>
<clus scale="  229.973">  5 10 -1 -1</clus>
<clus scale="  169.333">  2  5  1 -1</clus>
</clustering>
</event>
<event>
10    2  0.4951045E-006  0.2331468E+03  0.7546771E-02  0.1160867E+00
          2   -1    0    0  502    0 -0.00000000000E+00  0.00000000000E+00  0.12139977669E+04  0.12139977669E+04  0.00000000000E+00 0. -1.
         21   -1    0    0  503  502  0.00000000000E+00 -0.00000000000E+00 -0.75823346885E+02  0.75823346885E+02  0.00000000000E+00 0.  1.
         23    2    1    2    0    0  0.47139575948E+02  0.32044587270E+01 -0.18558216474E+02  0.10500454181E+03  0.91919193997E+02 0.  0.
         23    2    1    2    0    0 -0.44604149328E+02 -0.79740948183E+02  0.44216920848E+03  0.46069744281E+03  0.91544393218E+02 0.  0.
        -13    1    3    3    0    0  0.36175880795E+02  0.30582363285E+02 -0.45042416368E+02  0.65366616615E+02  0.00000000000E+00 0.  1.
         13    1    3    3    0    0  0.10963695152E+02 -0.27377904558E+02  0.26484199895E+02  0.39637925191E+02  0.00000000000E+00 0. -1.
        -13    1    4    4    0    0 -0.35461645890E+02  0.95284124073E+01  0.88365943517E+02  0.95691477917E+02  0.00000000000E+00 0.  1.
         13    1    4    4    0    0 -0.91425034379E+01 -0.89269360590E+02  0.35380326496E+03  0.36500596489E+03  0.00000000000E+00 0. -1.
         21    1    1    2  503  501 -0.19148150658E+02 -0.10704913309E+02  0.67141377068E+02  0.70634349697E+02  0.00000000000E+00 0. -1.
          2    1    1    2  501    0  0.16612724038E+02  0.87241402765E+02  0.64742205090E+03  0.65348477943E+03  0.00000000000E+00 0. -1.
<scales pt_clust_5="13000.00000" pt_clust_6="13000.00000" pt_clust_7="13000.00000" pt_clust_8="13000.00000" pt_clust_9="21.93735" pt_clust_10="13000.00000"></scales>
<clustering>
<clus scale="   21.937">  2  9  1 -1</clus>
<clus scale="   91.544">  7  8 -1 -1</clus>
<clus scale="   88.235">  7 10 -1 -1</clus>
<clus scale="   91.919">  5  6 -1 -1</clus>
<clus scale="   97.229">  1  5  2 -1</clus>
<clus scale="   21.937">  2  5  1 -1</clus>
</clustering>
</event>
<event>
10    2  0.4951045E-006  0.5468771E+03  0.7546771E-02  0.1056930E+00
         21   -1    0    0  501  502  0.00000000000E+00  0.00000000000E+00  0.24516612377E+03  0.24516612377E+03  0.00000000000E+00 0.  1.
          1   -1    0    0  503    0 -0.00000000000E+00 -0.00000000000E+00 -0.14277762177E+04  0.14277762177E+04  0.00000000000E+00 0. -1.
         23    2    1    2    0    0  0.68712501049E+02  0.13511370292E+02 -0.22553527892E+03  0.24987896536E+03  0.81666213103E+02 0.  0.
         23    2    1    2    0    0 -0.41042039721E+02 -0.93415881976E+02 -0.59225400278E+03  0.60779213973E+03  0.90749684753E+02 0.  0.
        -11    1    3    3    0    0  0.47904262007E+02  0.44566061298E+02 -0.10534971279E+03  0.12401416904E+03  0.00000000000E+00 0.  1.
         11    1    3    3    0    0  0.20808239043E+02 -0.31054691005E+02 -0.12018556613E+03  0.12586479632E+03  0.00000000000E+00 0. -1.
        -13    1    4    4    0    0 -0.55424866754E+02 -0.17664211360E+02 -0.29649043550E+03  0.30214320870E+03  0.00000000000E+00 0.  1.
         13    1    4    4    0    0  0.14382827032E+02 -0.75751670615E+02 -0.29576356728E+03  0.30564893104E+03  0.00000000000E+00 0. -1.
         21    1    1    2  503  502 -0.31023116715E+03 -0.58018971616E+02  0.22477328368E+02  0.31640924201E+03  0.00000000000E+00 0.  1.
          1    1    1    2  501    0  0.28256070582E+03  0.13792348330E+03 -0.38729814062E+03  0.49886199439E+03  0.00000000000E+00 0. -1.
<scales pt_clust_5="13000.00000" pt_clust_6="13000.00000" pt_clust_7="13000.00000" pt_clust_8="13000.00000" pt_clust_9="306.96218" pt_clust_10="13000.00000"></scales>
<clustering>
<clus scale="   81.666">  5  6 -1 -1</clus>
<clus scale="   90.750">  7  8 -1 -1</clus>
<clus scale="  107.579">  2  5  1 -1</clus>
<clus scale="  306.962">  1  9  2 -1</clus>
<clus scale="  113.929">  7 10 -1 -1</clus>
<clus scale="  306.962">  1  5  2 -1</clus>
</clustering>
</event>
<event>
10    2  0.5656472E-006  0.3814215E+03  0.7546771E-02  0.1080579E+00
         21   -1    0    0  503  502  0.00000000000E+00  0.00000000000E+00  0.14259940856E+04  0.14259940856E+04  0.00000000000E+00 0.  1.
          1   -1    0    0  502    0 -0.00000000000E+00 -0.00000000000E+00 -0.43434655168E+03  0.43434655168E+03  0.00000000000E+00 0. -1.
         23    2    1    2    0    0  0.84148890887E+02  0.10836301407E+03 -0.12470625469E+02  0.16585810174E+03  0.92356996250E+02 0.  0.
         23    2    1    2    0    0 -0.17971604736E+03 -0.18554891716E+02 -0.29685390100E+03  0.35837817403E+03  0.87581592782E+02 0.  0.
        -11    1    4    4    0    0 -0.44479536089E+02  0.13346452004E+02 -0.24212586271E+02  0.52371807737E+02  0.00000000000E+00 0.  1.
         11    1    4    4    0    0 -0.13523651127E+03 -0.31901343720E+02 -0.27264131473E+03  0.30600636629E+03  0.00000000000E+00 0. -1.
        -11    1    3    3    0    0  0.42291829749E+02  0.11290400688E+03 -0.22332469885E+02  0.12261587517E+03  0.00000000000E+00 0. -1.
         11    1    3    3    0    0  0.41857061138E+02 -0.45409928119E+01  0.98618444161E+01  0.43242226563E+02  0.00000000000E+00 0.  1.
         21    1    1    2  503  501  0.78090386227E+02 -0.14770585281E+03  0.12363826022E+04  0.12476205619E+04  0.00000000000E+00 0.  1.
          1    1    1    2  501    0  0.17476770244E+02  0.57897730454E+02  0.64589458175E+02  0.88483799632E+02  0.00000000000E+00 0. -1.
<scales pt_clust_5="13000.00000" pt_clust_6="13000.00000" pt_clust_7="13000.00000" pt_clust_8="13000.00000" pt_clust_9="166.17146" pt_clust_10="13000.00000"></scales>
<clustering>
<clus scale="   87.582">  5  6 -1 -1</clus>
<clus scale="   60.478">  5 10 -1 -1</clus>
<clus scale="   92.357">  7  8 -1 -1</clus>
<clus scale="  165.389">  2  7  1 -1</clus>
<clus scale="  166.171">  1  9  2 -1</clus>
<clus scale="  166.171">  1  5  2 -1</clus>
</clustering>
</event>
<event>
10    2  0.4951045E-006  0.3793358E+03  0.7546771E-02  0.1090594E+00
         21   -1    0    0  501  502  0.00000000000E+00  0.00000000000E+00  0.36790272145E+03  0.36790272145E+03  0.00000000000E+00 0.  1.
          2   -1    0    0  503    0 -0.00000000000E+00 -0.00000000000E+00 -0.36998626150E+03  0.36998626150E+03  0.00000000000E+00 0. -1.
         23    2    1    2    0    0 -0.94743390305E+02 -0.15827503992E+02 -0.59216987627E+02  0.14501054328E+03  0.91074618581E+02 0.  0.
         23    2    1    2    0    0  0.10570597955E+02 -0.25043260971E+02 -0.24784893458E+03  0.26611276836E+03  0.92994670029E+02 0.  0.
        -13    1    4    4    0    0 -0.34527682243E+02  0.11349378653E+02 -0.67236611063E+02  0.76431218125E+02  0.00000000000E+00 0. -1.
         13    1    4    4    0    0  0.45098280198E+02 -0.36392639623E+02 -0.18061232351E+03  0.18968155024E+03  0.00000000000E+00 0.  1.
        -13    1    3    3    0    0 -0.16713681847E+02 -0.43869745106E+02 -0.81989110373E+01  0.47656309537E+02  0.00000000000E+00 0.  1.
         13    1    3    3    0    0 -0.78029708458E+02  0.28042241114E+02 -0.51018076590E+02  0.97354233743E+02  0.00000000000E+00 0. -1.
         21    1    1    2  503  502  0.17004749290E+02  0.30334773090E+02  0.19024194596E+03  0.19339430694E+03  0.00000000000E+00 0.  1.
          2    1    1    2  501    0  0.67168043060E+02  0.10535991873E+02  0.11474043619E+03  0.13337136436E+03  0.00000000000E+00 0. -1.
<scales pt_clust_5="13000.00000" pt_clust_6="13000.00000" pt_clust_7="13000.00000" pt_clust_8="13000.00000" pt_clust_9="34.77585" pt_clust_10="13000.00000"></scales>
<clustering>
<clus scale="   34.776">  1  9  2 -1</clus>
<clus scale="   91.075">  7  8 -1 -1</clus>
<clus scale="   92.995">  5  6 -1 -1</clus>
<clus scale="   85.338">  5 10 -1 -1</clus>
<clus scale="  128.741">  2  7  1 -1</clus>
<clus scale="   34.776">  1  5  2 -1</clus>
</clustering>
</event>
<event>
10    2  0.4951045E-006  0.2295880E+03  0.7546771E-02  0.1157674E+00
          1   -1    0    0  502    0 -0.00000000000E+00  0.00000000000E+00  0.14011717155E+03  0.14011717155E+03  0.00000000000E+00 0. -1.
         21   -1    0    0  503  502  0.00000000000E+00 -0.00000000000E+00 -0.54653799798E+03  0.54653799798E+03  0.00000000000E+00 0. -1.
         23    2    1    2    0    0  0.74733291677E+02 -0.50875555065E+00 -0.22223455265E+02  0.12122925920E+03  0.92829562136E+02 0.  0.
         23    2    1    2    0    0  0.18171702596E+02 -0.45248333065E+01  0.59363131342E+02  0.10942069104E+03  0.89990118201E+02 0.  0.
        -11    1    4    4    0    0  0.41637035124E+02  0.27163314416E+02  0.19647825392E+02  0.53455826498E+02  0.00000000000E+00 0. -1.
         11    1    4    4    0    0 -0.23465332528E+02 -0.31688147723E+02  0.39715305950E+02  0.55964864544E+02  0.00000000000E+00 0.  1.
        -13    1    3    3    0    0 -0.10281903346E+02  0.19535615138E+02  0.14569131530E+02  0.26450281450E+02  0.00000000000E+00 0.  1.
         13    1    3    3    0    0  0.85015195023E+02 -0.20044370689E+02 -0.36792586795E+02  0.94778977755E+02  0.00000000000E+00 0. -1.
         21    1    1    2  503  501 -0.48387388685E+02 -0.39865677215E+01 -0.33232983874E+03  0.33585763922E+03  0.00000000000E+00 0. -1.
          1    1    1    2  501    0 -0.44517605588E+02  0.90201565786E+01 -0.11123066377E+03  0.12014758006E+03  0.00000000000E+00 0. -1.
<scales pt_clust_5="13000.00000" pt_clust_6="13000.00000" pt_clust_7="13000.00000" pt_clust_8="13000.00000" pt_clust_9="48.55133" pt_clust_10="13000.00000"></scales>
<clustering>
<clus scale="   48.551">  2  9  1 -1</clus>
<clus scale="   89.990">  5  6 -1 -1</clus>
<clus scale="   71.198">  5 10 -1 -1</clus>
<clus scale="   92.830">  7  8 -1 -1</clus>
<clus scale="  109.686">  1  7  2 -1</clus>
<clus scale="   48.551">  2  5  1 -1</clus>
</clustering>
</event>
<event>
10    2  0.4951045E-006  0.1415493E+03  0.7546771E-02  0.1226382E+00
         21   -1    0    0  501  502  0.00000000000E+00  0.00000000000E+00  0.11380611961E+03  0.11380611961E+03  0.00000000000E+00 0. -1.
         -2   -1    0    0    0  501 -0.00000000000E+00 -0.00000000000E+00 -0.29053416917E+03  0.29053416917E+03  0.00000000000E+00 0.  1.
         23    2    1    2    0    0 -0.57120263032E+02 -0.17510377967E+02 -0.33373683154E+01  0.96842322299E+02  0.76144333838E+02 0.  0.
         23    2    1    2    0    0  0.38444015704E+02  0.30618087123E+00 -0.16492708695E+03  0.19143776761E+03  0.89271713149E+02 0.  0.
        -13    1    4    4    0    0 -0.16770833177E+02  0.19401755238E+02 -0.10363790945E+03  0.10676378238E+03  0.00000000000E+00 0.  1.
         13    1    4    4    0    0  0.55214848881E+02 -0.19095574367E+02 -0.61289177496E+02  0.84673985235E+02  0.00000000000E+00 0. -1.
        -13    1    3    3    0    0  0.42953086022E+00  0.24825861569E+02 -0.52222978781E+01  0.25372825907E+02  0.00000000000E+00 0.  1.
         13    1    3    3    0    0 -0.57549793893E+02 -0.42336239535E+02  0.18849295628E+01  0.71469496392E+02  0.00000000000E+00 0. -1.
         21    1    1    2  503  502 -0.70687105847E+01 -0.19967346851E+02  0.42769648863E+02  0.47727397514E+02  0.00000000000E+00 0. -1.
         -2    1    1    2    0  503  0.25744957913E+02  0.37171543947E+02 -0.51233243153E+02  0.68332801357E+02  0.00000000000E+00 0.  1.
<scales pt_clust_5="13000.00000" pt_clust_6="13000.00000" pt_clust_7="13000.00000" pt_clust_8="13000.00000" pt_clust_9="21.18163" pt_clust_10="13000.00000"></scales>
<clustering>
<clus scale="   21.182">  1  9  2 -1</clus>
<clus scale="   76.144">  7  8 -1 -1</clus>
<clus scale="   89.272">  5  6 -1 -1</clus>
<clus scale="   42.673">  5 10 -1 -1</clus>
<clus scale="  102.973">  2  7  1 -1</clus>
<clus scale="   21.182">  1  5  2 -1</clus>
</clustering>
</event>
<event>
10    2  0.4951045E-006  0.6668259E+03  0.7546771E-02  0.1012293E+00
          2   -1    0    0  503    0 -0.00000000000E+00  0.00000000000E+00  0.15364538475E+04  0.15364538475E+04  0.00000000000E+00 0. -1.
         21   -1    0    0  501  502  0.00000000000E+00 -0.00000000000E+00 -0.26814736276E+03  0.26814736276E+03  0.00000000000E+00 0.  1.
         23    2    1    2    0    0 -0.44684535160E+02 -0.18151237898E+03  0.34998268750E+03  0.40700105693E+03  0.90656094034E+02 0.  0.
         23    2    1    2    0    0  0.32511557596E+03  0.20958586412E+02  0.42157196064E+03  0.54045017850E+03  0.90686698981E+02 0.  0.
        -11    1    3    3    0    0  0.13145185234E+02 -0.29280087913E+02  0.16974111963E+02  0.36307573866E+02  0.00000000000E+00 0.  1.
         11    1    3    3    0    0 -0.57829720394E+02 -0.15223229107E+03  0.33300857554E+03  0.37069348306E+03  0.00000000000E+00 0. -1.
        -13    1    4    4    0    0  0.28737278492E+03 -0.86387827650E+01  0.33479279096E+03  0.44129803870E+03  0.00000000000E+00 0.  1.
         13    1    4    4    0    0  0.37742791036E+02  0.29597369177E+02  0.86779169681E+02  0.99152139805E+02  0.00000000000E+00 0. -1.
         21    1    1    2  503  502 -0.26822234243E+02 -0.60102986546E+02 -0.13012690409E+03  0.14582459467E+03  0.00000000000E+00 0.  1.
          2    1    1    2  501    0 -0.25360880655E+03  0.22065677912E+03  0.62687874073E+03  0.71132538020E+03  0.00000000000E+00 0. -1.
<scales pt_clust_5="13000.00000" pt_clust_6="13000.00000" pt_clust_7="13000.00000" pt_clust_8="13000.00000" pt_clust_9="65.81642" pt_clust_10="13000.00000"></scales>
<clustering>
<clus scale="   65.816">  2  9  1 -1</clus>
<clus scale="   90.656">  5  6 -1 -1</clus>
<clus scale="   90.687">  7  8 -1 -1</clus>
<clus scale="  220.620">  1  5  2 -1</clus>
<clus scale="  304.623">  7 10 -1 -1</clus>
<clus scale="   65.816">  2  5  1 -1</clus>
</clustering>
</event>
<event>
10    2  0.4951045E-006  0.1457478E+03  0.7546771E-02  0.1219204E+00
          2   -1    0    0  503    0 -0.00000000000E+00  0.00000000000E+00  0.24464121830E+03  0.24464121830E+03  0.00000000000E+00 0. -1.
         21   -1    0    0  501  502  0.00000000000E+00 -0.00000000000E+00 -0.10137855102E+03  0.10137855102E+03  0.00000000000E+00 0.  1.
         23    2    1    2    0    0 -0.15554915902E+02  0.40918776882E+02  0.67400002540E+02  0.12312112656E+03  0.93272449061E+02 0.  0.
         23    2    1    2    0    0 -0.43883289349E+01 -0.23947735844E+02  0.64699554256E+02  0.11527586708E+03  0.92248261378E+02 0.  0.
        -13    1    4    4    0    0 -0.19916015373E+02 -0.68172210375E+01  0.83101368184E+02  0.85726072843E+02  0.00000000000E+00 0. -1.
         13    1    4    4    0    0  0.15527686438E+02 -0.17130514806E+02 -0.18401813928E+02  0.29549794238E+02  0.00000000000E+00 0.  1.
        -13    1    3    3    0    0 -0.25015156083E+02  0.62828848412E+02  0.20777493220E+02  0.70745504812E+02  0.00000000000E+00 0.  1.
         13    1    3    3    0    0  0.94602401808E+01 -0.21910071529E+02  0.46622509320E+02  0.52375621753E+02  0.00000000000E+00 0. -1.
         21    1    1    2  503  502 -0.13273441654E+02  0.32672295484E+02 -0.19694012719E+02  0.40392044793E+02  0.00000000000E+00 0.  1.
          2    1    1    2  501    0  0.33216686492E+02 -0.49643336522E+02  0.30857123200E+02  0.67230730880E+02  0.00000000000E+00 0. -1.
<scales pt_clust_5="13000.00000" pt_clust_6="13000.00000" pt_clust_7="13000.00000" pt_clust_8="13000.00000" pt_clust_9="35.26561" pt_clust_10="13000.00000"></scales>
<clustering>
<clus scale="   35.266">  2  9  1 -1</clus>
<clus scale="   92.248">  5  6 -1 -1</clus>
<clus scale="   50.959">  5 10 -1 -1</clus>
<clus scale="   93.272">  7  8 -1 -1</clus>
<clus scale="  109.596">  1  7  2 -1</clus>
<clus scale="   35.266">  2  5  1 -1</clus>
</clustering>
</event>
<event>
10    2  0.4951045E-006  0.2340010E+03  0.7546771E-02  0.1129081E+00
         21   -1    0    0  503  502  0.00000000000E+00  0.00000000000E+00  0.10584235341E+04  0.10584235341E+04  0.00000000000E+00 0. -1.
          1   -1    0    0  502    0 -0.00000000000E+00 -0.00000000000E+00 -0.73337720342E+02  0.73337720342E+02  0.00000000000E+00 0. -1.
         23    2    1    2    0    0  0.97124199258E+02  0.15555235309E+03  0.14975528849E+03  0.25359841055E+03  0.90861778391E+02 0.  0.
         23    2    1    2    0    0 -0.91220052510E+02 -0.49642436931E+02  0.39522841962E+03  0.41883559264E+03  0.91827449397E+02 0.  0.
        -11    1    3    3    0    0  0.36612528159E+02  0.13399510094E+03  0.11633547085E+03  0.18118804065E+03  0.00000000000E+00 0.  1.
         11    1    3    3    0    0  0.60511671098E+02  0.21557252143E+02  0.33419817636E+02  0.72410369906E+02  0.00000000000E+00 0. -1.
        -13    1    4    4    0    0 -0.34758782907E+02  0.18802965380E+02  0.20705578087E+03  0.21079331319E+03  0.00000000000E+00 0. -1.
         13    1    4    4    0    0 -0.56461269603E+02 -0.68445402310E+02  0.18817263875E+03  0.20804227945E+03  0.00000000000E+00 0.  1.
         21    1    1    2  503  501  0.27517133035E+02 -0.11874793302E+02  0.13620061844E+03  0.13945899681E+03  0.00000000000E+00 0. -1.
          1    1    1    2  501    0 -0.33421279783E+02 -0.94035122854E+02  0.30390148721E+03  0.31986825444E+03  0.00000000000E+00 0. -1.
<scales pt_clust_5="13000.00000" pt_clust_6="13000.00000" pt_clust_7="13000.00000" pt_clust_8="13000.00000" pt_clust_9="29.97004" pt_clust_10="13000.00000"></scales>
<clustering>
<clus scale="   29.970">  1  9  2 -1</clus>
<clus scale="   90.862">  5  6 -1 -1</clus>
<clus scale="   91.827">  7  8 -1 -1</clus>
<clus scale="  100.976">  7 10 -1 -1</clus>
<clus scale="  205.646">  2  5  1 -1</clus>
<clus scale="   29.970">  1  5  2 -1</clus>
</clustering>
</event>
<event>
10    2  0.4951045E-006  0.1496261E+03  0.7546771E-02  0.1223170E+00
         -3   -1    0    0    0  501 -0.00000000000E+00  0.00000000000E+00  0.19960456367E+03  0.19960456367E+03  0.00000000000E+00 0.  1.
         21   -1    0    0  503  502  0.00000000000E+00 -0.00000000000E+00 -0.15047737453E+03  0.15047737453E+03  0.00000000000E+00 0. -1.
         23    2    1    2    0    0 -0.29669606473E+02 -0.93487057916E+00 -0.24002378558E+02  0.98712792465E+02  0.91032640786E+02 0.  0.
         23    2    1    2    0    0  0.17551973631E+02 -0.48662331171E+02  0.11465168364E+03  0.15500241130E+03  0.90579493786E+02 0.  0.
        -11    1    3    3    0    0 -0.37395563119E+02  0.38114203224E+02 -0.24855739278E+02  0.58897609488E+02  0.00000000000E+00 0. -1.
         11    1    3    3    0    0  0.77259566455E+01 -0.39049073803E+02  0.85336071977E+00  0.39815182977E+02  0.00000000000E+00 0.  1.
        -11    1    4    4    0    0  0.33712807687E+02 -0.62764722078E+02  0.50414014276E+02  0.87278500073E+02  0.00000000000E+00 0.  1.
         11    1    4    4    0    0 -0.16160834056E+02  0.14102390907E+02  0.64237669366E+02  0.67723911230E+02  0.00000000000E+00 0. -1.
         21    1    1    2  503  501  0.16648274646E+02  0.11325322705E+02 -0.52554440476E+02  0.56279633944E+02  0.00000000000E+00 0. -1.
         -3    1    1    2    0  502 -0.45306418031E+01  0.38271879045E+02  0.11032324533E+02  0.40087100486E+02  0.00000000000E+00 0.  1.
<scales pt_clust_5="13000.00000" pt_clust_6="13000.00000" pt_clust_7="13000.00000" pt_clust_8="13000.00000" pt_clust_9="20.13524" pt_clust_10="13000.00000"></scales>
<clustering>
<clus scale="   20.135">  2  9  1 -1</clus>
<clus scale="   90.579">  7  8 -1 -1</clus>
<clus scale="   40.035">  7 10 -1 -1</clus>
<clus scale="   91.033">  5  6 -1 -1</clus>
<clus scale="   93.215">  1  5  2 -1</clus>
<clus scale="   20.135">  2  5  1 -1</clus>
</clustering>
</event>
<event>
10    2  0.4951045E-006  0.3251272E+03  0.7546771E-02  0.1075180E+00
          1   -1    0    0  502    0 -0.00000000000E+00  0.00000000000E+00  0.20386745400E+04  0.20386745400E+04  0.00000000000E+00 0. -1.
         21   -1    0    0  503  502  0.00000000000E+00 -0.00000000000E+00 -0.36127347657E+03  0.36127347657E+03  0.00000000000E+00 0.  1.
         23    2    1    2    0    0  0.21642648056E+03 -0.13579963720E+03  0.70797615170E+03  0.75792117921E+03  0.89063570322E+02 0.  0.
         23    2    1    2    0    0 -0.20582360481E+03  0.15369725143E+03  0.10939605712E+04  0.11274401852E+04  0.91572038899E+02 0.  0.
        -11    1    3    3    0    0  0.14625657768E+03 -0.47161272254E+02  0.34333073094E+03  0.37615311101E+03  0.00000000000E+00 0.  1.
         11    1    3    3    0    0  0.70169902880E+02 -0.88638364942E+02  0.36464542076E+03  0.38176806819E+03  0.00000000000E+00 0. -1.
        -11    1    4    4    0    0 -0.10276918510E+03  0.10894574153E+03  0.46500949761E+03  0.48853302126E+03  0.00000000000E+00 0.  1.
         11    1    4    4    0    0 -0.10305441972E+03  0.44751509904E+02  0.62895107363E+03  0.63890716390E+03  0.00000000000E+00 0. -1.
         21    1    1    2  503  501  0.59875650222E+02 -0.57236710412E+02 -0.30545091317E+03  0.31648285082E+03  0.00000000000E+00 0.  1.
          1    1    1    2  501    0 -0.70478525973E+02  0.39339096178E+02  0.18091525366E+03  0.19810380137E+03  0.00000000000E+00 0. -1.
<scales pt_clust_5="13000.00000" pt_clust_6="13000.00000" pt_clust_7="13000.00000" pt_clust_8="13000.00000" pt_clust_9="82.83197" pt_clust_10="13000.00000"></scales>
<clustering>
<clus scale="   82.832">  2  9  1 -1</clus>
<clus scale="   89.064">  5  6 -1 -1</clus>
<clus scale="   91.572">  7  8 -1 -1</clus>
<clus scale="   67.111">  7 10 -1 -1</clus>
<clus scale="  309.011">  1  5  2 -1</clus>
<clus scale="   82.832">  2  5  1 -1</clus>
</clustering>
</event>
<event>
10    2  0.4951045E-006  0.2108945E+03  0.7546771E-02  0.1148343E+00
          2   -1    0    0  503    0 -0.00000000000E+00  0.00000000000E+00  0.26161382607E+03  0.26161382607E+03  0.00000000000E+00 0. -1.
         21   -1    0    0  501  502  0.00000000000E+00 -0.00000000000E+00 -0.59887287288E+03  0.59887287288E+03  0.00000000000E+00 0.  1.
         23    2    1    2    0    0  0.68189257535E+02  0.14241503758E+03  0.13222012480E+03  0.22520479556E+03  0.91122010335E+02 0.  0.
         23    2    1    2    0    0 -0.29652320272E+02 -0.28153723596E+02 -0.43480931021E+02  0.10922972931E+03  0.91480326585E+02 0.  0.
        -11    1    3    3    0    0  0.12199154439E+02  0.98969218988E+02  0.36681823550E+02  0.10625103225E+03  0.00000000000E+00 0.  1.
         11    1    3    3    0    0  0.55990103096E+02  0.43445818589E+02  0.95538301250E+02  0.11895376330E+03  0.00000000000E+00 0. -1.
        -13    1    4    4    0    0 -0.21976579028E+02  0.28920762505E+02 -0.36029115640E+02  0.51161291065E+02  0.00000000000E+00 0. -1.
         13    1    4    4    0    0 -0.76757412433E+01 -0.57074486101E+02 -0.74518153811E+01  0.58068438241E+02  0.00000000000E+00 0.  1.
         21    1    1    2  503  502  0.40718789924E+02 -0.52087205377E+02 -0.41996675046E+03  0.42513899881E+03  0.00000000000E+00 0.  1.
          2    1    1    2  501    0 -0.79255727187E+02 -0.62174108604E+02 -0.60314901258E+01  0.10091317528E+03  0.00000000000E+00 0. -1.
<scales pt_clust_5="13000.00000" pt_clust_6="13000.00000" pt_clust_7="13000.00000" pt_clust_8="13000.00000" pt_clust_9="66.11427" pt_clust_10="13000.00000"></scales>
<clustering>
<clus scale="   66.114">  2  9  1 -1</clus>
<clus scale="   91.122">  5  6 -1 -1</clus>
<clus scale="   91.480">  7  8 -1 -1</clus>
<clus scale="  102.742">  7 10 -1 -1</clus>
<clus scale="  176.327">  1  5  2 -1</clus>
<clus scale="   66.114">  2  5  1 -1</clus>
</clustering>
</event>
<event>
10    2  0.4951045E-006  0.3720226E+03  0.7546771E-02  0.1090778E+00
          3   -1    0    0  502    0 -0.00000000000E+00  0.00000000000E+00  0.26784641253E+03  0.26784641253E+03  0.00000000000E+00 0. -1.
         21   -1    0    0  503  502  0.00000000000E+00 -0.00000000000E+00 -0.50224064447E+03  0.50224064447E+03  0.00000000000E+00 0. -1.
         23    2    1    2    0    0  0.32070568280E+02  0.95012874451E+02 -0.35970920766E+02  0.14050479810E+03  0.91606350698E+02 0.  0.
         23    2    1    2    0    0 -0.92806946438E+02 -0.37624089362E+02  0.79797899546E+02  0.14374934037E+03  0.65325849991E+02 0.  0.
        -11    1    3    3    0    0  0.45678470864E+02  0.63733678894E+01 -0.13452725514E+02  0.48042880248E+02  0.00000000000E+00 0.  1.
         11    1    3    3    0    0 -0.13607902584E+02  0.88639506562E+02 -0.22518195252E+02  0.92461917856E+02  0.00000000000E+00 0. -1.
        -11    1    4    4    0    0 -0.71650586319E+01 -0.18963430581E+02 -0.59532028433E+01  0.21127952780E+02  0.00000000000E+00 0.  1.
         11    1    4    4    0    0 -0.85641887806E+02 -0.18660658781E+02  0.85751102390E+02  0.12262138759E+03  0.00000000000E+00 0. -1.
         21    1    1    2  503  501 -0.10559232851E+03 -0.15158028808E+03 -0.21730147947E+03  0.28521265146E+03  0.00000000000E+00 0. -1.
          3    1    1    2  501    0  0.16632870667E+03  0.94191502991E+02 -0.60919731251E+02  0.20062026706E+03  0.00000000000E+00 0. -1.
<scales pt_clust_5="13000.00000" pt_clust_6="13000.00000" pt_clust_7="13000.00000" pt_clust_8="13000.00000" pt_clust_9="169.62349" pt_clust_10="13000.00000"></scales>
<clustering>
<clus scale="   65.326">  7  8 -1 -1</clus>
<clus scale="   91.606">  5  6 -1 -1</clus>
<clus scale="  135.822">  1  5  2 -1</clus>
<clus scale="  169.623">  2  9  1 -1</clus>
<clus scale="  113.132">  7 10 -1 -1</clus>
<clus scale="  169.623">  2  5  1 -1</clus>
</clustering>
</event>
<event>
10    2  0.4951045E-006  0.1816905E+03  0.7546771E-02  0.1194086E+00
         21   -1    0    0  503  502  0.00000000000E+00  0.00000000000E+00  0.76150755589E+03  0.76150755589E+03  0.00000000000E+00 0. -1.
          2   -1    0    0  502    0 -0.00000000000E+00 -0.00000000000E+00 -0.73644563610E+02  0.73644563610E+02  0.00000000000E+00 0. -1.
         23    2    1    2    0    0  0.56251816940E+01 -0.25479131360E+02  0.54823727118E+01  0.96082618981E+02  0.92309178611E+02 0.  0.
         23    2    1    2    0    0  0.85156824548E+02  0.35305135041E+02  0.22780596768E+03  0.26766217268E+03  0.10606291738E+03 0.  0.
        -11    1    3    3    0    0 -0.15514221821E+01 -0.53041671128E+02 -0.21117045643E+02  0.57111779902E+02  0.00000000000E+00 0. -1.
         11    1    3    3    0    0  0.71766038761E+01  0.27562539769E+02  0.26599418355E+02  0.38970839079E+02  0.00000000000E+00 0.  1.
        -11    1    4    4    0    0  0.23129406987E+02 -0.31718490809E+02  0.12062847871E+03  0.12685527976E+03  0.00000000000E+00 0. -1.
         11    1    4    4    0    0  0.62027417561E+02  0.67023625850E+02  0.10717748897E+03  0.14080689292E+03  0.00000000000E+00 0.  1.
         21    1    1    2  503  501 -0.45462833763E+02 -0.35715373796E+02  0.34764816403E+03  0.35242262007E+03  0.00000000000E+00 0. -1.
          2    1    1    2  501    0 -0.45319172479E+02  0.25889370114E+02  0.10692648785E+03  0.11898470777E+03  0.00000000000E+00 0. -1.
<scales pt_clust_5="13000.00000" pt_clust_6="13000.00000" pt_clust_7="13000.00000" pt_clust_8="13000.00000" pt_clust_9="57.81399" pt_clust_10="13000.00000"></scales>
<clustering>
<clus scale="   57.814">  1  9  2 -1</clus>
<clus scale="   92.309">  5  6 -1 -1</clus>
<clus scale="   97.027">  2  5  1 -1</clus>
<clus scale="  106.063">  7  8 -1 -1</clus>
<clus scale="   58.092">  7 10 -1 -1</clus>
<clus scale="   57.814">  1  5  2 -1</clus>
</clustering>
</event>
<event>
10    2  0.4951045E-006  0.2323692E+03  0.7546771E-02  0.1152003E+00
         21   -1    0    0  503  502  0.00000000000E+00  0.00000000000E+00  0.97822555669E+03  0.97822555669E+03  0.00000000000E+00 0.  1.
         -3   -1    0    0    0  501 -0.00000000000E+00 -0.00000000000E+00 -0.94092966838E+02  0.94092966838E+02  0.00000000000E+00 0.  1.
         23    2    1    2    0    0 -0.67874191787E+02  0.26039938029E+02 -0.49445074902E+01  0.11849772958E+03  0.93446666490E+02 0.  0.
         23    2    1    2    0    0  0.10151791586E+03 -0.74739110217E+02  0.32835460796E+03  0.36762135635E+03  0.10694340203E+03 0.  0.
        -11    1    4    4    0    0  0.63286399141E+02 -0.96952294522E+02  0.19127246618E+03  0.22358459707E+03  0.00000000000E+00 0.  1.
         11    1    4    4    0    0  0.38231516724E+02  0.22213184305E+02  0.13708214178E+03  0.14403675928E+03  0.00000000000E+00 0. -1.
        -11    1    3    3    0    0 -0.30107202725E+02  0.56862414524E+02  0.14601443578E+02  0.65977117215E+02  0.00000000000E+00 0. -1.
         11    1    3    3    0    0 -0.37766989062E+02 -0.30822476495E+02 -0.19545951068E+02  0.52520612365E+02  0.00000000000E+00 0.  1.
         21    1    1    2  503  501 -0.56219432965E+02 -0.35134287076E+02  0.37957643825E+03  0.38532235238E+03  0.00000000000E+00 0.  1.
         -3    1    1    2    0  502  0.22575708887E+02  0.83833459264E+02  0.18114605113E+03  0.20087708522E+03  0.00000000000E+00 0.  1.
<scales pt_clust_5="13000.00000" pt_clust_6="13000.00000" pt_clust_7="13000.00000" pt_clust_8="13000.00000" pt_clust_9="66.29512" pt_clust_10="13000.00000"></scales>
<clustering>
<clus scale="   66.295">  1  9  2 -1</clus>
<clus scale="   93.447">  7  8 -1 -1</clus>
<clus scale="  106.943">  5  6 -1 -1</clus>
<clus scale="   72.712">  5 10 -1 -1</clus>
<clus scale="  120.872">  2  7  1 -1</clus>
<clus scale="   66.295">  1  5  2 -1</clus>
</clustering>
</event>
<event>
10    2  0.4951045E-006  0.2172538E+03  0.7546771E-02  0.1158472E+00
         -1   -1    0    0    0  501 -0.00000000000E+00  0.00000000000E+00  0.49605665080E+03  0.49605665080E+03  0.00000000000E+00 0.  1.
         21   -1    0    0  503  502  0.00000000000E+00 -0.00000000000E+00 -0.16928956917E+03  0.16928956917E+03  0.00000000000E+00 0.  1.
         23    2    1    2    0    0  0.71789511682E+02 -0.26626906955E+02 -0.92268951278E+02  0.14978864258E+03  0.89779462657E+02 0.  0.
         23    2    1    2    0    0 -0.42130293046E+02  0.34420573941E+02  0.41935093269E+03  0.43226281612E+03  0.89644854570E+02 0.  0.
        -13    1    4    4    0    0  0.28110916008E+02  0.81809448799E+01  0.13962535577E+03  0.14266180789E+03  0.00000000000E+00 0. -1.
         13    1    4    4    0    0 -0.70241209054E+02  0.26239629061E+02  0.27972557692E+03  0.28960100823E+03  0.00000000000E+00 0.  1.
        -13    1    3    3    0    0  0.36874743633E+02  0.27556636466E+02 -0.13429577748E+02  0.47952773536E+02  0.00000000000E+00 0. -1.
         13    1    3    3    0    0  0.34914768049E+02 -0.54183543421E+02 -0.78839373530E+02  0.10183586905E+03  0.00000000000E+00 0.  1.
         21    1    1    2  503  501  0.19803696475E+02  0.10578850007E+02 -0.16769832808E+02  0.28023664177E+02  0.00000000000E+00 0. -1.
         -1    1    1    2    0  502 -0.49462915110E+02 -0.18372516992E+02  0.16454933029E+02  0.55271097084E+02  0.00000000000E+00 0.  1.
<scales pt_clust_5="13000.00000" pt_clust_6="13000.00000" pt_clust_7="13000.00000" pt_clust_8="13000.00000" pt_clust_9="22.45214" pt_clust_10="13000.00000"></scales>
<clustering>
<clus scale="   22.452">  2  9  1 -1</clus>
<clus scale="   89.645">  5  6 -1 -1</clus>
<clus scale="   49.827">  5 10 -1 -1</clus>
<clus scale="   89.779">  7  8 -1 -1</clus>
<clus scale="  127.059">  1  7  2 -1</clus>
<clus scale="   22.452">  2  5  1 -1</clus>
</clustering>
</event>
<event>
10    2  0.4951045E-006  0.4217130E+03  0.7546771E-02  0.1044147E+00
         -1   -1    0    0    0  501 -0.00000000000E+00  0.00000000000E+00  0.11811717860E+04  0.11811717860E+04  0.00000000000E+00 0.  1.
         21   -1    0    0  503  502  0.00000000000E+00 -0.00000000000E+00 -0.23698052537E+03  0.23698052537E+03  0.00000000000E+00 0.  1.
         23    2    1    2    0    0 -0.99672611947E+02 -0.30221342411E+03  0.68237985657E+03  0.75845856892E+03  0.91375865749E+02 0.  0.
         23    2    1    2    0    0  0.56856947764E+01  0.24632086007E+03  0.34654853571E+03  0.43451002001E+03  0.89424698253E+02 0.  0.
        -11    1    3    3    0    0 -0.41060379680E+02 -0.15726773323E+03  0.24536652631E+03  0.29431926021E+03  0.00000000000E+00 0. -1.
         11    1    3    3    0    0 -0.58612232267E+02 -0.14494569088E+03  0.43701333025E+03  0.46413930872E+03  0.00000000000E+00 0.  1.
        -13    1    4    4    0    0 -0.40148088844E+02  0.88879714383E+02  0.11513122182E+03  0.15088628468E+03  0.00000000000E+00 0. -1.
         13    1    4    4    0    0  0.45833783620E+02  0.15744114569E+03  0.23141731388E+03  0.28362373533E+03  0.00000000000E+00 0.  1.
         21    1    1    2  503  501 -0.45952242881E+01 -0.25622970589E+02 -0.93411707168E+02  0.96971128405E+02  0.00000000000E+00 0.  1.
         -1    1    1    2    0  502  0.98582141458E+02  0.81515534628E+02  0.86745754941E+01  0.12821259400E+03  0.00000000000E+00 0.  1.
<scales pt_clust_5="13000.00000" pt_clust_6="13000.00000" pt_clust_7="13000.00000" pt_clust_8="13000.00000" pt_clust_9="26.03176" pt_clust_10="13000.00000"></scales>
<clustering>
<clus scale="   26.032">  2  9  1 -1</clus>
<clus scale="   89.425">  7  8 -1 -1</clus>
<clus scale="   91.376">  5  6 -1 -1</clus>
<clus scale="  119.753">  7 10 -1 -1</clus>
<clus scale="  337.737">  1  5  2 -1</clus>
<clus scale="   26.032">  2  5  1 -1</clus>
</clustering>
</event>
<event>
10    2  0.4951045E-006  0.3228068E+03  0.7546771E-02  0.1119154E+00
          1   -1    0    0  503    0 -0.00000000000E+00  0.00000000000E+00  0.12556097934E+04  0.12556097934E+04  0.00000000000E+00 0. -1.
         21   -1    0    0  501  502  0.00000000000E+00 -0.00000000000E+00 -0.13788092301E+03  0.13788092301E+03  0.00000000000E+00 0. -1.
         23    2    1    2    0    0  0.70751771982E+01 -0.40835387710E+02  0.50774633876E+03  0.51754319618E+03  0.91252552670E+02 0.  0.
         23    2    1    2    0    0  0.43421331010E+02  0.14165683530E+03  0.58171103814E+03  0.60731658732E+03  0.92160915583E+02 0.  0.
        -11    1    3    3    0    0  0.31292689058E+02  0.18348075432E+02  0.18261974819E+03  0.18618769210E+03  0.00000000000E+00 0.  1.
         11    1    3    3    0    0 -0.24217511859E+02 -0.59183463142E+02  0.32512659057E+03  0.33135550408E+03  0.00000000000E+00 0. -1.
        -13    1    4    4    0    0  0.55640808129E+02  0.32082050950E+02  0.21179538403E+03  0.22131977367E+03  0.00000000000E+00 0.  1.
         13    1    4    4    0    0 -0.12219477119E+02  0.10957478435E+03  0.36991565411E+03  0.38599681365E+03  0.00000000000E+00 0. -1.
         21    1    1    2  503  502  0.81883106874E+01 -0.17102206493E+03 -0.49451367549E+01  0.17128937358E+03  0.00000000000E+00 0. -1.
          1    1    1    2  501    0 -0.58684818896E+02  0.70200617338E+02  0.33216630220E+02  0.97341559298E+02  0.00000000000E+00 0. -1.
<scales pt_clust_5="13000.00000" pt_clust_6="13000.00000" pt_clust_7="13000.00000" pt_clust_8="13000.00000" pt_clust_9="175.82292" pt_clust_10="13000.00000"></scales>
<clustering>
<clus scale="   91.253">  5  6 -1 -1</clus>
<clus scale="   92.161">  7  8 -1 -1</clus>
<clus scale="   91.499">  7 10 -1 -1</clus>
<clus scale="  100.223">  1  5  2 -1</clus>
<clus scale="  175.823">  2  9  1 -1</clus>
<clus scale="  175.823">  2  5  1 -1</clus>
</clustering>
</event>
<event>
10    2  0.4951045E-006  0.1963450E+03  0.7546771E-02  0.1185961E+00
          1   -1    0    0  503    0 -0.00000000000E+00  0.00000000000E+00  0.88467256893E+03  0.88467256893E+03  0.00000000000E+00 0. -1.
         21   -1    0    0  501  502  0.00000000000E+00 -0.00000000000E+00 -0.20482289680E+03  0.20482289680E+03  0.00000000000E+00 0.  1.
         23    2    1    2    0    0 -0.24270290700E+02  0.17970548926E+02  0.22208910914E+03  0.24195265523E+03  0.91134665937E+02 0.  0.
         23    2    1    2    0    0 -0.48573577743E+02  0.67728297190E+02  0.52425564154E+03  0.53844199318E+03  0.90162562288E+02 0.  0.
        -11    1    3    3    0    0  0.54809017641E+01  0.49701477304E+02  0.14578121745E+03  0.15411826787E+03  0.00000000000E+00 0. -1.
         11    1    3    3    0    0 -0.29751192464E+02 -0.31730928377E+02  0.76307891685E+02  0.87834387356E+02  0.00000000000E+00 0.  1.
        -13    1    4    4    0    0 -0.72041869726E+02  0.29437315320E+02  0.33968595060E+03  0.34848691734E+03  0.00000000000E+00 0.  1.
         13    1    4    4    0    0  0.23468291983E+02  0.38290981870E+02  0.18456969095E+03  0.18995507584E+03  0.00000000000E+00 0. -1.
         21    1    1    2  503  502  0.87066402070E+02 -0.22924583726E+02 -0.16701644199E+03  0.18973820597E+03  0.00000000000E+00 0.  1.
          1    1    1    2  501    0 -0.14222533626E+02 -0.62774262391E+02  0.10052136344E+03  0.11936261135E+03  0.00000000000E+00 0. -1.
<scales pt_clust_5="13000.00000" pt_clust_6="13000.00000" pt_clust_7="13000.00000" pt_clust_8="13000.00000" pt_clust_9="90.03385" pt_clust_10="13000.00000"></scales>
<clustering>
<clus scale="   90.034">  2  9  1 -1</clus>
<clus scale="   90.163">  7  8 -1 -1</clus>
<clus scale="   72.901">  7 10 -1 -1</clus>
<clus scale="   91.135">  5  6 -1 -1</clus>
<clus scale="   92.001">  1  5  2 -1</clus>
<clus scale="   90.034">  2  5  1 -1</clus>
</clustering>
</event>
<event>
10    2  0.4951045E-006  0.2245615E+03  0.7546771E-02  0.1153518E+00
         21   -1    0    0  501  502  0.00000000000E+00  0.00000000000E+00  0.14105123627E+03  0.14105123627E+03  0.00000000000E+00 0.  1.
         -4   -1    0    0    0  501 -0.00000000000E+00 -0.00000000000E+00 -0.53688751215E+03  0.53688751215E+03  0.00000000000E+00 0.  1.
         23    2    1    2    0    0 -0.70438795144E+02  0.50502137836E+02 -0.27695432168E+03  0.30405288231E+03  0.90732404134E+02 0.  0.
         23    2    1    2    0    0  0.79929423170E+02 -0.14493199860E+03 -0.15157573207E+03  0.24906076709E+03  0.10799104704E+03 0.  0.
        -11    1    4    4    0    0  0.10038068741E+03 -0.11298092738E+03 -0.14703180657E+03  0.21085379887E+03  0.00000000000E+00 0.  1.
         11    1    4    4    0    0 -0.20451264240E+02 -0.31951071221E+02 -0.45439255092E+01  0.38206968215E+02  0.00000000000E+00 0. -1.
        -11    1    3    3    0    0 -0.28794736596E+02 -0.25154404061E+02 -0.10235454459E+03  0.10926268209E+03  0.00000000000E+00 0.  1.
         11    1    3    3    0    0 -0.41644058548E+02  0.75656541897E+02 -0.17459977709E+03  0.19479020022E+03  0.00000000000E+00 0. -1.
         21    1    1    2  503  502  0.75296039696E+01  0.56862799187E+02  0.53671442382E+02  0.78553781543E+02  0.00000000000E+00 0.  1.
         -4    1    1    2    0  503 -0.17020231996E+02  0.37567061580E+02 -0.20977664509E+02  0.46271317479E+02  0.00000000000E+00 0.  1.
<scales pt_clust_5="13000.00000" pt_clust_6="13000.00000" pt_clust_7="13000.00000" pt_clust_8="13000.00000" pt_clust_9="57.35916" pt_clust_10="13000.00000"></scales>
<clustering>
<clus scale="   57.359">  1  9  2 -1</clus>
<clus scale="   90.732">  7  8 -1 -1</clus>
<clus scale="  107.991">  5  6 -1 -1</clus>
<clus scale="   49.724">  5 10 -1 -1</clus>
<clus scale="  129.223">  2  7  1 -1</clus>
<clus scale="   57.359">  1  5  2 -1</clus>
</clustering>
</event>
<event>
10    2  0.4951045E-006  0.2294515E+03  0.7546771E-02  0.1157676E+00
         -3   -1    0    0    0  501 -0.00000000000E+00  0.00000000000E+00  0.55326322233E+03  0.55326322233E+03  0.00000000000E+00 0.  1.
         21   -1    0    0  503  502  0.00000000000E+00 -0.00000000000E+00 -0.13488863418E+03  0.13488863418E+03  0.00000000000E+00 0. -1.
         23    2    1    2    0    0  0.45515578593E+02 -0.36460744512E+02  0.14286135144E+03  0.18022944029E+03  0.93124817461E+02 0.  0.
         23    2    1    2    0    0  0.39481757995E+02  0.16548319274E+01  0.59399576573E+02  0.11930991829E+03  0.95629489288E+02 0.  0.
        -11    1    3    3    0    0  0.65346351332E+02 -0.18448128019E+02  0.13685590125E+03  0.15277439827E+03  0.00000000000E+00 0.  1.
         11    1    3    3    0    0 -0.19830772739E+02 -0.18012616493E+02  0.60054501906E+01  0.27455042021E+02  0.00000000000E+00 0. -1.
        -11    1    4    4    0    0  0.70657297982E+02  0.58661101127E+01  0.48967672335E+02  0.86166686950E+02  0.00000000000E+00 0.  1.
         11    1    4    4    0    0 -0.31175539987E+02 -0.42112781853E+01  0.10431904238E+02  0.33143231337E+02  0.00000000000E+00 0. -1.
         21    1    1    2  503  501 -0.17188879642E+03  0.97149480593E+02  0.19896171416E+03  0.28030259295E+03  0.00000000000E+00 0. -1.
         -3    1    1    2    0  502  0.86891459835E+02 -0.62343568008E+02  0.17151945975E+02  0.10830990497E+03  0.00000000000E+00 0.  1.
<scales pt_clust_5="13000.00000" pt_clust_6="13000.00000" pt_clust_7="13000.00000" pt_clust_8="13000.00000" pt_clust_9="162.32886" pt_clust_10="13000.00000"></scales>
<clustering>
<clus scale="   93.125">  5  6 -1 -1</clus>
<clus scale="   95.629">  7  8 -1 -1</clus>
<clus scale="  106.943">  7 10 -1 -1</clus>
<clus scale="  109.879">  1  5  2 -1</clus>
<clus scale="  162.329">  2  9  1 -1</clus>
<clus scale="  162.329">  2  5  1 -1</clus>
</clustering>
</event>
<event>
10    2  0.4951045E-006  0.1363441E+04  0.7546771E-02  0.9617592E-01
         21   -1    0    0  503  502  0.00000000000E+00  0.00000000000E+00  0.13541362082E+04  0.13541362082E+04  0.00000000000E+00 0. -1.
          2   -1    0    0  502    0 -0.00000000000E+00 -0.00000000000E+00 -0.13146349222E+04  0.13146349222E+04  0.00000000000E+00 0. -1.
         23    2    1    2    0    0 -0.21943922458E+02 -0.93295720751E+02 -0.16361601769E+03  0.21061302368E+03  0.91662518264E+02 0.  0.
         23    2    1    2    0    0  0.13965340801E+03 -0.40789422695E+02 -0.16028729435E+03  0.23452110838E+03  0.90229053924E+02 0.  0.
        -13    1    4    4    0    0  0.87054689746E+02 -0.37169254894E+02 -0.15488780904E+03  0.18152219122E+03  0.00000000000E+00 0. -1.
         13    1    4    4    0    0  0.52598718263E+02 -0.36201678010E+01 -0.53994853047E+01  0.52998917153E+02  0.00000000000E+00 0.  1.
        -13    1    3    3    0    0 -0.39034323819E+02 -0.61089526992E+02 -0.15784799482E+03  0.17369973579E+03  0.00000000000E+00 0.  1.
         13    1    3    3    0    0  0.17090401361E+02 -0.32206193759E+02 -0.57680228724E+01  0.36913287891E+02  0.00000000000E+00 0. -1.
         21    1    1    2  503  501  0.85363390766E+03  0.64961321056E+03  0.33428116188E+03  0.11235800224E+04  0.00000000000E+00 0. -1.
          2    1    1    2  501    0 -0.97134339321E+03 -0.51552806711E+03  0.29123436142E+02  0.11000569758E+04  0.00000000000E+00 0. -1.
<scales pt_clust_5="13000.00000" pt_clust_6="13000.00000" pt_clust_7="13000.00000" pt_clust_8="13000.00000" pt_clust_9="1047.03120" pt_clust_10="13000.00000"></scales>
<clustering>
<clus scale="   90.229">  5  6 -1 -1</clus>
<clus scale="   91.663">  7  8 -1 -1</clus>
<clus scale="  132.618">  2  7  1 -1</clus>
<clus scale=" 1047.031">  1  9  2 -1</clus>
<clus scale="  194.872">  5 10 -1 -1</clus>
<clus scale=" 1047.031">  1  5  2 -1</clus>
</clustering>
</event>
<event>
10    2  0.4951045E-006  0.4791717E+03  0.7546771E-02  0.1077257E+00
         21   -1    0    0  501  502  0.00000000000E+00  0.00000000000E+00  0.10467684348E+03  0.10467684348E+03  0.00000000000E+00 0.  1.
         -3   -1    0    0    0  501 -0.00000000000E+00 -0.00000000000E+00 -0.91644096198E+03  0.91644096198E+03  0.00000000000E+00 0.  1.
         23    2    1    2    0    0  0.15689667065E+01  0.12396635892E+02 -0.18899700028E+03  0.20995746954E+03  0.90587718055E+02 0.  0.
         23    2    1    2    0    0 -0.22979354122E+01  0.10011511449E+03 -0.66069536400E+03  0.67663552341E+03  0.10624947471E+03 0.  0.
        -11    1    3    3    0    0 -0.18287676892E+02 -0.35097648733E+02 -0.91867824201E+02  0.10002990151E+03  0.00000000000E+00 0. -1.
         11    1    3    3    0    0  0.19856643598E+02  0.47494284625E+02 -0.97129176083E+02  0.10992756803E+03  0.00000000000E+00 0.  1.
        -13    1    4    4    0    0 -0.12469985277E+02 -0.20773369085E+02 -0.13141144638E+03  0.13362635083E+03  0.00000000000E+00 0. -1.
         13    1    4    4    0    0  0.10172049865E+02  0.12088848358E+03 -0.52928391762E+03  0.54300917259E+03  0.00000000000E+00 0.  1.
         21    1    1    2  503  502 -0.21988806278E+02 -0.13500410475E+02 -0.78367497035E+00  0.25814391935E+02  0.00000000000E+00 0.  1.
         -3    1    1    2    0  503  0.22717774984E+02 -0.99011339909E+02  0.38711920765E+02  0.10871042057E+03  0.00000000000E+00 0.  1.
<scales pt_clust_5="13000.00000" pt_clust_6="13000.00000" pt_clust_7="13000.00000" pt_clust_8="13000.00000" pt_clust_9="25.80249" pt_clust_10="13000.00000"></scales>
<clustering>
<clus scale="   25.802">  1  9  2 -1</clus>
<clus scale="   90.588">  5  6 -1 -1</clus>
<clus scale="   91.241">  2  5  1 -1</clus>
<clus scale="  106.249">  7  8 -1 -1</clus>
<clus scale="  109.124">  7 10 -1 -1</clus>
<clus scale="   25.802">  1  5  2 -1</clus>
</clustering>
</event>
<event>
10    2  0.4951045E-006  0.7398473E+03  0.7546771E-02  0.1027668E+00
          1   -1    0    0  502    0 -0.00000000000E+00  0.00000000000E+00  0.74877080609E+03  0.74877080609E+03  0.00000000000E+00 0. -1.
         21   -1    0    0  503  502  0.00000000000E+00 -0.00000000000E+00 -0.27580691670E+03  0.27580691670E+03  0.00000000000E+00 0. -1.
         23    2    1    2    0    0 -0.47857269531E+02  0.64306432409E+01 -0.20527080321E+01  0.10295340481E+03  0.90903897236E+02 0.  0.
         23    2    1    2    0    0 -0.18522347017E+03  0.15315576737E+03  0.56530720532E+03  0.62071354223E+03  0.89155157717E+02 0.  0.
        -11    1    4    4    0    0 -0.14976744324E+03  0.10218044214E+03  0.49367668765E+03  0.52591615467E+03  0.00000000000E+00 0. -1.
         11    1    4    4    0    0 -0.35456026935E+02  0.50975325231E+02  0.71630517668E+02  0.94797387568E+02  0.00000000000E+00 0.  1.
        -13    1    3    3    0    0 -0.71246489855E+02 -0.12937508428E+02  0.11234515321E+01  0.72420325767E+02  0.00000000000E+00 0.  1.
         13    1    3    3    0    0  0.23389220323E+02  0.19368151669E+02 -0.31761595642E+01  0.30533079045E+02  0.00000000000E+00 0. -1.
         21    1    1    2  503  501  0.13836544265E+02 -0.26352673457E+02 -0.16132862074E+02  0.33855318551E+02  0.00000000000E+00 0. -1.
          1    1    1    2  501    0  0.21924419544E+03 -0.13323373715E+03 -0.74157745829E+02  0.26705545719E+03  0.00000000000E+00 0. -1.
<scales pt_clust_5="13000.00000" pt_clust_6="13000.00000" pt_clust_7="13000.00000" pt_clust_8="13000.00000" pt_clust_9="29.76430" pt_clust_10="13000.00000"></scales>
<clustering>
<clus scale="   29.764">  2  9  1 -1</clus>
<clus scale="   89.155">  5  6 -1 -1</clus>
<clus scale="   90.904">  7  8 -1 -1</clus>
<clus scale="  101.419">  1  7  2 -1</clus>
<clus scale="  267.790">  5 10 -1 -1</clus>
<clus scale="   29.764">  2  5  1 -1</clus>
</clustering>
</event>
<event>
10    2  0.4951045E-006  0.4492552E+03  0.7546771E-02  0.1065566E+00
         21   -1    0    0  503  502  0.00000000000E+00  0.00000000000E+00  0.31843699046E+03  0.31843699046E+03  0.00000000000E+00 0. -1.
          3   -1    0    0  502    0 -0.00000000000E+00 -0.00000000000E+00 -0.57408109149E+03  0.57408109149E+03  0.00000000000E+00 0. -1.
         23    2    1    2    0    0  0.12185351545E+03 -0.22912581157E+02 -0.40296752175E+02  0.15945417026E+03  0.91807072569E+02 0.  0.
         23    2    1    2    0    0 -0.81273001512E+02  0.60513665718E+02 -0.46001587245E+03  0.48073871375E+03  0.96061977270E+02 0.  0.
        -11    1    3    3    0    0  0.44089924716E+02 -0.53697148852E+02 -0.28048318579E+02  0.74926720410E+02  0.00000000000E+00 0.  1.
         11    1    3    3    0    0  0.77763590737E+02  0.30784567695E+02 -0.12248433596E+02  0.84527449850E+02  0.00000000000E+00 0. -1.
        -13    1    4    4    0    0 -0.51926779875E+01 -0.24784003578E+02 -0.81829528369E+02  0.85657938635E+02  0.00000000000E+00 0.  1.
         13    1    4    4    0    0 -0.76080323525E+02  0.85297669297E+02 -0.37818634408E+03  0.39508077511E+03  0.00000000000E+00 0. -1.
         21    1    1    2  503  501 -0.11617422773E+02 -0.23033022992E+02  0.15141272326E+03  0.15359458787E+03  0.00000000000E+00 0. -1.
          3    1    1    2  501    0 -0.28963091168E+02 -0.14568061570E+02  0.93255800343E+02  0.98730610073E+02  0.00000000000E+00 0. -1.
<scales pt_clust_5="13000.00000" pt_clust_6="13000.00000" pt_clust_7="13000.00000" pt_clust_8="13000.00000" pt_clust_9="25.79699" pt_clust_10="13000.00000"></scales>
<clustering>
<clus scale="   25.797">  1  9  2 -1</clus>
<clus scale="   91.807">  5  6 -1 -1</clus>
<clus scale="   96.062">  7  8 -1 -1</clus>
<clus scale="   45.292">  7 10 -1 -1</clus>
<clus scale="  152.480">  2  5  1 -1</clus>
<clus scale="   25.797">  1  5  2 -1</clus>
</clustering>
</event>
<event>
10    2  0.4951045E-006  0.6518969E+03  0.7546771E-02  0.1041329E+00
          2   -1    0    0  502    0 -0.00000000000E+00  0.00000000000E+00  0.27549857461E+03  0.27549857461E+03  0.00000000000E+00 0. -1.
         21   -1    0    0  503  502  0.00000000000E+00 -0.00000000000E+00 -0.77664431661E+03  0.77664431661E+03  0.00000000000E+00 0.  1.
         23    2    1    2    0    0  0.20582646095E+02 -0.30679422798E+02 -0.26699073064E+02  0.10272995356E+03  0.92063730932E+02 0.  0.
         23    2    1    2    0    0  0.12171070334E+03  0.24284718204E+03 -0.14989225467E+03  0.32356700709E+03  0.91867681680E+02 0.  0.
        -11    1    3    3    0    0 -0.14536267813E+02  0.23875659849E+02  0.81037918624E+01  0.29103636503E+02  0.00000000000E+00 0.  1.
         11    1    3    3    0    0  0.35118913908E+02 -0.54555082647E+02 -0.34802864926E+02  0.73626317060E+02  0.00000000000E+00 0. -1.
        -13    1    4    4    0    0  0.29404184812E+02  0.62844896591E+02  0.38409042411E+01  0.69489852909E+02  0.00000000000E+00 0. -1.
         13    1    4    4    0    0  0.92306518528E+02  0.18000228544E+03 -0.15373315891E+03  0.25407715418E+03  0.00000000000E+00 0.  1.
         21    1    1    2  503  501 -0.16443083399E+02  0.12121304487E+03 -0.22459767782E+03  0.25574810678E+03  0.00000000000E+00 0.  1.
          2    1    1    2  501    0 -0.12585026604E+03 -0.33338080411E+03 -0.99956736449E+02  0.37009782379E+03  0.00000000000E+00 0. -1.
<scales pt_clust_5="13000.00000" pt_clust_6="13000.00000" pt_clust_7="13000.00000" pt_clust_8="13000.00000" pt_clust_9="120.15270" pt_clust_10="13000.00000"></scales>
<clustering>
<clus scale="   91.868">  7  8 -1 -1</clus>
<clus scale="   92.064">  5  6 -1 -1</clus>
<clus scale="   99.200">  1  5  2 -1</clus>
<clus scale="  120.153">  2  9  1 -1</clus>
<clus scale="  313.546">  7 10 -1 -1</clus>
<clus scale="  120.153">  2  5  1 -1</clus>
</clustering>
</event>
<event>
10    2  0.4951045E-006  0.2898363E+03  0.7546771E-02  0.1128077E+00
          3   -1    0    0  503    0 -0.00000000000E+00  0.00000000000E+00  0.82110085396E+02  0.82110085396E+02  0.00000000000E+00 0. -1.
         21   -1    0    0  501  502  0.00000000000E+00 -0.00000000000E+00 -0.78581719536E+03  0.78581719536E+03  0.00000000000E+00 0. -1.
         23    2    1    2    0    0 -0.54360933632E+02  0.52376367832E+02 -0.32402450884E+03  0.34497366068E+03  0.91195116222E+02 0.  0.
         23    2    1    2    0    0  0.16350422783E+02  0.77611090890E+01  0.33605649521E+02  0.98931540290E+02  0.91271785591E+02 0.  0.
        -11    1    4    4    0    0 -0.31947129382E+02  0.16640587960E+02  0.34413560472E+02  0.49817882208E+02  0.00000000000E+00 0. -1.
         11    1    4    4    0    0  0.48297552164E+02 -0.88794788710E+01 -0.80791095024E+00  0.49113658082E+02  0.00000000000E+00 0.  1.
        -11    1    3    3    0    0 -0.20164997899E+02 -0.16731037126E+02 -0.25170752006E+02  0.36333476301E+02  0.00000000000E+00 0.  1.
         11    1    3    3    0    0 -0.34195935733E+02  0.69107404958E+02 -0.29885375683E+03  0.30864018438E+03  0.00000000000E+00 0. -1.
         21    1    1    2  503  502 -0.36644857536E+01 -0.45412907951E+02 -0.14123681234E+03  0.14840349667E+03  0.00000000000E+00 0.  1.
          3    1    1    2  501    0  0.41674996603E+02 -0.14724568970E+02 -0.27205143831E+03  0.27561858311E+03  0.00000000000E+00 0. -1.
<scales pt_clust_5="13000.00000" pt_clust_6="13000.00000" pt_clust_7="13000.00000" pt_clust_8="13000.00000" pt_clust_9="45.56052" pt_clust_10="13000.00000"></scales>
<clustering>
<clus scale="   45.561">  2  9  1 -1</clus>
<clus scale="   91.195">  7  8 -1 -1</clus>
<clus scale="   91.272">  5  6 -1 -1</clus>
<clus scale="   52.662">  5 10 -1 -1</clus>
<clus scale="  110.931">  1  7  2 -1</clus>
<clus scale="   45.561">  2  5  1 -1</clus>
</clustering>
</event>
<event>
10    2  0.4951045E-006  0.2867753E+03  0.7546771E-02  0.1108221E+00
         21   -1    0    0  503  502  0.00000000000E+00  0.00000000000E+00  0.57630044509E+03  0.57630044509E+03  0.00000000000E+00 0. -1.
         -3   -1    0    0    0  501 -0.00000000000E+00 -0.00000000000E+00 -0.21289234690E+03  0.21289234690E+03  0.00000000000E+00 0.  1.
         23    2    1    2    0    0 -0.11520569747E+03  0.10104701890E+03  0.20917689141E+03  0.27594564062E+03  0.94383112492E+02 0.  0.
         23    2    1    2    0    0  0.11699891954E+03 -0.12008834610E+03 -0.12108358485E+03  0.22730513152E+03  0.94320889798E+02 0.  0.
        -11    1    4    4    0    0  0.73217922792E+02 -0.12206610667E+03 -0.11513692062E+03  0.18307787716E+03  0.00000000000E+00 0.  1.
         11    1    4    4    0    0  0.43780996743E+02  0.19777605650E+01 -0.59466642293E+01  0.44227254359E+02  0.00000000000E+00 0. -1.
        -13    1    3    3    0    0 -0.69971099556E+02  0.38218914813E+02  0.38513078739E+02  0.88543195428E+02  0.00000000000E+00 0.  1.
         13    1    3    3    0    0 -0.45234597909E+02  0.62828104090E+02  0.17066381267E+03  0.18740244520E+03  0.00000000000E+00 0. -1.
         21    1    1    2  503  501  0.19135890957E+02  0.38760592603E+02  0.21258662340E+03  0.21693694547E+03  0.00000000000E+00 0. -1.
         -3    1    1    2    0  502 -0.20929113028E+02 -0.19719265404E+02  0.62728168237E+02  0.69005074383E+02  0.00000000000E+00 0.  1.
<scales pt_clust_5="13000.00000" pt_clust_6="13000.00000" pt_clust_7="13000.00000" pt_clust_8="13000.00000" pt_clust_9="43.22691" pt_clust_10="13000.00000"></scales>
<clustering>
<clus scale="   43.227">  1  9  2 -1</clus>
<clus scale="   94.321">  5  6 -1 -1</clus>
<clus scale="   21.552">  5 10 -1 -1</clus>
<clus scale="   94.383">  7  8 -1 -1</clus>
<clus scale="  188.493">  2  7  1 -1</clus>
<clus scale="   43.227">  1  5  2 -1</clus>
</clustering>
</event>
<event>
10    2  0.4951045E-006  0.1554894E+03  0.7546771E-02  0.1217129E+00
          1   -1    0    0  503    0 -0.00000000000E+00  0.00000000000E+00  0.74442083718E+03  0.74442083718E+03  0.00000000000E+00 0. -1.
         21   -1    0    0  501  502  0.00000000000E+00 -0.00000000000E+00 -0.18165535706E+03  0.18165535706E+03  0.00000000000E+00 0. -1.
         23    2    1    2    0    0 -0.31059503402E+02 -0.93842116441E+01  0.27150459585E+03  0.28835173943E+03  0.91538100739E+02 0.  0.
         23    2    1    2    0    0  0.21562332748E+02  0.59804085013E+02  0.33244763829E+03  0.35080623851E+03  0.92206952010E+02 0.  0.
        -11    1    4    4    0    0 -0.16139949283E+02  0.61880521889E+02  0.13012668252E+03  0.14499189790E+03  0.00000000000E+00 0.  1.
         11    1    4    4    0    0  0.37702282031E+02 -0.20764368766E+01  0.20232095577E+03  0.20581434062E+03  0.00000000000E+00 0. -1.
        -11    1    3    3    0    0 -0.60775599037E+02  0.10037656910E+02  0.16945199457E+03  0.18030087759E+03  0.00000000000E+00 0.  1.
         11    1    3    3    0    0  0.29716095635E+02 -0.19421868554E+02  0.10205260128E+03  0.10805086185E+03  0.00000000000E+00 0. -1.
         21    1    1    2  503  502  0.45287120033E+02 -0.22522678530E+02 -0.15571730218E+03  0.16372560119E+03  0.00000000000E+00 0. -1.
          1    1    1    2  501    0 -0.35789949379E+02 -0.27897194838E+02  0.11453054815E+03  0.12319261511E+03  0.00000000000E+00 0. -1.
<scales pt_clust_5="13000.00000" pt_clust_6="13000.00000" pt_clust_7="13000.00000" pt_clust_8="13000.00000" pt_clust_9="50.57860" pt_clust_10="13000.00000"></scales>
<clustering>
<clus scale="   50.579">  2  9  1 -1</clus>
<clus scale="   91.538">  7  8 -1 -1</clus>
<clus scale="   92.207">  5  6 -1 -1</clus>
<clus scale="   42.035">  5 10 -1 -1</clus>
<clus scale="   94.293">  1  7  2 -1</clus>
<clus scale="   50.579">  2  5  1 -1</clus>
</clustering>
</event>
<event>
10    2  0.4951045E-006  0.2514805E+03  0.7546771E-02  0.1136089E+00
          1   -1    0    0  503    0 -0.00000000000E+00  0.00000000000E+00  0.71461206031E+03  0.71461206031E+03  0.00000000000E+00 0. -1.
         21   -1    0    0  501  502  0.00000000000E+00 -0.00000000000E+00 -0.10949574698E+03  0.10949574698E+03  0.00000000000E+00 0.  1.
         23    2    1    2    0    0  0.10847775940E+03  0.61053520594E+01  0.44712457993E+03  0.46881910037E+03  0.89812355972E+02 0.  0.
         23    2    1    2    0    0 -0.13572834042E+03  0.81350767173E+02  0.82825878061E+02  0.20084165272E+03  0.91853762456E+02 0.  0.
        -11    1    3    3    0    0  0.54063439350E+00  0.20172948071E+02  0.21462120620E+02  0.29459510195E+02  0.00000000000E+00 0.  1.
         11    1    3    3    0    0  0.10793712501E+03 -0.14067596011E+02  0.42566245931E+03  0.43935959018E+03  0.00000000000E+00 0. -1.
        -13    1    4    4    0    0 -0.44307747045E+02  0.40074400060E+01 -0.14220700405E+02  0.46706148884E+02  0.00000000000E+00 0. -1.
         13    1    4    4    0    0 -0.91420593380E+02  0.77343327167E+02  0.97046578466E+02  0.15413550384E+03  0.00000000000E+00 0.  1.
         21    1    1    2  503  502 -0.11583891021E+02 -0.49660432072E+02 -0.11461891373E+02  0.52265858824E+02  0.00000000000E+00 0.  1.
          1    1    1    2  501    0  0.38834472042E+02 -0.37795687160E+02  0.86627746712E+02  0.10218119537E+03  0.00000000000E+00 0. -1.
<scales pt_clust_5="13000.00000" pt_clust_6="13000.00000" pt_clust_7="13000.00000" pt_clust_8="13000.00000" pt_clust_9="50.99358" pt_clust_10="13000.00000"></scales>
<clustering>
<clus scale="   50.994">  2  9  1 -1</clus>
<clus scale="   89.812">  5  6 -1 -1</clus>
<clus scale="   91.854">  7  8 -1 -1</clus>
<clus scale="   56.997">  7 10 -1 -1</clus>
<clus scale="  139.592">  1  5  2 -1</clus>
<clus scale="   50.994">  2  5  1 -1</clus>
</clustering>
</event>
<event>
10    2  0.4951045E-006  0.1593591E+03  0.7546771E-02  0.1210922E+00
         21   -1    0    0  501  502  0.00000000000E+00  0.00000000000E+00  0.31970379118E+02  0.31970379118E+02  0.00000000000E+00 0.  1.
          1   -1    0    0  503    0 -0.00000000000E+00 -0.00000000000E+00 -0.62542798017E+03  0.62542798017E+03  0.00000000000E+00 0. -1.
         23    2    1    2    0    0  0.82854372136E+01 -0.32665258780E+02 -0.20377758111E+03  0.22556404970E+03  0.90654124859E+02 0.  0.
         23    2    1    2    0    0  0.18179414929E+02 -0.57825983622E+01 -0.22944010117E+03  0.24821125409E+03  0.92747706497E+02 0.  0.
        -11    1    4    4    0    0 -0.10827698269E+02  0.36141459050E+02 -0.14265610261E+03  0.14756086108E+03  0.00000000000E+00 0. -1.
         11    1    4    4    0    0  0.29007113198E+02 -0.41924057413E+02 -0.86783998567E+02  0.10065039301E+03  0.00000000000E+00 0.  1.
        -13    1    3    3    0    0 -0.11092442268E+02 -0.49566105568E+02 -0.56151542895E+02  0.75715499511E+02  0.00000000000E+00 0.  1.
         13    1    3    3    0    0  0.19377879482E+02  0.16900846788E+02 -0.14762603821E+03  0.14984855019E+03  0.00000000000E+00 0. -1.
         21    1    1    2  503  502  0.43687588670E+01 -0.21645630392E+02 -0.37011117143E+02  0.43098052871E+02  0.00000000000E+00 0. -1.
          1    1    1    2  501    0 -0.30833611009E+02  0.60093487535E+02 -0.12322880163E+03  0.14052500262E+03  0.00000000000E+00 0. -1.
<scales pt_clust_5="13000.00000" pt_clust_6="13000.00000" pt_clust_7="13000.00000" pt_clust_8="13000.00000" pt_clust_9="22.08211" pt_clust_10="13000.00000"></scales>
<clustering>
<clus scale="   22.082">  1  9  2 -1</clus>
<clus scale="   90.654">  7  8 -1 -1</clus>
<clus scale="   92.748">  5  6 -1 -1</clus>
<clus scale="   61.215">  5 10 -1 -1</clus>
<clus scale="   99.914">  2  7  1 -1</clus>
<clus scale="   22.082">  1  5  2 -1</clus>
</clustering>
</event>
<event>
10    2  0.4951045E-006  0.1540784E+03  0.7546771E-02  0.1213822E+00
         -1   -1    0    0    0  501 -0.00000000000E+00  0.00000000000E+00  0.84756007804E+03  0.84756007804E+03  0.00000000000E+00 0.  1.
         21   -1    0    0  503  502  0.00000000000E+00 -0.00000000000E+00 -0.64986683611E+02  0.64986683611E+02  0.00000000000E+00 0. -1.
         23    2    1    2    0    0 -0.28295387799E+02 -0.41818519446E+02  0.56548846617E+03  0.57481765800E+03  0.89937295039E+02 0.  0.
         23    2    1    2    0    0  0.93242804720E+02  0.84343701099E+01  0.17351270833E+03  0.21699251594E+03  0.90629646303E+02 0.  0.
        -11    1    3    3    0    0 -0.45990701914E+02 -0.61192570497E+02  0.44095434965E+03  0.44754934233E+03  0.00000000000E+00 0. -1.
         11    1    3    3    0    0  0.17695314115E+02  0.19374051051E+02  0.12453411652E+03  0.12726831567E+03  0.00000000000E+00 0.  1.
        -11    1    4    4    0    0  0.86727218883E+02  0.29410370084E+02  0.17214124726E+03  0.19498510039E+03  0.00000000000E+00 0.  1.
         11    1    4    4    0    0  0.65155858366E+01 -0.20975999974E+02  0.13714610681E+01  0.22007415550E+02  0.00000000000E+00 0. -1.
         21    1    1    2  503  501 -0.39903438782E+02  0.18285079773E+02 -0.21882974282E+02  0.49045826860E+02  0.00000000000E+00 0. -1.
         -1    1    1    2    0  502 -0.25043978138E+02  0.15099069564E+02  0.65455194209E+02  0.71690760853E+02  0.00000000000E+00 0.  1.
<scales pt_clust_5="13000.00000" pt_clust_6="13000.00000" pt_clust_7="13000.00000" pt_clust_8="13000.00000" pt_clust_9="43.89338" pt_clust_10="13000.00000"></scales>
<clustering>
<clus scale="   43.893">  2  9  1 -1</clus>
<clus scale="   89.937">  5  6 -1 -1</clus>
<clus scale="   90.630">  7  8 -1 -1</clus>
<clus scale="   33.854">  7 10 -1 -1</clus>
<clus scale="  103.930">  1  5  2 -1</clus>
<clus scale="   43.893">  2  5  1 -1</clus>
</clustering>
</event>
<event>
10    2  0.4951045E-006  0.1241470E+03  0.7546771E-02  0.1250404E+00
          2   -1    0    0  503    0 -0.00000000000E+00  0.00000000000E+00  0.30648202287E+03  0.30648202287E+03  0.00000000000E+00 0. -1.
         21   -1    0    0  501  502  0.00000000000E+00 -0.00000000000E+00 -0.10631139606E+03  0.10631139606E+03  0.00000000000E+00 0. -1.
         23    2    1    2    0    0  0.17057709232E+02 -0.41884362357E+02  0.13708994584E+03  0.17019254284E+03  0.90147563089E+02 0.  0.
         23    2    1    2    0    0  0.14918719372E+02 -0.10917378021E+02  0.70053877013E+02  0.11788809626E+03  0.92996237696E+02 0.  0.
        -11    1    4    4    0    0  0.18221796758E+02  0.38252206210E+02  0.17497395619E+02  0.45841291545E+02  0.00000000000E+00 0.  1.
         11    1    4    4    0    0 -0.33030773860E+01 -0.49169584232E+02  0.52556481394E+02  0.72046804719E+02  0.00000000000E+00 0. -1.
        -13    1    3    3    0    0  0.37235294606E+02 -0.44620127425E+02  0.13807454095E+03  0.14980654790E+03  0.00000000000E+00 0. -1.
         13    1    3    3    0    0 -0.20177585374E+02  0.27357650673E+01 -0.98459510276E+00  0.20385994936E+02  0.00000000000E+00 0.  1.
         21    1    1    2  503  502 -0.66916520372E+02  0.55427442048E+02 -0.16407221705E+02  0.88426347628E+02  0.00000000000E+00 0. -1.
          2    1    1    2  501    0  0.34940091767E+02 -0.26257016696E+01  0.94340256533E+01  0.36286432203E+02  0.00000000000E+00 0. -1.
<scales pt_clust_5="13000.00000" pt_clust_6="13000.00000" pt_clust_7="13000.00000" pt_clust_8="13000.00000" pt_clust_9="86.89086" pt_clust_10="13000.00000"></scales>
<clustering>
<clus scale="   86.891">  2  9  1 -1</clus>
<clus scale="   90.148">  7  8 -1 -1</clus>
<clus scale="   92.996">  5  6 -1 -1</clus>
<clus scale="   21.420">  5 10 -1 -1</clus>
<clus scale="   93.578">  1  7  2 -1</clus>
<clus scale="   86.891">  2  5  1 -1</clus>
</clustering>
</event>
<event>
10    2  0.4951045E-006  0.2976035E+03  0.7546771E-02  0.1117311E+00
         21   -1    0    0  501  502  0.00000000000E+00  0.00000000000E+00  0.30620448948E+03  0.30620448948E+03  0.00000000000E+00 0.  1.
         -1   -1    0    0    0  501 -0.00000000000E+00 -0.00000000000E+00 -0.38194135866E+03  0.38194135866E+03  0.00000000000E+00 0.  1.
         23    2    1    2    0    0  0.80440334990E+02 -0.49469871596E+02 -0.22459423579E+03  0.26036424694E+03  0.91809883135E+02 0.  0.
         23    2    1    2    0    0 -0.87321932174E+02  0.18099908703E+03 -0.62565288625E+01  0.22115614883E+03  0.92114649602E+02 0.  0.
        -11    1    3    3    0    0 -0.64031929651E+00 -0.32128516410E+02 -0.16005351296E+02  0.35900178908E+02  0.00000000000E+00 0.  1.
         11    1    3    3    0    0  0.81080654286E+02 -0.17341355186E+02 -0.20858888450E+03  0.22446406803E+03  0.00000000000E+00 0. -1.
        -13    1    4    4    0    0 -0.50166748098E+02  0.14873599965E+03 -0.39387043943E+02  0.16183460519E+03  0.00000000000E+00 0.  1.
         13    1    4    4    0    0 -0.37155184076E+02  0.32263087374E+02  0.33130515081E+02  0.59321543643E+02  0.00000000000E+00 0. -1.
         21    1    1    2  503  502  0.55340046405E+01 -0.56840576760E+02  0.94545463493E+02  0.11045506345E+03  0.00000000000E+00 0.  1.
         -1    1    1    2    0  503  0.13475925435E+01 -0.74688638670E+02  0.60568431985E+02  0.96170388921E+02  0.00000000000E+00 0.  1.
<scales pt_clust_5="13000.00000" pt_clust_6="13000.00000" pt_clust_7="13000.00000" pt_clust_8="13000.00000" pt_clust_9="57.10934" pt_clust_10="13000.00000"></scales>
<clustering>
<clus scale="   57.109">  1  9  2 -1</clus>
<clus scale="   91.810">  5  6 -1 -1</clus>
<clus scale="   92.115">  7  8 -1 -1</clus>
<clus scale="   96.619">  7 10 -1 -1</clus>
<clus scale="  133.955">  2  5  1 -1</clus>
<clus scale="   57.109">  1  5  2 -1</clus>
</clustering>
</event>
<event>
10    2  0.4951045E-006  0.2940604E+03  0.7546771E-02  0.1109697E+00
          1   -1    0    0  503    0 -0.00000000000E+00  0.00000000000E+00  0.91889603792E+03  0.91889603792E+03  0.00000000000E+00 0. -1.
         21   -1    0    0  501  502  0.00000000000E+00 -0.00000000000E+00 -0.35144880525E+03  0.35144880525E+03  0.00000000000E+00 0. -1.
         23    2    1    2    0    0 -0.14406451740E+03  0.20560669967E+02  0.45731829815E+03  0.48352396541E+03  0.58975189585E+02 0.  0.
         23    2    1    2    0    0  0.81664799112E+02 -0.11009752259E+03  0.31101593115E+03  0.35443092143E+03  0.10049758573E+03 0.  0.
        -11    1    4    4    0    0  0.60841794910E+02 -0.93432645187E+01  0.16242999248E+03  0.17370239796E+03  0.00000000000E+00 0.  1.
         11    1    4    4    0    0  0.20823004202E+02 -0.10075425807E+03  0.14858593867E+03  0.18072852347E+03  0.00000000000E+00 0. -1.
        -11    1    3    3    0    0 -0.65207717005E+02  0.38942324061E+02  0.22991299961E+03  0.24213330698E+03  0.00000000000E+00 0.  1.
         11    1    3    3    0    0 -0.78856800390E+02 -0.18381654094E+02  0.22740529854E+03  0.24139065843E+03  0.00000000000E+00 0. -1.
         21    1    1    2  503  502 -0.62531650610E+02  0.46111271523E+02 -0.27154124911E+03  0.28243779255E+03  0.00000000000E+00 0. -1.
          1    1    1    2  501    0  0.12493136889E+03  0.43425581101E+02  0.70654252486E+02  0.14995216378E+03  0.00000000000E+00 0. -1.
<scales pt_clust_5="13000.00000" pt_clust_6="13000.00000" pt_clust_7="13000.00000" pt_clust_8="13000.00000" pt_clust_9="77.69464" pt_clust_10="13000.00000"></scales>
<clustering>
<clus scale="   58.975">  7  8 -1 -1</clus>
<clus scale="   77.695">  2  9  1 -1</clus>
<clus scale="  100.498">  5  6 -1 -1</clus>
<clus scale="  114.096">  5 10 -1 -1</clus>
<clus scale="  168.364">  1  7  2 -1</clus>
<clus scale="   77.695">  2  5  1 -1</clus>
</clustering>
</event>
<event>
10    2  0.4951045E-006  0.3225510E+03  0.7546771E-02  0.1117160E+00
          2   -1    0    0  502    0 -0.00000000000E+00  0.00000000000E+00  0.61494846339E+03  0.61494846339E+03  0.00000000000E+00 0. -1.
         21   -1    0    0  503  502  0.00000000000E+00 -0.00000000000E+00 -0.15749495130E+03  0.15749495130E+03  0.00000000000E+00 0. -1.
         23    2    1    2    0    0  0.72768382575E+01  0.54971294289E+02  0.38835067051E+03  0.40250995077E+03  0.90128916607E+02 0.  0.
         23    2    1    2    0    0 -0.11860279222E+03  0.29536602666E+02  0.41005877149E+02  0.16085495242E+03  0.96196676324E+02 0.  0.
        -11    1    4    4    0    0 -0.27928652001E+02  0.48302569009E+02  0.39294016669E+02  0.68243443065E+02  0.00000000000E+00 0.  1.
         11    1    4    4    0    0 -0.90674140222E+02 -0.18765966344E+02  0.17118604806E+01  0.92611509350E+02  0.00000000000E+00 0. -1.
        -13    1    3    3    0    0  0.39724053808E+01  0.74836165860E+02  0.36010631195E+03  0.36782167912E+03  0.00000000000E+00 0. -1.
         13    1    3    3    0    0  0.33044328767E+01 -0.19864871571E+02  0.28244358558E+02  0.34688271643E+02  0.00000000000E+00 0.  1.
         21    1    1    2  503  501 -0.35346320869E+02 -0.33708533092E+01 -0.10592044004E+02  0.37052887164E+02  0.00000000000E+00 0. -1.
          2    1    1    2  501    0  0.14667227483E+03 -0.81137043645E+02  0.38689008431E+02  0.17202562434E+03  0.00000000000E+00 0. -1.
<scales pt_clust_5="13000.00000" pt_clust_6="13000.00000" pt_clust_7="13000.00000" pt_clust_8="13000.00000" pt_clust_9="35.50669" pt_clust_10="13000.00000"></scales>
<clustering>
<clus scale="   35.507">  2  9  1 -1</clus>
<clus scale="   90.129">  7  8 -1 -1</clus>
<clus scale="   96.197">  5  6 -1 -1</clus>
<clus scale="  105.616">  1  7  2 -1</clus>
<clus scale="  144.068">  5 10 -1 -1</clus>
<clus scale="   35.507">  2  5  1 -1</clus>
</clustering>
</event>
<event>
10    2  0.4951045E-006  0.1731918E+03  0.7546771E-02  0.1198773E+00
         -1   -1    0    0    0  501 -0.00000000000E+00  0.00000000000E+00  0.10937218429E+03  0.10937218429E+03  0.00000000000E+00 0.  1.
         21   -1    0    0  501  502  0.00000000000E+00 -0.00000000000E+00 -0.38364685383E+03  0.38364685383E+03  0.00000000000E+00 0. -1.
         23    2    1    2    0    0  0.39585626363E+02 -0.10794470185E+02 -0.19803169831E+03  0.21981040612E+03  0.86119212151E+02 0.  0.
         23    2    1    2    0    0 -0.94014798634E+02 -0.65562200748E+01  0.34546908628E+02  0.13570555841E+03  0.91327669977E+02 0.  0.
        -11    1    3    3    0    0  0.41610638129E+02  0.31652533840E+02 -0.96686271481E+02  0.10991616440E+03  0.00000000000E+00 0. -1.
         11    1    3    3    0    0 -0.20250117666E+01 -0.42447004025E+02 -0.10134542683E+03  0.10989424171E+03  0.00000000000E+00 0.  1.
        -13    1    4    4    0    0 -0.64387420962E+02 -0.43348118564E+02  0.41404646921E+02  0.87972405604E+02  0.00000000000E+00 0.  1.
         13    1    4    4    0    0 -0.29627377671E+02  0.36791898489E+02 -0.68577382925E+01  0.47733152804E+02  0.00000000000E+00 0. -1.
         21    1    1    2  503  502  0.18277206692E+02  0.99462364168E+01 -0.95191727722E+02  0.97439462899E+02  0.00000000000E+00 0. -1.
         -1    1    1    2    0  503  0.36151965579E+02  0.74044538432E+01 -0.15598152141E+02  0.40063610698E+02  0.00000000000E+00 0.  1.
<scales pt_clust_5="13000.00000" pt_clust_6="13000.00000" pt_clust_7="13000.00000" pt_clust_8="13000.00000" pt_clust_9="20.80827" pt_clust_10="13000.00000"></scales>
<clustering>
<clus scale="   20.808">  2  9  1 -1</clus>
<clus scale="   86.119">  5  6 -1 -1</clus>
<clus scale="   91.328">  7  8 -1 -1</clus>
<clus scale="   38.835">  7 10 -1 -1</clus>
<clus scale="  101.119">  1  5  2 -1</clus>
<clus scale="   20.808">  2  5  1 -1</clus>
</clustering>
</event>
<event>
10    2  0.4951045E-006  0.1527220E+03  0.7546771E-02  0.1223169E+00
         21   -1    0    0  503  502  0.00000000000E+00  0.00000000000E+00  0.41196819215E+02  0.41196819215E+02  0.00000000000E+00 0.  1.
          2   -1    0    0  502    0 -0.00000000000E+00 -0.00000000000E+00 -0.67499206792E+03  0.67499206792E+03  0.00000000000E+00 0. -1.
         23    2    1    2    0    0  0.88842287171E+01  0.22959063224E+02 -0.34499016604E+03  0.35546508527E+03  0.82043671762E+02 0.  0.
         23    2    1    2    0    0 -0.21313532098E+02 -0.24696371569E+01 -0.16433059933E+03  0.18919901286E+03  0.91276255578E+02 0.  0.
        -11    1    3    3    0    0 -0.25871244935E+02 -0.18206201586E+02 -0.11772629891E+03  0.12190270114E+03  0.00000000000E+00 0.  1.
         11    1    3    3    0    0  0.34755473652E+02  0.41165264810E+02 -0.22726386713E+03  0.23356238412E+03  0.00000000000E+00 0. -1.
        -13    1    4    4    0    0 -0.33127954233E+02  0.26142690007E+02 -0.31107737703E+02  0.52427024877E+02  0.00000000000E+00 0.  1.
         13    1    4    4    0    0  0.11814422134E+02 -0.28612327164E+02 -0.13322286163E+03  0.13677198798E+03  0.00000000000E+00 0. -1.
         21    1    1    2  503  501 -0.18882183542E+02  0.40336656674E+02 -0.25850308185E+02  0.51495836338E+02  0.00000000000E+00 0.  1.
          2    1    1    2  501    0  0.31311486923E+02 -0.60826082741E+02 -0.98624175143E+02  0.12002895266E+03  0.00000000000E+00 0. -1.
<scales pt_clust_5="13000.00000" pt_clust_6="13000.00000" pt_clust_7="13000.00000" pt_clust_8="13000.00000" pt_clust_9="44.53743" pt_clust_10="13000.00000"></scales>
<clustering>
<clus scale="   44.537">  1  9  2 -1</clus>
<clus scale="   82.044">  5  6 -1 -1</clus>
<clus scale="   87.663">  2  5  1 -1</clus>
<clus scale="   91.276">  7  8 -1 -1</clus>
<clus scale="   45.373">  7 10 -1 -1</clus>
<clus scale="   44.537">  1  5  2 -1</clus>
</clustering>
</event>
<event>
10    2  0.4951045E-006  0.2896607E+03  0.7546771E-02  0.1129489E+00
          1   -1    0    0  503    0 -0.00000000000E+00  0.00000000000E+00  0.47609650935E+03  0.47609650935E+03  0.00000000000E+00 0. -1.
         21   -1    0    0  501  502  0.00000000000E+00 -0.00000000000E+00 -0.31826864094E+03  0.31826864094E+03  0.00000000000E+00 0. -1.
         23    2    1    2    0    0 -0.50492480194E+02 -0.21805778349E+02  0.21542174019E+03  0.23937294561E+03  0.88701174840E+02 0.  0.
         23    2    1    2    0    0 -0.32551454251E+02 -0.82652670838E+02  0.85914693822E+02  0.15354852964E+03  0.91130429443E+02 0.  0.
        -13    1    4    4    0    0 -0.57107637933E+02 -0.54634597206E+02  0.26383628786E+02  0.83320570030E+02  0.00000000000E+00 0.  1.
         13    1    4    4    0    0  0.24556183683E+02 -0.28018073631E+02  0.59531065035E+02  0.70227959612E+02  0.00000000000E+00 0. -1.
        -13    1    3    3    0    0  0.35502728837E+01 -0.45154282244E+02  0.86300933882E+02  0.97464685048E+02  0.00000000000E+00 0. -1.
         13    1    3    3    0    0 -0.54042753078E+02  0.23348503895E+02  0.12912080631E+03  0.14190826056E+03  0.00000000000E+00 0.  1.
         21    1    1    2  503  502 -0.49013385810E+02 -0.57063764996E+01 -0.21100460371E+03  0.21669752539E+03  0.00000000000E+00 0. -1.
          1    1    1    2  501    0  0.13205732025E+03  0.11016482569E+03  0.67496038114E+02  0.18474614966E+03  0.00000000000E+00 0. -1.
<scales pt_clust_5="13000.00000" pt_clust_6="13000.00000" pt_clust_7="13000.00000" pt_clust_8="13000.00000" pt_clust_9="49.34445" pt_clust_10="13000.00000"></scales>
<clustering>
<clus scale="   49.344">  2  9  1 -1</clus>
<clus scale="   88.701">  7  8 -1 -1</clus>
<clus scale="   91.130">  5  6 -1 -1</clus>
<clus scale="  107.336">  1  7  2 -1</clus>
<clus scale="  126.637">  5 10 -1 -1</clus>
<clus scale="   49.344">  2  5  1 -1</clus>
</clustering>
</event>
<event>
10    2  0.4951045E-006  0.2746571E+03  0.7546771E-02  0.1132602E+00
          2   -1    0    0  503    0 -0.00000000000E+00  0.00000000000E+00  0.51092385326E+03  0.51092385326E+03  0.00000000000E+00 0. -1.
         21   -1    0    0  501  502  0.00000000000E+00 -0.00000000000E+00 -0.31712959099E+03  0.31712959099E+03  0.00000000000E+00 0. -1.
         23    2    1    2    0    0 -0.52477951195E+02 -0.40225482637E+02  0.25001094403E+03  0.27406505124E+03  0.90742246828E+02 0.  0.
         23    2    1    2    0    0  0.21141788007E+02  0.35865273133E+02  0.19301431781E+03  0.21809536762E+03  0.92616248455E+02 0.  0.
        -13    1    4    4    0    0  0.60383335985E+00 -0.31015847115E+02  0.70245277237E+02  0.76790275173E+02  0.00000000000E+00 0. -1.
         13    1    4    4    0    0  0.20537954647E+02  0.66881120247E+02  0.12276904058E+03  0.14130509245E+03  0.00000000000E+00 0.  1.
        -13    1    3    3    0    0 -0.40757665527E+01 -0.51121327163E+02  0.18678384252E+03  0.19369616875E+03  0.00000000000E+00 0.  1.
         13    1    3    3    0    0 -0.48402184643E+02  0.10895844525E+02  0.63227101517E+02  0.80368882488E+02  0.00000000000E+00 0. -1.
         21    1    1    2  503  502 -0.75764441759E+02  0.52167433646E+00 -0.20747484327E+03  0.22087628521E+03  0.00000000000E+00 0. -1.
          2    1    1    2  501    0  0.10710060495E+03  0.38385351681E+01 -0.41756156311E+02  0.11501674018E+03  0.00000000000E+00 0. -1.
<scales pt_clust_5="13000.00000" pt_clust_6="13000.00000" pt_clust_7="13000.00000" pt_clust_8="13000.00000" pt_clust_9="75.76624" pt_clust_10="13000.00000"></scales>
<clustering>
<clus scale="   75.766">  2  9  1 -1</clus>
<clus scale="   90.742">  7  8 -1 -1</clus>
<clus scale="   92.616">  5  6 -1 -1</clus>
<clus scale="   49.597">  5 10 -1 -1</clus>
<clus scale="  116.656">  1  7  2 -1</clus>
<clus scale="   75.766">  2  5  1 -1</clus>
</clustering>
</event>
<event>
10    2  0.4951045E-006  0.2588463E+03  0.7546771E-02  0.1111951E+00
         21   -1    0    0  501  502  0.00000000000E+00  0.00000000000E+00  0.25924144991E+03  0.25924144991E+03  0.00000000000E+00 0. -1.
          2   -1    0    0  503    0 -0.00000000000E+00 -0.00000000000E+00 -0.54220150762E+03  0.54220150762E+03  0.00000000000E+00 0. -1.
         23    2    1    2    0    0 -0.11847021219E+03  0.13918288697E+03 -0.52163976282E+02  0.21275753897E+03  0.95590913620E+02 0.  0.
         23    2    1    2    0    0  0.10820109969E+03 -0.46908123843E+02 -0.13136410019E+03  0.19856267700E+03  0.90899723997E+02 0.  0.
        -11    1    3    3    0    0 -0.55806034315E+02  0.30670415972E+02 -0.59615464323E+02  0.87229533234E+02  0.00000000000E+00 0.  1.
         11    1    3    3    0    0 -0.62664177873E+02  0.10851247100E+03  0.74514880411E+01  0.12552800574E+03  0.00000000000E+00 0. -1.
        -13    1    4    4    0    0 -0.92727576673E+01 -0.28394183936E+02 -0.29402575550E+02  0.41913305347E+02  0.00000000000E+00 0.  1.
         13    1    4    4    0    0  0.11747385735E+03 -0.18513939908E+02 -0.10196152464E+03  0.15664937165E+03  0.00000000000E+00 0. -1.
         21    1    1    2  503  502 -0.86712297558E+02 -0.23628238845E+02  0.11440960363E+03  0.14548839686E+03  0.00000000000E+00 0. -1.
          2    1    1    2  501    0  0.96981410061E+02 -0.68646524279E+02 -0.21384158486E+03  0.24463434470E+03  0.00000000000E+00 0. -1.
<scales pt_clust_5="13000.00000" pt_clust_6="13000.00000" pt_clust_7="13000.00000" pt_clust_8="13000.00000" pt_clust_9="89.87389" pt_clust_10="13000.00000"></scales>
<clustering>
<clus scale="   89.874">  1  9  2 -1</clus>
<clus scale="   90.900">  7  8 -1 -1</clus>
<clus scale="   95.591">  5  6 -1 -1</clus>
<clus scale="  112.320">  7 10 -1 -1</clus>
<clus scale="  233.099">  2  5  1 -1</clus>
<clus scale="   89.874">  1  5  2 -1</clus>
</clustering>
</event>
<event>
10    2  0.4951045E-006  0.2559470E+03  0.7546771E-02  0.1120667E+00
         21   -1    0    0  503  502  0.00000000000E+00  0.00000000000E+00  0.20909599649E+03  0.20909599649E+03  0.00000000000E+00 0.  1.
         -1   -1    0    0    0  501 -0.00000000000E+00 -0.00000000000E+00 -0.89752620720E+03  0.89752620720E+03  0.00000000000E+00 0.  1.
         23    2    1    2    0    0  0.17668441210E+02  0.11375849815E+03 -0.15506973432E+03  0.21388873600E+03  0.91916261727E+02 0.  0.
         23    2    1    2    0    0 -0.12277150421E+02 -0.80419279125E+02 -0.42350361714E+03  0.44088531688E+03  0.91687294793E+02 0.  0.
        -11    1    4    4    0    0  0.27529374121E+02 -0.77973628032E+02 -0.28441819850E+03  0.29619497758E+03  0.00000000000E+00 0.  1.
         11    1    4    4    0    0 -0.39806524542E+02 -0.24456510927E+01 -0.13908541865E+03  0.14469033929E+03  0.00000000000E+00 0. -1.
        -11    1    3    3    0    0 -0.37264115775E+02  0.43692114129E+02 -0.72248079777E+02  0.92289762124E+02  0.00000000000E+00 0. -1.
         11    1    3    3    0    0  0.54932556984E+02  0.70066384023E+02 -0.82821654543E+02  0.12159897388E+03  0.00000000000E+00 0.  1.
         21    1    1    2  503  501  0.75824887346E+02  0.10343214717E+03  0.11779054057E+03  0.17413280581E+03  0.00000000000E+00 0.  1.
         -1    1    1    2    0  502 -0.81216178134E+02 -0.13677136620E+03 -0.22764739982E+03  0.27771534500E+03  0.00000000000E+00 0.  1.
<scales pt_clust_5="13000.00000" pt_clust_6="13000.00000" pt_clust_7="13000.00000" pt_clust_8="13000.00000" pt_clust_9="128.24829" pt_clust_10="13000.00000"></scales>
<clustering>
<clus scale="   91.687">  5  6 -1 -1</clus>
<clus scale="   91.916">  7  8 -1 -1</clus>
<clus scale="  128.248">  1  9  2 -1</clus>
<clus scale="  108.564">  5 10 -1 -1</clus>
<clus scale="  193.600">  2  7  1 -1</clus>
<clus scale="  128.248">  1  5  2 -1</clus>
</clustering>
</event>
<event>
10    2  0.4951045E-006  0.9596298E+03  0.7546771E-02  0.1006399E+00
         21   -1    0    0  501  502  0.00000000000E+00  0.00000000000E+00  0.31772974350E+03  0.31772974350E+03  0.00000000000E+00 0. -1.
          1   -1    0    0  503    0 -0.00000000000E+00 -0.00000000000E+00 -0.10431331895E+04  0.10431331895E+04  0.00000000000E+00 0. -1.
         23    2    1    2    0    0  0.47700018766E+01 -0.17194361505E+02 -0.19637391494E+02  0.91509660881E+02  0.87578489964E+02 0.  0.
         23    2    1    2    0    0 -0.42254040131E+03 -0.47592491555E+02 -0.63776935722E+03  0.77210790528E+03  0.92711533256E+02 0.  0.
        -11    1    4    4    0    0 -0.36665319775E+03 -0.60391374214E+02 -0.50064433178E+03  0.62347929592E+03  0.00000000000E+00 0. -1.
         11    1    4    4    0    0 -0.55887203566E+02  0.12798882659E+02 -0.13712502543E+03  0.14862860936E+03  0.00000000000E+00 0.  1.
        -13    1    3    3    0    0 -0.23230785757E+02  0.27677648263E+02 -0.11965602407E+02  0.38064383105E+02  0.00000000000E+00 0.  1.
         13    1    3    3    0    0  0.28000787633E+02 -0.44872009768E+02 -0.76717890874E+01  0.53445277775E+02  0.00000000000E+00 0. -1.
         21    1    1    2  503  502 -0.11698121617E+02  0.20407471823E+02  0.45150292347E+02  0.50910311869E+02  0.00000000000E+00 0. -1.
          1    1    1    2  501    0  0.42946852105E+03  0.44379381237E+02 -0.11314698966E+03  0.44633505500E+03  0.00000000000E+00 0. -1.
<scales pt_clust_5="13000.00000" pt_clust_6="13000.00000" pt_clust_7="13000.00000" pt_clust_8="13000.00000" pt_clust_9="23.52256" pt_clust_10="13000.00000"></scales>
<clustering>
<clus scale="   23.523">  1  9  2 -1</clus>
<clus scale="   87.578">  7  8 -1 -1</clus>
<clus scale="   88.825">  2  7  1 -1</clus>
<clus scale="   92.712">  5  6 -1 -1</clus>
<clus scale="  426.437">  5 10 -1 -1</clus>
<clus scale="   23.523">  1  5  2 -1</clus>
</clustering>
</event>
<event>
10    2  0.4951045E-006  0.1308885E+03  0.7546771E-02  0.1229364E+00
          1   -1    0    0  503    0 -0.00000000000E+00  0.00000000000E+00  0.12524463043E+03  0.12524463043E+03  0.00000000000E+00 0. -1.
         21   -1    0    0  501  502  0.00000000000E+00 -0.00000000000E+00 -0.28191101202E+03  0.28191101202E+03  0.00000000000E+00 0. -1.
         23    2    1    2    0    0  0.55847320600E+02  0.19237151236E+02 -0.10397571138E+02  0.11815260872E+03  0.10179851794E+03 0.  0.
         23    2    1    2    0    0 -0.40306612519E+02 -0.35708513282E+02  0.14069794863E+02  0.10712510744E+03  0.91532008516E+02 0.  0.
        -11    1    3    3    0    0 -0.93656627447E+01 -0.30222328119E+02 -0.17217906791E+02  0.36021675001E+02  0.00000000000E+00 0.  1.
         11    1    3    3    0    0  0.65212983344E+02  0.49459479355E+02  0.68203356527E+01  0.82130933717E+02  0.00000000000E+00 0. -1.
        -11    1    4    4    0    0 -0.33131116865E+01 -0.59380438977E+02  0.20136075809E+02  0.62789129562E+02  0.00000000000E+00 0. -1.
         11    1    4    4    0    0 -0.36993500832E+02  0.23671925695E+02 -0.60662809458E+01  0.44335977878E+02  0.00000000000E+00 0.  1.
         21    1    1    2  503  502  0.12016582008E+02  0.18644510062E+02 -0.15111884011E+03  0.15273807592E+03  0.00000000000E+00 0. -1.
          1    1    1    2  501    0 -0.27557290089E+02 -0.21731480163E+01 -0.92197652036E+01  0.29139850373E+02  0.00000000000E+00 0. -1.
<scales pt_clust_5="13000.00000" pt_clust_6="13000.00000" pt_clust_7="13000.00000" pt_clust_8="13000.00000" pt_clust_9="22.18143" pt_clust_10="13000.00000"></scales>
<clustering>
<clus scale="   22.181">  2  9  1 -1</clus>
<clus scale="   91.532">  7  8 -1 -1</clus>
<clus scale="   25.791">  7 10 -1 -1</clus>
<clus scale="  101.799">  5  6 -1 -1</clus>
<clus scale="  122.436">  1  5  2 -1</clus>
<clus scale="   22.181">  2  5  1 -1</clus>
</clustering>
</event>
<event>
10    2  0.4951045E-006  0.3208302E+03  0.7546771E-02  0.1083493E+00
          2   -1    0    0  503    0 -0.00000000000E+00  0.00000000000E+00  0.30707257910E+04  0.30707257910E+04  0.00000000000E+00 0. -1.
         21   -1    0    0  501  502  0.00000000000E+00 -0.00000000000E+00 -0.53803423911E+02  0.53803423911E+02  0.00000000000E+00 0.  1.
         23    2    1    2    0    0 -0.67277229056E+00 -0.20359565594E+03  0.10070447453E+04  0.10314258205E+04  0.90821035474E+02 0.  0.
         23    2    1    2    0    0  0.22206034838E+02  0.56033361031E+02  0.39050985018E+03  0.40517437423E+03  0.89640866305E+02 0.  0.
        -11    1    4    4    0    0 -0.32923563774E+02  0.91560509904E+01  0.95887189930E+02  0.10179463401E+03  0.00000000000E+00 0.  1.
         11    1    4    4    0    0  0.55129598612E+02  0.46877310040E+02  0.29462266025E+03  0.30337974022E+03  0.00000000000E+00 0. -1.
        -13    1    3    3    0    0 -0.41256306053E+02 -0.63072337414E+02  0.29156287569E+03  0.30114633157E+03  0.00000000000E+00 0. -1.
         13    1    3    3    0    0  0.40583533762E+02 -0.14052331853E+03  0.71548186962E+03  0.73027948897E+03  0.00000000000E+00 0.  1.
         21    1    1    2  503  502  0.37040015237E+02 -0.85755156586E+02  0.62054202553E+02  0.11214559137E+03  0.00000000000E+00 0.  1.
          2    1    1    2  501    0 -0.58573277784E+02  0.23331745150E+03  0.15573135690E+04  0.15757834287E+04  0.00000000000E+00 0. -1.
<scales pt_clust_5="13000.00000" pt_clust_6="13000.00000" pt_clust_7="13000.00000" pt_clust_8="13000.00000" pt_clust_9="93.41258" pt_clust_10="13000.00000"></scales>
<clustering>
<clus scale="   89.641">  5  6 -1 -1</clus>
<clus scale="   90.821">  7  8 -1 -1</clus>
<clus scale="   93.413">  2  9  1 -1</clus>
<clus scale="  211.007">  5 10 -1 -1</clus>
<clus scale="  257.000">  1  7  2 -1</clus>
<clus scale="   93.413">  2  5  1 -1</clus>
</clustering>
</event>
<event>
10    2  0.4951045E-006  0.2303768E+03  0.7546771E-02  0.1129871E+00
         21   -1    0    0  501  502  0.00000000000E+00  0.00000000000E+00  0.20685250926E+03  0.20685250926E+03  0.00000000000E+00 0. -1.
          2   -1    0    0  503    0 -0.00000000000E+00 -0.00000000000E+00 -0.40158996468E+03  0.40158996468E+03  0.00000000000E+00 0. -1.
         23    2    1    2    0    0 -0.18199697684E+03  0.92480421101E+02 -0.19840611423E+03  0.29918955561E+03  0.92053659125E+02 0.  0.
         23    2    1    2    0    0  0.10039702491E+03 -0.40418930725E+02 -0.50910310068E+02  0.15316057752E+03  0.95671575010E+02 0.  0.
        -11    1    4    4    0    0  0.31605235328E+02 -0.62407526932E+02 -0.38603926512E+02  0.79899020395E+02  0.00000000000E+00 0. -1.
         11    1    4    4    0    0  0.68791789579E+02  0.21988596207E+02 -0.12306383556E+02  0.73261557128E+02  0.00000000000E+00 0.  1.
        -11    1    3    3    0    0 -0.13829537588E+03  0.10346185961E+03 -0.18284043315E+03  0.25151658271E+03  0.00000000000E+00 0. -1.
         11    1    3    3    0    0 -0.43701600956E+02 -0.10981438511E+02 -0.15565681086E+02  0.47672972904E+02  0.00000000000E+00 0.  1.
         21    1    1    2  503  502  0.43211888727E+02  0.55867769234E+01  0.72468938801E+02  0.84559011907E+02  0.00000000000E+00 0. -1.
          2    1    1    2  501    0  0.38388063206E+02 -0.57648267300E+02 -0.17889969918E+02  0.71533328897E+02  0.00000000000E+00 0. -1.
<scales pt_clust_5="13000.00000" pt_clust_6="13000.00000" pt_clust_7="13000.00000" pt_clust_8="13000.00000" pt_clust_9="43.57154" pt_clust_10="13000.00000"></scales>
<clustering>
<clus scale="   43.572">  1  9  2 -1</clus>
<clus scale="   92.054">  7  8 -1 -1</clus>
<clus scale="   95.672">  5  6 -1 -1</clus>
<clus scale="   73.747">  5 10 -1 -1</clus>
<clus scale="  211.357">  2  7  1 -1</clus>
<clus scale="   43.572">  1  5  2 -1</clus>
</clustering>
</event>
<event>
10    2  0.4951045E-006  0.2275351E+03  0.7546771E-02  0.1165765E+00
         21   -1    0    0  501  502  0.00000000000E+00  0.00000000000E+00  0.13613876881E+03  0.13613876881E+03  0.00000000000E+00 0. -1.
          1   -1    0    0  503    0 -0.00000000000E+00 -0.00000000000E+00 -0.44736525316E+03  0.44736525316E+03  0.00000000000E+00 0. -1.
         23    2    1    2    0    0  0.70479962796E+01  0.17933363033E+02 -0.10643788716E+02  0.93994554261E+02  0.91380557184E+02 0.  0.
         23    2    1    2    0    0  0.66563414972E+02  0.27417853696E+02 -0.81602828325E+02  0.14391511449E+03  0.94181270296E+02 0.  0.
        -13    1    3    3    0    0 -0.38258518892E+02  0.63051210789E+01  0.13875750639E+02  0.41182584613E+02  0.00000000000E+00 0. -1.
         13    1    3    3    0    0  0.45306515172E+02  0.11628241954E+02 -0.24519539354E+02  0.52811969648E+02  0.00000000000E+00 0.  1.
        -13    1    4    4    0    0 -0.21601121609E+01 -0.27911577227E+02 -0.82743227098E+01  0.29192236026E+02  0.00000000000E+00 0.  1.
         13    1    4    4    0    0  0.68723527133E+02  0.55329430924E+02 -0.73328505615E+02  0.11472287847E+03  0.00000000000E+00 0. -1.
         21    1    1    2  503  502 -0.14486249391E+03  0.19091609795E+02 -0.56143753969E+02  0.15653035749E+03  0.00000000000E+00 0. -1.
          1    1    1    2  501    0  0.71251082658E+02 -0.64442826524E+02 -0.16283611334E+03  0.18906399572E+03  0.00000000000E+00 0. -1.
<scales pt_clust_5="13000.00000" pt_clust_6="13000.00000" pt_clust_7="13000.00000" pt_clust_8="13000.00000" pt_clust_9="144.95240" pt_clust_10="13000.00000"></scales>
<clustering>
<clus scale="   91.381">  5  6 -1 -1</clus>
<clus scale="   93.390">  2  5  1 -1</clus>
<clus scale="   94.181">  7  8 -1 -1</clus>
<clus scale="   93.387">  7 10 -1 -1</clus>
<clus scale="  144.952">  1  9  2 -1</clus>
<clus scale="  144.952">  1  5  2 -1</clus>
</clustering>
</event>
<event>
10    2  0.4951045E-006  0.1550352E+03  0.7546771E-02  0.1205554E+00
         -1   -1    0    0    0  501 -0.00000000000E+00  0.00000000000E+00  0.33982047413E+03  0.33982047413E+03  0.00000000000E+00 0.  1.
         21   -1    0    0  503  502  0.00000000000E+00 -0.00000000000E+00 -0.73782830677E+02  0.73782830677E+02  0.00000000000E+00 0.  1.
         23    2    1    2    0    0  0.74876977931E+02  0.21743594200E+02  0.13561713456E+03  0.18059035542E+03  0.90230391619E+02 0.  0.
         23    2    1    2    0    0 -0.93945634557E+02 -0.22631530016E+02  0.12374592164E+03  0.18180390313E+03  0.91660447672E+02 0.  0.
        -11    1    3    3    0    0  0.73464289106E+02 -0.20740730930E+02  0.79826113505E+02  0.11045084015E+03  0.00000000000E+00 0.  1.
         11    1    3    3    0    0  0.14126888252E+01  0.42484325130E+02  0.55791021055E+02  0.70139515267E+02  0.00000000000E+00 0. -1.
        -13    1    4    4    0    0 -0.37668517990E+02  0.33916989966E+02  0.66477064860E+02  0.83597126795E+02  0.00000000000E+00 0. -1.
         13    1    4    4    0    0 -0.56277116567E+02 -0.56548519982E+02  0.57268856782E+02  0.98206776336E+02  0.00000000000E+00 0.  1.
         21    1    1    2  503  501  0.34008598968E+01  0.20344616823E+02 -0.81294713146E+01  0.22171097979E+02  0.00000000000E+00 0.  1.
         -1    1    1    2    0  502  0.15667796729E+02 -0.19456681007E+02  0.14804058567E+02  0.29037948279E+02  0.00000000000E+00 0.  1.
<scales pt_clust_5="13000.00000" pt_clust_6="13000.00000" pt_clust_7="13000.00000" pt_clust_8="13000.00000" pt_clust_9="20.62691" pt_clust_10="13000.00000"></scales>
<clustering>
<clus scale="   20.627">  2  9  1 -1</clus>
<clus scale="   90.230">  5  6 -1 -1</clus>
<clus scale="   91.660">  7  8 -1 -1</clus>
<clus scale="   23.391">  7 10 -1 -1</clus>
<clus scale="  121.730">  1  5  2 -1</clus>
<clus scale="   20.627">  2  5  1 -1</clus>
</clustering>
</event>
<event>
10    2  0.4951045E-006  0.1986881E+03  0.7546771E-02  0.1181499E+00
         21   -1    0    0  503  502  0.00000000000E+00  0.00000000000E+00  0.85588046696E+03  0.85588046696E+03  0.00000000000E+00 0. -1.
         -3   -1    0    0    0  501 -0.00000000000E+00 -0.00000000000E+00 -0.74714808560E+02  0.74714808560E+02  0.00000000000E+00 0.  1.
         23    2    1    2    0    0 -0.39250819080E+01 -0.33827249018E+02  0.37532800069E+01  0.97996234812E+02  0.91812231659E+02 0.  0.
         23    2    1    2    0    0 -0.88308925022E+01  0.78582373026E+01  0.87120489985E+02  0.12599531086E+03  0.90250218989E+02 0.  0.
        -11    1    4    4    0    0 -0.19180919089E+02 -0.27669491958E+02  0.81994289927E+02  0.88637306045E+02  0.00000000000E+00 0.  1.
         11    1    4    4    0    0  0.10350026587E+02  0.35527729260E+02  0.51262000585E+01  0.37358004815E+02  0.00000000000E+00 0. -1.
        -13    1    3    3    0    0  0.14471079545E+02 -0.48233510105E+02  0.33266370932E+02  0.60353418091E+02  0.00000000000E+00 0.  1.
         13    1    3    3    0    0 -0.18396161453E+02  0.14406261087E+02 -0.29513090925E+02  0.37642816721E+02  0.00000000000E+00 0. -1.
         21    1    1    2  503  501  0.77114198205E+02 -0.58448324738E+01  0.30296730544E+03  0.31268186675E+03  0.00000000000E+00 0. -1.
         -3    1    1    2    0  502 -0.64358223795E+02  0.31813844190E+02  0.38732458297E+03  0.39392186309E+03  0.00000000000E+00 0.  1.
<scales pt_clust_5="13000.00000" pt_clust_6="13000.00000" pt_clust_7="13000.00000" pt_clust_8="13000.00000" pt_clust_9="77.33538" pt_clust_10="13000.00000"></scales>
<clustering>
<clus scale="   77.335">  1  9  2 -1</clus>
<clus scale="   90.250">  5  6 -1 -1</clus>
<clus scale="   29.201">  5 10 -1 -1</clus>
<clus scale="   91.812">  7  8 -1 -1</clus>
<clus scale="   98.088">  2  7  1 -1</clus>
<clus scale="   77.335">  1  5  2 -1</clus>
</clustering>
</event>
<event>
10    2  0.4951045E-006  0.2511803E+03  0.7546771E-02  0.1136192E+00
         21   -1    0    0  501  502  0.00000000000E+00  0.00000000000E+00  0.13061809165E+03  0.13061809165E+03  0.00000000000E+00 0. -1.
          1   -1    0    0  503    0 -0.00000000000E+00 -0.00000000000E+00 -0.90352094494E+03  0.90352094494E+03  0.00000000000E+00 0. -1.
         23    2    1    2    0    0 -0.10124972124E+03  0.36556330137E+02 -0.52728511879E+03  0.54564671153E+03  0.90071449314E+02 0.  0.
         23    2    1    2    0    0  0.14658699687E+03 -0.11699700841E+02 -0.26206922816E+03  0.31391535568E+03  0.90763095660E+02 0.  0.
        -13    1    4    4    0    0  0.91272255726E+02  0.41616276080E+01 -0.23123406254E+03  0.24863052002E+03  0.00000000000E+00 0.  1.
         13    1    4    4    0    0  0.55314741145E+02 -0.15861328449E+02 -0.30835165624E+02  0.65284835660E+02  0.00000000000E+00 0. -1.
        -13    1    3    3    0    0 -0.80296743145E+01  0.28823339150E+02 -0.42845707772E+02  0.52259116179E+02  0.00000000000E+00 0.  1.
         13    1    3    3    0    0 -0.93220046925E+02  0.77329909872E+01 -0.48443941102E+03  0.49338759535E+03  0.00000000000E+00 0. -1.
         21    1    1    2  503  502  0.12230296165E+02  0.19245903414E+02  0.76873834117E+02  0.80184607715E+02  0.00000000000E+00 0. -1.
          1    1    1    2  501    0 -0.57567571797E+02 -0.44102532710E+02 -0.60422340452E+02  0.94392361660E+02  0.00000000000E+00 0. -1.
<scales pt_clust_5="13000.00000" pt_clust_6="13000.00000" pt_clust_7="13000.00000" pt_clust_8="13000.00000" pt_clust_9="22.80318" pt_clust_10="13000.00000"></scales>
<clustering>
<clus scale="   22.803">  1  9  2 -1</clus>
<clus scale="   90.071">  7  8 -1 -1</clus>
<clus scale="   90.763">  5  6 -1 -1</clus>
<clus scale="   65.587">  5 10 -1 -1</clus>
<clus scale="  139.744">  2  7  1 -1</clus>
<clus scale="   22.803">  1  5  2 -1</clus>
</clustering>
</event>
<event>
10    2  0.4951045E-006  0.3704336E+03  0.7546771E-02  0.1081476E+00
         21   -1    0    0  501  502  0.00000000000E+00  0.00000000000E+00  0.18245947527E+03  0.18245947527E+03  0.00000000000E+00 0.  1.
         -3   -1    0    0    0  501 -0.00000000000E+00 -0.00000000000E+00 -0.10153646047E+04  0.10153646047E+04  0.00000000000E+00 0.  1.
         23    2    1    2    0    0 -0.34843279016E+02 -0.17536453773E+03 -0.52659233829E+01  0.19561413763E+03  0.79185767069E+02 0.  0.
         23    2    1    2    0    0 -0.10433051418E+03  0.10987872336E+02 -0.63285921074E+03  0.64769661191E+03  0.89412140884E+02 0.  0.
        -11    1    4    4    0    0 -0.13596500496E+02 -0.32279406630E+02 -0.11682107390E+03  0.12195896124E+03  0.00000000000E+00 0. -1.
         11    1    4    4    0    0 -0.90734013683E+02  0.43267278966E+02 -0.51603813684E+03  0.52573765067E+03  0.00000000000E+00 0.  1.
        -13    1    3    3    0    0 -0.53118956637E+02 -0.81792799328E+02  0.13461407148E+02  0.98452501535E+02  0.00000000000E+00 0.  1.
         13    1    3    3    0    0  0.18275677621E+02 -0.93571738400E+02 -0.18727330531E+02  0.97161636094E+02  0.00000000000E+00 0. -1.
         21    1    1    2  503  502  0.26699662997E+02  0.25975624001E+02  0.43253037068E+02  0.57082661658E+02  0.00000000000E+00 0. -1.
         -3    1    1    2    0  503  0.11247413020E+03  0.13840104139E+03 -0.23803303237E+03  0.29743066877E+03  0.00000000000E+00 0.  1.
<scales pt_clust_5="13000.00000" pt_clust_6="13000.00000" pt_clust_7="13000.00000" pt_clust_8="13000.00000" pt_clust_9="37.25057" pt_clust_10="13000.00000"></scales>
<clustering>
<clus scale="   37.251">  1  9  2 -1</clus>
<clus scale="   79.186">  7  8 -1 -1</clus>
<clus scale="   89.412">  5  6 -1 -1</clus>
<clus scale="  176.246">  2  7  1 -1</clus>
<clus scale="  147.630">  5 10 -1 -1</clus>
<clus scale="   37.251">  1  5  2 -1</clus>
</clustering>
</event>
<event>
10    2  0.4951045E-006  0.1381964E+03  0.7546771E-02  0.1230493E+00
         21   -1    0    0  503  502  0.00000000000E+00  0.00000000000E+00  0.54691838981E+02  0.54691838981E+02  0.00000000000E+00 0.  1.
          1   -1    0    0  502    0 -0.00000000000E+00 -0.00000000000E+00 -0.41589647285E+03  0.41589647285E+03  0.00000000000E+00 0. -1.
         23    2    1    2    0    0  0.34083215761E+02  0.31479686022E+02 -0.24400178136E+03  0.26463184842E+03  0.91326390832E+02 0.  0.
         23    2    1    2    0    0 -0.45611880961E+02 -0.34704823251E+02 -0.76834980422E+02  0.13286107481E+03  0.91997731172E+02 0.  0.
        -11    1    4    4    0    0 -0.71861461642E+02 -0.31469375140E+02 -0.70930793696E+02  0.10576184915E+03  0.00000000000E+00 0.  1.
         11    1    4    4    0    0  0.26249580681E+02 -0.32354481112E+01 -0.59041867260E+01  0.27099225659E+02  0.00000000000E+00 0. -1.
        -13    1    3    3    0    0  0.33313636205E+02 -0.15346030901E+02 -0.18839127336E+03  0.19192855676E+03  0.00000000000E+00 0. -1.
         13    1    3    3    0    0  0.76957955601E+00  0.46825716923E+02 -0.55610507997E+02  0.72703291657E+02  0.00000000000E+00 0.  1.
         21    1    1    2  503  501  0.67580324122E+01 -0.19489524132E+02  0.57945784125E+01  0.21426378414E+02  0.00000000000E+00 0.  1.
          1    1    1    2  501    0  0.47706327878E+01  0.22714661361E+02 -0.46162450504E+02  0.51669010194E+02  0.00000000000E+00 0. -1.
<scales pt_clust_5="13000.00000" pt_clust_6="13000.00000" pt_clust_7="13000.00000" pt_clust_8="13000.00000" pt_clust_9="20.62796" pt_clust_10="13000.00000"></scales>
<clustering>
<clus scale="   20.628">  1  9  2 -1</clus>
<clus scale="   91.326">  7  8 -1 -1</clus>
<clus scale="   91.998">  5  6 -1 -1</clus>
<clus scale="   22.037">  5 10 -1 -1</clus>
<clus scale="  101.625">  2  7  1 -1</clus>
<clus scale="   20.628">  1  5  2 -1</clus>
</clustering>
</event>
<event>
10    2  0.4951045E-006  0.2285176E+03  0.7546771E-02  0.1146173E+00
          2   -1    0    0  503    0 -0.00000000000E+00  0.00000000000E+00  0.50719033696E+03  0.50719033696E+03  0.00000000000E+00 0. -1.
         21   -1    0    0  501  502  0.00000000000E+00 -0.00000000000E+00 -0.16157425511E+03  0.16157425511E+03  0.00000000000E+00 0. -1.
         23    2    1    2    0    0 -0.84655959515E+02 -0.84478000561E+02  0.30112710844E+03  0.33570259419E+03  0.87838102505E+02 0.  0.
         23    2    1    2    0    0  0.35791830064E+02  0.70469203927E+02  0.14989103592E+03  0.19349325849E+03  0.93409606746E+02 0.  0.
        -11    1    3    3    0    0  0.39056651413E+01 -0.26040659688E+02  0.14485482488E+02  0.30053275697E+02  0.00000000000E+00 0.  1.
         11    1    3    3    0    0 -0.88561624657E+02 -0.58437340873E+02  0.28664162595E+03  0.30564931850E+03  0.00000000000E+00 0. -1.
        -13    1    4    4    0    0 -0.18466413341E+02  0.45775286017E+02  0.25504924178E+02  0.55559755120E+02  0.00000000000E+00 0. -1.
         13    1    4    4    0    0  0.54258243405E+02  0.24693917909E+02  0.12438611174E+03  0.13793350337E+03  0.00000000000E+00 0.  1.
         21    1    1    2  503  502 -0.25086151418E+01  0.23890925849E+02 -0.75678743584E+02  0.79399884876E+02  0.00000000000E+00 0. -1.
          2    1    1    2  501    0  0.51372744593E+02 -0.98821292145E+01 -0.29723318917E+02  0.60168854504E+02  0.00000000000E+00 0. -1.
<scales pt_clust_5="13000.00000" pt_clust_6="13000.00000" pt_clust_7="13000.00000" pt_clust_8="13000.00000" pt_clust_9="24.02227" pt_clust_10="13000.00000"></scales>
<clustering>
<clus scale="   24.022">  2  9  1 -1</clus>
<clus scale="   87.838">  5  6 -1 -1</clus>
<clus scale="   93.410">  7  8 -1 -1</clus>
<clus scale="   50.115">  7 10 -1 -1</clus>
<clus scale="  145.946">  1  5  2 -1</clus>
<clus scale="   24.022">  2  5  1 -1</clus>
</clustering>
</event>
<event>
10    2  0.4951045E-006  0.1868684E+03  0.7546771E-02  0.1180827E+00
         21   -1    0    0  503  502  0.00000000000E+00  0.00000000000E+00  0.23558604163E+03  0.23558604163E+03  0.00000000000E+00 0. -1.
          2   -1    0    0  502    0 -0.00000000000E+00 -0.00000000000E+00 -0.14251579435E+03  0.14251579435E+03  0.00000000000E+00 0. -1.
         23    2    1    2    0    0 -0.84477002412E+02  0.13999879019E+02  0.58053827637E+01  0.12599952913E+03  0.92248676533E+02 0.  0.
         23    2    1    2    0    0 -0.30118050340E+01  0.21268770787E+02 -0.26660880526E+02  0.97276342948E+02  0.91051923464E+02 0.  0.
        -11    1    4    4    0    0 -0.38630002550E+02  0.14766917928E+02  0.13214006488E+02  0.43415998544E+02  0.00000000000E+00 0. -1.
         11    1    4    4    0    0  0.35618197516E+02  0.65018528590E+01 -0.39874887015E+02  0.53860344404E+02  0.00000000000E+00 0.  1.
        -13    1    3    3    0    0  0.53708523346E+00  0.36495817103E+02  0.10359953083E+02  0.37941557090E+02  0.00000000000E+00 0. -1.
         13    1    3    3    0    0 -0.85014087645E+02 -0.22495938084E+02 -0.45545703190E+01  0.88057972036E+02  0.00000000000E+00 0.  1.
         21    1    1    2  503  501  0.23004525847E+02 -0.78123971908E+01  0.64890223954E+02  0.69289125583E+02  0.00000000000E+00 0. -1.
          2    1    1    2  501    0  0.64484281599E+02 -0.27456252616E+02  0.49035521092E+02  0.85536838320E+02  0.00000000000E+00 0. -1.
<scales pt_clust_5="13000.00000" pt_clust_6="13000.00000" pt_clust_7="13000.00000" pt_clust_8="13000.00000" pt_clust_9="24.29489" pt_clust_10="13000.00000"></scales>
<clustering>
<clus scale="   24.295">  1  9  2 -1</clus>
<clus scale="   91.052">  5  6 -1 -1</clus>
<clus scale="   79.764">  5 10 -1 -1</clus>
<clus scale="   92.249">  7  8 -1 -1</clus>
<clus scale="  119.694">  2  7  1 -1</clus>
<clus scale="   24.295">  1  5  2 -1</clus>
</clustering>
</event>
<event>
10    2  0.4951045E-006  0.1980281E+03  0.7546771E-02  0.1162446E+00
         21   -1    0    0  503  502  0.00000000000E+00  0.00000000000E+00  0.98438442604E+02  0.98438442604E+02  0.00000000000E+00 0.  1.
          2   -1    0    0  502    0 -0.00000000000E+00 -0.00000000000E+00 -0.60332685455E+03  0.60332685455E+03  0.00000000000E+00 0. -1.
         23    2    1    2    0    0 -0.11774943825E+03 -0.73377060809E+02 -0.12132616377E+03  0.20455463801E+03  0.88732399126E+02 0.  0.
         23    2    1    2    0    0  0.64547364279E+02  0.66196351153E+01 -0.33063046498E+03  0.35044832816E+03  0.96370869752E+02 0.  0.
        -11    1    3    3    0    0 -0.99165745295E+02 -0.26266555134E+02 -0.42891466181E+02  0.11119107352E+03  0.00000000000E+00 0.  1.
         11    1    3    3    0    0 -0.18583692953E+02 -0.47110505675E+02 -0.78434697588E+02  0.93363564491E+02  0.00000000000E+00 0. -1.
        -11    1    4    4    0    0  0.60585609471E+02 -0.37290877897E+02 -0.22521782900E+03  0.23618699403E+03  0.00000000000E+00 0.  1.
         11    1    4    4    0    0  0.39617548074E+01  0.43910513013E+02 -0.10541263597E+03  0.11426133413E+03  0.00000000000E+00 0. -1.
         21    1    1    2  503  501  0.19547896931E+02  0.91872584045E+01  0.32106414489E+02  0.38695579112E+02  0.00000000000E+00 0. -1.
          2    1    1    2  501    0  0.33654177038E+02  0.57570167289E+02 -0.85038197695E+02  0.10806675188E+03  0.00000000000E+00 0. -1.
<scales pt_clust_5="13000.00000" pt_clust_6="13000.00000" pt_clust_7="13000.00000" pt_clust_8="13000.00000" pt_clust_9="21.59921" pt_clust_10="13000.00000"></scales>
<clustering>
<clus scale="   21.599">  1  9  2 -1</clus>
<clus scale="   88.732">  5  6 -1 -1</clus>
<clus scale="   96.371">  7  8 -1 -1</clus>
<clus scale="   69.972">  7 10 -1 -1</clus>
<clus scale="  152.960">  2  5  1 -1</clus>
<clus scale="   21.599">  1  5  2 -1</clus>
</clustering>
</event>
<event>
10    2  0.4951045E-006  0.2739133E+03  0.7546771E-02  0.1133843E+00
         21   -1    0    0  501  502  0.00000000000E+00  0.00000000000E+00  0.82940169505E+02  0.82940169505E+02  0.00000000000E+00 0. -1.
          2   -1    0    0  503    0 -0.00000000000E+00 -0.00000000000E+00 -0.57337361131E+03  0.57337361131E+03  0.00000000000E+00 0. -1.
         23    2    1    2    0    0 -0.20811978092E+02 -0.60229654291E+02 -0.17562462626E+03  0.20713472410E+03  0.89442914150E+02 0.  0.
         23    2    1    2    0    0  0.52079401384E+02  0.87237311887E+02 -0.25413577694E+02  0.13814626533E+03  0.90088445757E+02 0.  0.
        -11    1    4    4    0    0  0.19915698693E+02  0.99204115846E+02 -0.22859880479E+02  0.10373362902E+03  0.00000000000E+00 0.  1.
         11    1    4    4    0    0  0.32163702691E+02 -0.11966803959E+02 -0.25536972150E+01  0.34412636302E+02  0.00000000000E+00 0. -1.
        -13    1    3    3    0    0 -0.38905215607E+02  0.48103058881E+01 -0.89465440869E+02  0.97677120934E+02  0.00000000000E+00 0.  1.
         13    1    3    3    0    0  0.18093237515E+02 -0.65039960179E+02 -0.86159185388E+02  0.10945760316E+03  0.00000000000E+00 0. -1.
         21    1    1    2  503  502  0.66968698024E+01 -0.36940470798E+02 -0.28323810573E+02  0.47028551895E+02  0.00000000000E+00 0. -1.
          2    1    1    2  501    0 -0.37964293094E+02  0.99328132028E+01 -0.26107142728E+03  0.26400423949E+03  0.00000000000E+00 0. -1.
<scales pt_clust_5="13000.00000" pt_clust_6="13000.00000" pt_clust_7="13000.00000" pt_clust_8="13000.00000" pt_clust_9="37.54260" pt_clust_10="13000.00000"></scales>
<clustering>
<clus scale="   37.543">  1  9  2 -1</clus>
<clus scale="   89.443">  7  8 -1 -1</clus>
<clus scale="   90.088">  5  6 -1 -1</clus>
<clus scale="   38.933">  5 10 -1 -1</clus>
<clus scale="  114.098">  2  7  1 -1</clus>
<clus scale="   37.543">  1  5  2 -1</clus>
</clustering>
</event>
<event>
10    2  0.5288051E-006  0.3838096E+03  0.7546771E-02  0.1096448E+00
         21   -1    0    0  503  502  0.00000000000E+00  0.00000000000E+00  0.22876824025E+04  0.22876824025E+04  0.00000000000E+00 0. -1.
          1   -1    0    0  502    0 -0.00000000000E+00 -0.00000000000E+00 -0.12119974838E+03  0.12119974838E+03  0.00000000000E+00 0. -1.
         23    2    1    2    0    0  0.55633986401E+02  0.12772757437E+02  0.85283304121E+02  0.13649993416E+03  0.90003923739E+02 0.  0.
         23    2    1    2    0    0  0.41816024496E+02 -0.17122412770E+01  0.13090739548E+02  0.10119350655E+03  0.91198939852E+02 0.  0.
        -13    1    3    3    0    0  0.23372146967E+02 -0.24971989862E+02  0.79456556647E+02  0.86505502286E+02  0.00000000000E+00 0.  1.
         13    1    3    3    0    0  0.32261839435E+02  0.37744747299E+02  0.58267474741E+01  0.49994431875E+02  0.00000000000E+00 0. -1.
        -13    1    4    4    0    0  0.37424023419E+02 -0.41316962724E+02  0.22721045448E+02  0.60198794373E+02  0.00000000000E+00 0.  1.
         13    1    4    4    0    0  0.43920010766E+01  0.39604721447E+02 -0.96303059000E+01  0.40994712173E+02  0.00000000000E+00 0. -1.
         21    1    1    2  503  501 -0.37832349777E+02 -0.24782225974E+03  0.17614814412E+04  0.17792313022E+04  0.00000000000E+00 0. -1.
          1    1    1    2  501    0 -0.59617661121E+02  0.23676174358E+03  0.30662716929E+03  0.39195740800E+03  0.00000000000E+00 0. -1.
<scales pt_clust_5="13000.00000" pt_clust_6="13000.00000" pt_clust_7="13000.00000" pt_clust_8="13000.00000" pt_clust_9="248.79040" pt_clust_10="13000.00000"></scales>
<clustering>
<clus scale="   90.004">  5  6 -1 -1</clus>
<clus scale="   91.199">  7  8 -1 -1</clus>
<clus scale="  106.579">  2  5  1 -1</clus>
<clus scale="  244.945">  7 10 -1 -1</clus>
<clus scale="  248.790">  1  9  2 -1</clus>
<clus scale="  248.790">  1  5  2 -1</clus>
</clustering>
</event>
<event>
10    2  0.4951045E-006  0.1292630E+03  0.7546771E-02  0.1246198E+00
          4   -1    0    0  502    0 -0.00000000000E+00  0.00000000000E+00  0.91992570314E+03  0.91992570314E+03  0.00000000000E+00 0. -1.
         21   -1    0    0  503  502  0.00000000000E+00 -0.00000000000E+00 -0.65364604128E+02  0.65364604128E+02  0.00000000000E+00 0. -1.
         23    2    1    2    0    0 -0.72176907816E+01 -0.47438672350E+01  0.25720502419E+03  0.27197968140E+03  0.87999564129E+02 0.  0.
         23    2    1    2    0    0  0.16280831157E+02 -0.43072466656E+02  0.51703874096E+03  0.52540208764E+03  0.81228019727E+02 0.  0.
        -11    1    4    4    0    0 -0.21114477653E+02  0.13520528341E+02  0.11738486431E+03  0.12003262983E+03  0.00000000000E+00 0.  1.
         11    1    4    4    0    0  0.37395308810E+02 -0.56592994998E+02  0.39965387665E+03  0.40536945781E+03  0.00000000000E+00 0. -1.
        -13    1    3    3    0    0  0.34381163814E+02  0.20241016980E+02  0.11579758620E+03  0.12247793338E+03  0.00000000000E+00 0.  1.
         13    1    3    3    0    0 -0.41598854595E+02 -0.24984884215E+02  0.14140743799E+03  0.14950174802E+03  0.00000000000E+00 0. -1.
         21    1    1    2  503  501 -0.23386647198E+02  0.14845972851E+02 -0.47579558081E+02  0.55055903628E+02  0.00000000000E+00 0. -1.
          4    1    1    2  501    0  0.14323506823E+02  0.32970361040E+02  0.12789689194E+03  0.13285263461E+03  0.00000000000E+00 0. -1.
<scales pt_clust_5="13000.00000" pt_clust_6="13000.00000" pt_clust_7="13000.00000" pt_clust_8="13000.00000" pt_clust_9="27.70087" pt_clust_10="13000.00000"></scales>
<clustering>
<clus scale="   27.701">  2  9  1 -1</clus>
<clus scale="   81.228">  5  6 -1 -1</clus>
<clus scale="   37.022">  5 10 -1 -1</clus>
<clus scale="   88.000">  7  8 -1 -1</clus>
<clus scale="   90.190">  1  7  2 -1</clus>
<clus scale="   27.701">  2  5  1 -1</clus>
</clustering>
</event>
<event>
10    2  0.4951045E-006  0.6500583E+03  0.7546771E-02  0.1012231E+00
          1   -1    0    0  502    0 -0.00000000000E+00  0.00000000000E+00  0.23510597894E+04  0.23510597894E+04  0.00000000000E+00 0. -1.
         21   -1    0    0  503  502  0.00000000000E+00 -0.00000000000E+00 -0.13148938225E+04  0.13148938225E+04  0.00000000000E+00 0.  1.
         23    2    1    2    0    0 -0.21448362874E+03  0.52375651631E+02  0.45052566802E+03  0.50980274889E+03  0.90437986225E+02 0.  0.
         23    2    1    2    0    0  0.87009235875E+02  0.27654074598E+02  0.41023090083E+02  0.13424553678E+03  0.89462926714E+02 0.  0.
        -11    1    4    4    0    0  0.24282586579E+02 -0.29620652384E+02  0.29876357755E+02  0.48575959191E+02  0.00000000000E+00 0.  1.
         11    1    4    4    0    0  0.62726649296E+02  0.57274726982E+02  0.11146732328E+02  0.85669577590E+02  0.00000000000E+00 0. -1.
        -11    1    3    3    0    0 -0.13203064238E+03 -0.13835143537E+02  0.25772038923E+03  0.28990222619E+03  0.00000000000E+00 0.  1.
         11    1    3    3    0    0 -0.82452986362E+02  0.66210795168E+02  0.19280527878E+03  0.21990052270E+03  0.00000000000E+00 0. -1.
         21    1    1    2  503  501 -0.39782279156E+03 -0.60032561722E+02 -0.11654104139E+04  0.12329023947E+04  0.00000000000E+00 0.  1.
          1    1    1    2  501    0  0.52529718443E+03 -0.19997164507E+02  0.17100276228E+04  0.17890029316E+04  0.00000000000E+00 0. -1.
<scales pt_clust_5="13000.00000" pt_clust_6="13000.00000" pt_clust_7="13000.00000" pt_clust_8="13000.00000" pt_clust_9="406.01409" pt_clust_10="13000.00000"></scales>
<clustering>
<clus scale="   89.463">  5  6 -1 -1</clus>
<clus scale="   90.438">  7  8 -1 -1</clus>
<clus scale="  238.591">  1  7  2 -1</clus>
<clus scale="  326.020">  5 10 -1 -1</clus>
<clus scale="  406.014">  2  9  1 -1</clus>
<clus scale="  406.014">  2  5  1 -1</clus>
</clustering>
</event>
<event>
10    2  0.4951045E-006  0.3127009E+03  0.7546771E-02  0.1125809E+00
          3   -1    0    0  503    0 -0.00000000000E+00  0.00000000000E+00  0.43803719383E+03  0.43803719383E+03  0.00000000000E+00 0. -1.
         21   -1    0    0  501  502  0.00000000000E+00 -0.00000000000E+00 -0.28719856775E+03  0.28719856775E+03  0.00000000000E+00 0.  1.
         23    2    1    2    0    0  0.20063156903E+02 -0.11090605941E+02  0.51827187441E+02  0.10683386280E+03  0.90564259382E+02 0.  0.
         23    2    1    2    0    0 -0.17359726495E+02  0.62441575238E+02  0.23913984824E+03  0.26429837734E+03  0.92007906316E+02 0.  0.
        -13    1    3    3    0    0 -0.26933899119E+02  0.22839887974E+02  0.16794899520E+02  0.39104527286E+02  0.00000000000E+00 0.  1.
         13    1    3    3    0    0  0.46997056022E+02 -0.33930493915E+02  0.35032287921E+02  0.67729335513E+02  0.00000000000E+00 0. -1.
        -13    1    4    4    0    0  0.35132524395E+02  0.45268354949E+02  0.11998670604E+03  0.13296739396E+03  0.00000000000E+00 0. -1.
         13    1    4    4    0    0 -0.52492250891E+02  0.17173220289E+02  0.11915314220E+03  0.13133098338E+03  0.00000000000E+00 0.  1.
         21    1    1    2  503  502 -0.41448170778E+02  0.88698082166E+02 -0.17869966474E+03  0.20376179921E+03  0.00000000000E+00 0.  1.
          3    1    1    2  501    0  0.38744740371E+02 -0.14004905146E+03  0.38571255141E+02  0.15034172224E+03  0.00000000000E+00 0. -1.
<scales pt_clust_5="13000.00000" pt_clust_6="13000.00000" pt_clust_7="13000.00000" pt_clust_8="13000.00000" pt_clust_9="97.25796" pt_clust_10="13000.00000"></scales>
<clustering>
<clus scale="   90.564">  5  6 -1 -1</clus>
<clus scale="   92.008">  7  8 -1 -1</clus>
<clus scale="   93.421">  1  5  2 -1</clus>
<clus scale="   97.258">  2  9  1 -1</clus>
<clus scale="   87.524">  7 10 -1 -1</clus>
<clus scale="   97.258">  2  5  1 -1</clus>
</clustering>
</event>
<event>
10    2  0.4951045E-006  0.3415395E+03  0.7546771E-02  0.1087290E+00
          2   -1    0    0  503    0 -0.00000000000E+00  0.00000000000E+00  0.11611449521E+04  0.11611449521E+04  0.00000000000E+00 0. -1.
         21   -1    0    0  501  502  0.00000000000E+00 -0.00000000000E+00 -0.13527290595E+03  0.13527290595E+03  0.00000000000E+00 0. -1.
         23    2    1    2    0    0 -0.13476279922E+03  0.97382779715E+02  0.45656109507E+03  0.49438593664E+03  0.91241454246E+02 0.  0.
         23    2    1    2    0    0  0.32138846917E+02 -0.48066225841E+02  0.58071984507E+03  0.59123826709E+03  0.94783344889E+02 0.  0.
        -11    1    4    4    0    0 -0.17102478620E+02  0.18712713185E+02  0.87893324077E+02  0.91476209076E+02  0.00000000000E+00 0. -1.
         11    1    4    4    0    0  0.49241325537E+02 -0.66778939026E+02  0.49282652099E+03  0.49976205801E+03  0.00000000000E+00 0.  1.
        -11    1    3    3    0    0 -0.80620987487E+02  0.31827413489E+02  0.33507086807E+03  0.34610000650E+03  0.00000000000E+00 0. -1.
         11    1    3    3    0    0 -0.54141811733E+02  0.65555366226E+02  0.12149022701E+03  0.14828593014E+03  0.00000000000E+00 0.  1.
         21    1    1    2  503  502  0.63427208557E+01  0.26257340678E+02 -0.70045996631E+02  0.75074094676E+02  0.00000000000E+00 0. -1.
          2    1    1    2  501    0  0.96281231447E+02 -0.75573894551E+02  0.58637102659E+02  0.13571955966E+03  0.00000000000E+00 0. -1.
<scales pt_clust_5="13000.00000" pt_clust_6="13000.00000" pt_clust_7="13000.00000" pt_clust_8="13000.00000" pt_clust_9="27.01255" pt_clust_10="13000.00000"></scales>
<clustering>
<clus scale="   27.013">  2  9  1 -1</clus>
<clus scale="   91.241">  7  8 -1 -1</clus>
<clus scale="   94.783">  5  6 -1 -1</clus>
<clus scale="  116.485">  5 10 -1 -1</clus>
<clus scale="  192.516">  1  7  2 -1</clus>
<clus scale="   27.013">  2  5  1 -1</clus>
</clustering>
</event>
<event>
10    2  0.4951045E-006  0.1174021E+03  0.7546771E-02  0.1260932E+00
         21   -1    0    0  503  502  0.00000000000E+00  0.00000000000E+00  0.88664719916E+02  0.88664719916E+02  0.00000000000E+00 0.  1.
         -1   -1    0    0    0  501 -0.00000000000E+00 -0.00000000000E+00 -0.41847653123E+03  0.41847653123E+03  0.00000000000E+00 0.  1.
         23    2    1    2    0    0  0.12357711303E+02 -0.74286301268E+01 -0.33892092787E+03  0.35068094794E+03  0.88892262471E+02 0.  0.
         23    2    1    2    0    0  0.29168020134E+02  0.92046995704E+01 -0.21513735912E+02  0.98953801802E+02  0.91616123939E+02 0.  0.
        -11    1    3    3    0    0  0.13100725292E+01  0.40673720775E+02 -0.15491703836E+03  0.16017289604E+03  0.00000000000E+00 0. -1.
         11    1    3    3    0    0  0.11047638773E+02 -0.48102350901E+02 -0.18400388951E+03  0.19050805191E+03  0.00000000000E+00 0.  1.
        -11    1    4    4    0    0  0.17463740033E+02 -0.16332314239E+02 -0.52160807165E+02  0.57380105511E+02  0.00000000000E+00 0.  1.
         11    1    4    4    0    0  0.11704280101E+02  0.25537013809E+02  0.30647071253E+02  0.41573696292E+02  0.00000000000E+00 0. -1.
         21    1    1    2  503  501 -0.21728840688E+02 -0.74477168195E+01  0.28792065018E+02  0.36831969964E+02  0.00000000000E+00 0.  1.
         -1    1    1    2    0  502 -0.19796890748E+02  0.56716473759E+01  0.18307874548E+01  0.20674531433E+02  0.00000000000E+00 0.  1.
<scales pt_clust_5="13000.00000" pt_clust_6="13000.00000" pt_clust_7="13000.00000" pt_clust_8="13000.00000" pt_clust_9="22.96978" pt_clust_10="13000.00000"></scales>
<clustering>
<clus scale="   22.970">  1  9  2 -1</clus>
<clus scale="   88.892">  5  6 -1 -1</clus>
<clus scale="   89.837">  2  5  1 -1</clus>
<clus scale="   91.616">  7  8 -1 -1</clus>
<clus scale="   22.372">  7 10 -1 -1</clus>
<clus scale="   22.970">  1  5  2 -1</clus>
</clustering>
</event>
<event>
10    2  0.4951045E-006  0.2804736E+03  0.7546771E-02  0.1120299E+00
         21   -1    0    0  503  502  0.00000000000E+00  0.00000000000E+00  0.63536435037E+03  0.63536435037E+03  0.00000000000E+00 0.  1.
         -2   -1    0    0    0  501 -0.00000000000E+00 -0.00000000000E+00 -0.11213608488E+03  0.11213608488E+03  0.00000000000E+00 0.  1.
         23    2    1    2    0    0  0.10521403977E+03 -0.17994068233E+02  0.89969471560E+02  0.16811577166E+03  0.93672974832E+02 0.  0.
         23    2    1    2    0    0 -0.12015151535E+03  0.66106519634E+02  0.36189221503E+02  0.16686094771E+03  0.87900270419E+02 0.  0.
        -11    1    4    4    0    0 -0.83521184165E+02  0.10204397977E+02 -0.11265138125E+02  0.84892999001E+02  0.00000000000E+00 0.  1.
         11    1    4    4    0    0 -0.36630331187E+02  0.55902121657E+02  0.47454359628E+02  0.81967948714E+02  0.00000000000E+00 0. -1.
        -13    1    3    3    0    0  0.86954908488E+02  0.26771889348E+02  0.73755421391E+02  0.11712280885E+03  0.00000000000E+00 0.  1.
         13    1    3    3    0    0  0.18259131278E+02 -0.44765957581E+02  0.16214050169E+02  0.50992962809E+02  0.00000000000E+00 0. -1.
         21    1    1    2  503  501  0.30561161007E+02  0.19037020054E+02  0.21187439317E+03  0.21491196145E+03  0.00000000000E+00 0.  1.
         -2    1    1    2    0  502 -0.15623685421E+02 -0.67149471454E+02  0.18519517926E+03  0.19761175442E+03  0.00000000000E+00 0.  1.
<scales pt_clust_5="13000.00000" pt_clust_6="13000.00000" pt_clust_7="13000.00000" pt_clust_8="13000.00000" pt_clust_9="36.00545" pt_clust_10="13000.00000"></scales>
<clustering>
<clus scale="   36.005">  1  9  2 -1</clus>
<clus scale="   87.900">  5  6 -1 -1</clus>
<clus scale="   58.541">  5 10 -1 -1</clus>
<clus scale="   93.673">  7  8 -1 -1</clus>
<clus scale="  148.482">  2  7  1 -1</clus>
<clus scale="   36.005">  1  5  2 -1</clus>
</clustering>
</event>
<event>
10    2  0.4951045E-006  0.3267891E+03  0.7546771E-02  0.1114215E+00
         21   -1    0    0  501  502  0.00000000000E+00  0.00000000000E+00  0.21616363493E+03  0.21616363493E+03  0.00000000000E+00 0. -1.
          2   -1    0    0  503    0 -0.00000000000E+00 -0.00000000000E+00 -0.44116230189E+03  0.44116230189E+03  0.00000000000E+00 0. -1.
         23    2    1    2    0    0  0.58079011543E+02  0.23007622712E+02 -0.22062572868E+03  0.24611607318E+03  0.89414132178E+02 0.  0.
         23    2    1    2    0    0 -0.37921745406E+02  0.26465258381E+01 -0.18514374851E+03  0.20970746657E+03  0.90851257837E+02 0.  0.
        -13    1    4    4    0    0 -0.91313511960E-01  0.39979184878E+02 -0.47067863733E+02  0.61755383231E+02  0.00000000000E+00 0. -1.
         13    1    4    4    0    0 -0.37830431894E+02 -0.37332659040E+02 -0.13807588477E+03  0.14795208334E+03  0.00000000000E+00 0.  1.
        -13    1    3    3    0    0  0.16088111066E+00 -0.28040897714E+02 -0.33484869700E+02  0.43675557537E+02  0.00000000000E+00 0.  1.
         13    1    3    3    0    0  0.57918130433E+02  0.51048520426E+02 -0.18714085898E+03  0.20244051564E+03  0.00000000000E+00 0. -1.
         21    1    1    2  503  502 -0.61745564320E+01  0.30474869645E+02  0.67440717302E+02  0.74263673335E+02  0.00000000000E+00 0. -1.
          2    1    1    2  501    0 -0.13982709706E+02 -0.56129018195E+02  0.11333009293E+03  0.12723872373E+03  0.00000000000E+00 0. -1.
<scales pt_clust_5="13000.00000" pt_clust_6="13000.00000" pt_clust_7="13000.00000" pt_clust_8="13000.00000" pt_clust_9="31.09410" pt_clust_10="13000.00000"></scales>
<clustering>
<clus scale="   31.094">  1  9  2 -1</clus>
<clus scale="   89.414">  7  8 -1 -1</clus>
<clus scale="   90.851">  5  6 -1 -1</clus>
<clus scale="   36.326">  5 10 -1 -1</clus>
<clus scale="  109.384">  2  7  1 -1</clus>
<clus scale="   31.094">  1  5  2 -1</clus>
</clustering>
</event>
<event>
10    2  0.4951045E-006  0.5869389E+03  0.7546771E-02  0.1016480E+00
          2   -1    0    0  503    0 -0.00000000000E+00  0.00000000000E+00  0.14734333551E+04  0.14734333551E+04  0.00000000000E+00 0. -1.
         21   -1    0    0  501  502  0.00000000000E+00 -0.00000000000E+00 -0.19886047090E+03  0.19886047090E+03  0.00000000000E+00 0.  1.
         23    2    1    2    0    0  0.24677482516E+03 -0.72767336704E+02  0.87225288934E+02  0.28655245286E+03  0.91165550463E+02 0.  0.
         23    2    1    2    0    0 -0.26138049722E+03 -0.11367299054E+03  0.10776028470E+04  0.11182037055E+04  0.88939968663E+02 0.  0.
        -11    1    3    3    0    0  0.21672130764E+03 -0.28416871304E+02  0.61146052279E+02  0.22696802301E+03  0.00000000000E+00 0.  1.
         11    1    3    3    0    0  0.30053517511E+02 -0.44350465400E+02  0.26079236655E+02  0.59584429849E+02  0.00000000000E+00 0. -1.
        -13    1    4    4    0    0 -0.18940966327E+03 -0.81727126924E+02  0.90908358575E+03  0.93219542463E+03  0.00000000000E+00 0. -1.
         13    1    4    4    0    0 -0.71970833952E+02 -0.31945863611E+02  0.16851926128E+03  0.18600828090E+03  0.00000000000E+00 0.  1.
         21    1    1    2  503  502  0.21191728281E+02 -0.13936018007E+01 -0.27548045545E+02  0.34783994694E+02  0.00000000000E+00 0.  1.
          2    1    1    2  501    0 -0.65860562145E+01  0.18783392904E+03  0.13729279381E+03  0.23275367294E+03  0.00000000000E+00 0. -1.
<scales pt_clust_5="13000.00000" pt_clust_6="13000.00000" pt_clust_7="13000.00000" pt_clust_8="13000.00000" pt_clust_9="21.23750" pt_clust_10="13000.00000"></scales>
<clustering>
<clus scale="   21.238">  2  9  1 -1</clus>
<clus scale="   88.940">  7  8 -1 -1</clus>
<clus scale="   91.166">  5  6 -1 -1</clus>
<clus scale="  187.438">  7 10 -1 -1</clus>
<clus scale="  284.605">  1  5  2 -1</clus>
<clus scale="   21.238">  2  5  1 -1</clus>
</clustering>
</event>
<event>
10    2  0.4951045E-006  0.1785320E+03  0.7546771E-02  0.1198881E+00
         21   -1    0    0  503  502  0.00000000000E+00  0.00000000000E+00  0.11625019492E+03  0.11625019492E+03  0.00000000000E+00 0.  1.
         -4   -1    0    0    0  501 -0.00000000000E+00 -0.00000000000E+00 -0.30919511858E+03  0.30919511858E+03  0.00000000000E+00 0. -1.
         23    2    1    2    0    0  0.42615292683E+01  0.22483413662E+02 -0.17480081504E+03  0.19812599726E+03  0.90415271546E+02 0.  0.
         23    2    1    2    0    0  0.29320431786E+01 -0.18818756790E+02 -0.78824578348E+02  0.12035589639E+03  0.88935286360E+02 0.  0.
        -11    1    3    3    0    0  0.36717173421E+02  0.57036421864E+01 -0.14857592157E+03  0.15315184240E+03  0.00000000000E+00 0.  1.
         11    1    3    3    0    0 -0.32455644153E+02  0.16779771476E+02 -0.26224893471E+02  0.44974154864E+02  0.00000000000E+00 0. -1.
        -13    1    4    4    0    0  0.28837317155E+02 -0.14210223771E+02  0.49673117313E+01  0.32529917094E+02  0.00000000000E+00 0.  1.
         13    1    4    4    0    0 -0.25905273976E+02 -0.46085330193E+01 -0.83791890079E+02  0.87825979297E+02  0.00000000000E+00 0. -1.
         21    1    1    2  503  501 -0.22786644408E+02 -0.37591831067E+02  0.11915640844E+02  0.45545136108E+02  0.00000000000E+00 0.  1.
         -4    1    1    2    0  502  0.15593071961E+02  0.33927174196E+02  0.48764828881E+02  0.61418283742E+02  0.00000000000E+00 0. -1.
<scales pt_clust_5="13000.00000" pt_clust_6="13000.00000" pt_clust_7="13000.00000" pt_clust_8="13000.00000" pt_clust_9="43.95881" pt_clust_10="13000.00000"></scales>
<clustering>
<clus scale="   43.959">  1  9  2 -1</clus>
<clus scale="   88.935">  7  8 -1 -1</clus>
<clus scale="   10.340">  7 10 -1 -1</clus>
<clus scale="   90.415">  5  6 -1 -1</clus>
<clus scale="   92.096">  2  5  1 -1</clus>
<clus scale="   43.959">  1  5  2 -1</clus>
</clustering>
</event>
<event>
10    2  0.4951045E-006  0.3934541E+03  0.7546771E-02  0.1051679E+00
         21   -1    0    0  501  502  0.00000000000E+00  0.00000000000E+00  0.24914762106E+03  0.24914762106E+03  0.00000000000E+00 0. -1.
          1   -1    0    0  503    0 -0.00000000000E+00 -0.00000000000E+00 -0.67686898543E+03  0.67686898543E+03  0.00000000000E+00 0. -1.
         23    2    1    2    0    0  0.12402758019E+03 -0.28692589053E+03 -0.32497989114E+03  0.45952653914E+03  0.88562990134E+02 0.  0.
         23    2    1    2    0    0 -0.91108889955E+02  0.32569037847E+03 -0.50481159073E+02  0.35410632258E+03  0.92021126983E+02 0.  0.
        -11    1    4    4    0    0 -0.43227635902E+02  0.47482574172E+02  0.11112840954E+02  0.65166851924E+02  0.00000000000E+00 0.  1.
         11    1    4    4    0    0 -0.47881254053E+02  0.27820780430E+03 -0.61594000026E+02  0.28893947065E+03  0.00000000000E+00 0. -1.
        -13    1    3    3    0    0  0.45425242599E+02 -0.61135640799E+02 -0.13150174707E+03  0.15196620915E+03  0.00000000000E+00 0.  1.
         13    1    3    3    0    0  0.78602337587E+02 -0.22579024973E+03 -0.19347814407E+03  0.30756032998E+03  0.00000000000E+00 0. -1.
         21    1    1    2  503  502  0.25805904571E+02 -0.29349727061E+02 -0.13291552431E+02  0.41279735407E+02  0.00000000000E+00 0. -1.
          1    1    1    2  501    0 -0.58724594802E+02 -0.94147608843E+01 -0.38968761722E+02  0.71104009362E+02  0.00000000000E+00 0. -1.
<scales pt_clust_5="13000.00000" pt_clust_6="13000.00000" pt_clust_7="13000.00000" pt_clust_8="13000.00000" pt_clust_9="39.08134" pt_clust_10="13000.00000"></scales>
<clustering>
<clus scale="   39.081">  1  9  2 -1</clus>
<clus scale="   88.563">  7  8 -1 -1</clus>
<clus scale="   92.021">  5  6 -1 -1</clus>
<clus scale="   58.095">  5 10 -1 -1</clus>
<clus scale="  335.153">  2  7  1 -1</clus>
<clus scale="   39.081">  1  5  2 -1</clus>
</clustering>
</event>
<event>
10    2  0.4951045E-006  0.2152419E+03  0.7546771E-02  0.1147411E+00
         21   -1    0    0  503  502  0.00000000000E+00  0.00000000000E+00  0.69095247497E+02  0.69095247497E+02  0.00000000000E+00 0. -1.
          1   -1    0    0  502    0 -0.00000000000E+00 -0.00000000000E+00 -0.84028658804E+03  0.84028658804E+03  0.00000000000E+00 0. -1.
         23    2    1    2    0    0 -0.10255550169E+03 -0.20934980239E+02 -0.17844103597E+03  0.24010118525E+03  0.12186661362E+03 0.  0.
         23    2    1    2    0    0  0.89714621958E+01 -0.36057134790E+02 -0.21096977350E+03  0.22925754278E+03  0.81671117833E+02 0.  0.
        -11    1    3    3    0    0 -0.83408478933E+02  0.42678005477E+02 -0.11383795300E+03  0.14743631185E+03  0.00000000000E+00 0. -1.
         11    1    3    3    0    0 -0.19147022756E+02 -0.63612985716E+02 -0.64603082968E+02  0.92664873394E+02  0.00000000000E+00 0.  1.
        -13    1    4    4    0    0 -0.29987668367E+02 -0.38677000219E+02 -0.13920914457E+03  0.14756136531E+03  0.00000000000E+00 0.  1.
         13    1    4    4    0    0  0.38959130563E+02  0.26198654285E+01 -0.71760628932E+02  0.81696177474E+02  0.00000000000E+00 0. -1.
         21    1    1    2  503  501 -0.22117023081E+02  0.92883630571E+00  0.12422324058E+02  0.25383844899E+02  0.00000000000E+00 0. -1.
          1    1    1    2  501    0  0.11570106257E+03  0.56063278724E+02 -0.39420285513E+03  0.41463926261E+03  0.00000000000E+00 0. -1.
<scales pt_clust_5="13000.00000" pt_clust_6="13000.00000" pt_clust_7="13000.00000" pt_clust_8="13000.00000" pt_clust_9="22.13652" pt_clust_10="13000.00000"></scales>
<clustering>
<clus scale="   22.137">  1  9  2 -1</clus>
<clus scale="   81.671">  7  8 -1 -1</clus>
<clus scale="  121.867">  5  6 -1 -1</clus>
<clus scale="  124.617">  7 10 -1 -1</clus>
<clus scale="  169.573">  2  5  1 -1</clus>
<clus scale="   22.137">  1  5  2 -1</clus>
</clustering>
</event>
<event>
10    2  0.4951045E-006  0.2253913E+03  0.7546771E-02  0.1156785E+00
          3   -1    0    0  503    0 -0.00000000000E+00  0.00000000000E+00  0.22866752006E+03  0.22866752006E+03  0.00000000000E+00 0. -1.
         21   -1    0    0  501  502  0.00000000000E+00 -0.00000000000E+00 -0.19450023760E+03  0.19450023760E+03  0.00000000000E+00 0.  1.
         23    2    1    2    0    0 -0.48948673167E+02 -0.52932783370E+02  0.69049812828E+01  0.11235236616E+03  0.85892509885E+02 0.  0.
         23    2    1    2    0    0  0.34699563118E+02  0.61384447092E+02  0.13678900501E+03  0.17889103080E+03  0.91206682776E+02 0.  0.
        -11    1    4    4    0    0 -0.17083669414E+02  0.34720487977E+02  0.10932713703E+02  0.40210549299E+02  0.00000000000E+00 0.  1.
         11    1    4    4    0    0  0.51783232532E+02  0.26663959115E+02  0.12585629131E+03  0.13868048150E+03  0.00000000000E+00 0. -1.
        -11    1    3    3    0    0 -0.51321649742E+01 -0.40685430254E+02  0.39065586779E+02  0.56637120537E+02  0.00000000000E+00 0. -1.
         11    1    3    3    0    0 -0.43816508193E+02 -0.12247353116E+02 -0.32160605497E+02  0.55715245620E+02  0.00000000000E+00 0.  1.
         21    1    1    2  503  502 -0.28620667404E+02 -0.47185526191E+01 -0.57542073776E+02  0.64439875822E+02  0.00000000000E+00 0.  1.
          3    1    1    2  501    0  0.42869777453E+02 -0.37331111024E+01 -0.51984630059E+02  0.67484484882E+02  0.00000000000E+00 0. -1.
<scales pt_clust_5="13000.00000" pt_clust_6="13000.00000" pt_clust_7="13000.00000" pt_clust_8="13000.00000" pt_clust_9="29.00702" pt_clust_10="13000.00000"></scales>
<clustering>
<clus scale="   29.007">  2  9  1 -1</clus>
<clus scale="   85.893">  7  8 -1 -1</clus>
<clus scale="   91.207">  5  6 -1 -1</clus>
<clus scale="   30.627">  5 10 -1 -1</clus>
<clus scale="  118.365">  1  7  2 -1</clus>
<clus scale="   29.007">  2  5  1 -1</clus>
</clustering>
</event>
<event>
10    2  0.4951045E-006  0.2352053E+03  0.7546771E-02  0.1137143E+00
         21   -1    0    0  501  502  0.00000000000E+00  0.00000000000E+00  0.52980029530E+03  0.52980029530E+03  0.00000000000E+00 0.  1.
          1   -1    0    0  503    0 -0.00000000000E+00 -0.00000000000E+00 -0.13037525747E+03  0.13037525747E+03  0.00000000000E+00 0. -1.
         23    2    1    2    0    0  0.52100745754E+02 -0.12395996890E+03 -0.79807767188E+01  0.16227453983E+03  0.90491833223E+02 0.  0.
         23    2    1    2    0    0 -0.99034209495E+02  0.97071383957E+02  0.15126006079E+03  0.22435720853E+03  0.90696873128E+02 0.  0.
        -11    1    4    4    0    0 -0.64749959601E+02  0.86325177119E+02  0.15431103316E+03  0.18829893368E+03  0.00000000000E+00 0.  1.
         11    1    4    4    0    0 -0.34284249894E+02  0.10746206838E+02 -0.30509723696E+01  0.36058274843E+02  0.00000000000E+00 0. -1.
        -13    1    3    3    0    0  0.29900330686E+02 -0.31647571822E+02 -0.42889922980E+02  0.61115825042E+02  0.00000000000E+00 0. -1.
         13    1    3    3    0    0  0.22200415068E+02 -0.92312397081E+02  0.34909146261E+02  0.10115871478E+03  0.00000000000E+00 0.  1.
         21    1    1    2  503  502  0.89416649023E+01 -0.27855318280E+02  0.84207445601E+02  0.89144635410E+02  0.00000000000E+00 0.  1.
          1    1    1    2  501    0  0.37991798839E+02  0.54743903226E+02  0.17193830815E+03  0.18439916901E+03  0.00000000000E+00 0. -1.
<scales pt_clust_5="13000.00000" pt_clust_6="13000.00000" pt_clust_7="13000.00000" pt_clust_8="13000.00000" pt_clust_9="29.25529" pt_clust_10="13000.00000"></scales>
<clustering>
<clus scale="   29.255">  1  9  2 -1</clus>
<clus scale="   90.492">  7  8 -1 -1</clus>
<clus scale="   90.697">  5  6 -1 -1</clus>
<clus scale="   60.213">  5 10 -1 -1</clus>
<clus scale="  166.312">  2  7  1 -1</clus>
<clus scale="   29.255">  1  5  2 -1</clus>
</clustering>
</event>
<event>
10    2  0.4951045E-006  0.3525204E+03  0.7546771E-02  0.1082007E+00
          2   -1    0    0  502    0 -0.00000000000E+00  0.00000000000E+00  0.24424009974E+04  0.24424009974E+04  0.00000000000E+00 0. -1.
         21   -1    0    0  503  502  0.00000000000E+00 -0.00000000000E+00 -0.48179615989E+02  0.48179615989E+02  0.00000000000E+00 0. -1.
         23    2    1    2    0    0  0.99774388400E+02  0.16896185111E+03  0.10752212281E+04  0.10965875322E+04  0.88884703984E+02 0.  0.
         23    2    1    2    0    0 -0.10686782412E+03 -0.20930399923E+03  0.92191833067E+03  0.95575724683E+03  0.91157065077E+02 0.  0.
        -11    1    3    3    0    0  0.41383346848E+02  0.56531862911E+01  0.22864999198E+03  0.23243355769E+03  0.00000000000E+00 0. -1.
         11    1    3    3    0    0  0.58391041552E+02  0.16330866482E+03  0.84657123617E+03  0.86415397450E+03  0.00000000000E+00 0.  1.
        -13    1    4    4    0    0 -0.64187906659E+02 -0.18725046104E+03  0.81235788712E+03  0.83612687989E+03  0.00000000000E+00 0. -1.
         13    1    4    4    0    0 -0.42679917461E+02 -0.22053538188E+02  0.10956044355E+03  0.11963036693E+03  0.00000000000E+00 0.  1.
         21    1    1    2  503  501 -0.37123902683E+02 -0.32014190579E+02  0.22077132436E+02  0.53763299057E+02  0.00000000000E+00 0. -1.
          2    1    1    2  501    0  0.44217338403E+02  0.72356338692E+02  0.37500469018E+03  0.38447253532E+03  0.00000000000E+00 0. -1.
<scales pt_clust_5="13000.00000" pt_clust_6="13000.00000" pt_clust_7="13000.00000" pt_clust_8="13000.00000" pt_clust_9="49.02135" pt_clust_10="13000.00000"></scales>
<clustering>
<clus scale="   49.021">  2  9  1 -1</clus>
<clus scale="   88.885">  5  6 -1 -1</clus>
<clus scale="   91.157">  7  8 -1 -1</clus>
<clus scale="   77.995">  7 10 -1 -1</clus>
<clus scale="  201.604">  1  5  2 -1</clus>
<clus scale="   49.021">  2  5  1 -1</clus>
</clustering>
</event>
<event>
10    2  0.4951045E-006  0.8267873E+03  0.7546771E-02  0.1000028E+00
         21   -1    0    0  501  502  0.00000000000E+00  0.00000000000E+00  0.65314680154E+03  0.65314680154E+03  0.00000000000E+00 0. -1.
          2   -1    0    0  503    0 -0.00000000000E+00 -0.00000000000E+00 -0.51760121844E+03  0.51760121844E+03  0.00000000000E+00 0. -1.
         23    2    1    2    0    0 -0.49781512633E+02  0.13209410293E+03 -0.16384779903E+03  0.23483132783E+03  0.91501913946E+02 0.  0.
         23    2    1    2    0    0  0.28218145036E+03  0.21942805630E+03  0.29283903807E+02  0.37326378731E+03  0.10340824473E+03 0.  0.
        -11    1    4    4    0    0  0.10428349075E+03  0.10294519249E+03 -0.35876246448E+02  0.15086372712E+03  0.00000000000E+00 0. -1.
         11    1    4    4    0    0  0.17789795961E+03  0.11648286381E+03  0.65160150255E+02  0.22240006020E+03  0.00000000000E+00 0.  1.
        -13    1    3    3    0    0 -0.48296617738E+02  0.29321702887E+02 -0.24270498445E+02  0.61492947887E+02  0.00000000000E+00 0.  1.
         13    1    3    3    0    0 -0.14848948949E+01  0.10277240004E+03 -0.13957730058E+03  0.17333837994E+03  0.00000000000E+00 0. -1.
         21    1    1    2  503  502  0.13890145537E+01  0.28197038292E+02  0.66902642664E+02  0.72615190734E+02  0.00000000000E+00 0. -1.
          2    1    1    2  501    0 -0.23378895228E+03 -0.37971919752E+03  0.20320683566E+03  0.49003771409E+03  0.00000000000E+00 0. -1.
<scales pt_clust_5="13000.00000" pt_clust_6="13000.00000" pt_clust_7="13000.00000" pt_clust_8="13000.00000" pt_clust_9="28.23123" pt_clust_10="13000.00000"></scales>
<clustering>
<clus scale="   28.231">  1  9  2 -1</clus>
<clus scale="   91.502">  7  8 -1 -1</clus>
<clus scale="  103.408">  5  6 -1 -1</clus>
<clus scale="  169.551">  2  7  1 -1</clus>
<clus scale="  397.365">  5 10 -1 -1</clus>
<clus scale="   28.231">  1  5  2 -1</clus>
</clustering>
</event>
<event>
10    2  0.4951045E-006  0.3997071E+03  0.7546771E-02  0.1076001E+00
          1   -1    0    0  503    0 -0.00000000000E+00  0.00000000000E+00  0.10092472654E+03  0.10092472654E+03  0.00000000000E+00 0. -1.
         21   -1    0    0  501  502  0.00000000000E+00 -0.00000000000E+00 -0.97275826815E+03  0.97275826815E+03  0.00000000000E+00 0. -1.
         23    2    1    2    0    0  0.47334318436E+02  0.10727748690E+03 -0.24546011656E+03  0.28855512745E+03  0.96251731707E+02 0.  0.
         23    2    1    2    0    0 -0.40903215160E+02  0.51585328114E+02 -0.30458960926E+01  0.11235465566E+03  0.90995450869E+02 0.  0.
        -13    1    3    3    0    0  0.27550848060E+02  0.11571651783E+03 -0.15394611240E+03  0.19454759636E+03  0.00000000000E+00 0. -1.
         13    1    3    3    0    0  0.19783470377E+02 -0.84390309305E+01 -0.91514004157E+02  0.94007531081E+02  0.00000000000E+00 0.  1.
        -13    1    4    4    0    0 -0.22591882339E+01  0.63802727972E+02 -0.22113506639E+02  0.67564037802E+02  0.00000000000E+00 0.  1.
         13    1    4    4    0    0 -0.38644026926E+02 -0.12217399859E+02  0.19067610546E+02  0.44790617860E+02  0.00000000000E+00 0. -1.
         21    1    1    2  503  502 -0.38909414772E+00  0.46275313046E+02 -0.14708744058E+03  0.15419556145E+03  0.00000000000E+00 0.  1.
          1    1    1    2  501    0 -0.60420091287E+01 -0.20513812806E+03 -0.47624008837E+03  0.51857765014E+03  0.00000000000E+00 0. -1.
<scales pt_clust_5="13000.00000" pt_clust_6="13000.00000" pt_clust_7="13000.00000" pt_clust_8="13000.00000" pt_clust_9="46.27695" pt_clust_10="13000.00000"></scales>
<clustering>
<clus scale="   46.277">  2  9  1 -1</clus>
<clus scale="   90.995">  7  8 -1 -1</clus>
<clus scale="   96.252">  5  6 -1 -1</clus>
<clus scale="  162.641">  1  5  2 -1</clus>
<clus scale="  148.242">  7 10 -1 -1</clus>
<clus scale="   46.277">  2  5  1 -1</clus>
</clustering>
</event>
<event>
10    2  0.4951045E-006  0.2734853E+03  0.7546771E-02  0.1144380E+00
          2   -1    0    0  502    0 -0.00000000000E+00  0.00000000000E+00  0.72995407109E+03  0.72995407109E+03  0.00000000000E+00 0. -1.
         21   -1    0    0  503  502  0.00000000000E+00 -0.00000000000E+00 -0.12154258151E+03  0.12154258151E+03  0.00000000000E+00 0. -1.
         23    2    1    2    0    0 -0.13999485399E+02  0.10115406423E+02  0.12598168533E+02  0.89273821668E+02  0.86676377095E+02 0.  0.
         23    2    1    2    0    0 -0.53338109949E+02 -0.10525309518E+03  0.55032569271E+03  0.57032241581E+03  0.92120149246E+02 0.  0.
        -11    1    4    4    0    0 -0.36397692447E+02  0.83628454831E+00  0.80188953330E+02  0.88066790696E+02  0.00000000000E+00 0.  1.
         11    1    4    4    0    0 -0.16940417501E+02 -0.10608937972E+03  0.47013673938E+03  0.48225562511E+03  0.00000000000E+00 0. -1.
        -13    1    3    3    0    0 -0.37360917040E+02 -0.24772928461E+02  0.14856676544E+02  0.47225596286E+02  0.00000000000E+00 0. -1.
         13    1    3    3    0    0  0.23361431641E+02  0.34888334884E+02 -0.22585080110E+01  0.42048225382E+02  0.00000000000E+00 0.  1.
         21    1    1    2  503  501  0.46468628434E+02  0.83924817575E+01 -0.44711514043E+02  0.65029890563E+02  0.00000000000E+00 0. -1.
          2    1    1    2  501    0  0.20868966913E+02  0.86745206994E+02  0.90199142374E+02  0.12687052456E+03  0.00000000000E+00 0. -1.
<scales pt_clust_5="13000.00000" pt_clust_6="13000.00000" pt_clust_7="13000.00000" pt_clust_8="13000.00000" pt_clust_9="47.22041" pt_clust_10="13000.00000"></scales>
<clustering>
<clus scale="   47.220">  2  9  1 -1</clus>
<clus scale="   86.676">  7  8 -1 -1</clus>
<clus scale="   88.870">  1  7  2 -1</clus>
<clus scale="   92.120">  5  6 -1 -1</clus>
<clus scale="   98.776">  5 10 -1 -1</clus>
<clus scale="   47.220">  2  5  1 -1</clus>
</clustering>
</event>
<event>
10    2  0.8350687E-006  0.1654682E+03  0.7546771E-02  0.1201730E+00
         21   -1    0    0  501  502  0.00000000000E+00  0.00000000000E+00  0.32911529743E+03  0.32911529743E+03  0.00000000000E+00 0.  1.
          1   -1    0    0  503    0 -0.00000000000E+00 -0.00000000000E+00 -0.46159533623E+03  0.46159533623E+03  0.00000000000E+00 0. -1.
         23    2    1    2    0    0 -0.34542693350E+02 -0.41939379915E+02 -0.15637624702E+03  0.18945610386E+03  0.92130208977E+02 0.  0.
         23    2    1    2    0    0  0.42016374694E+02  0.19382081047E+02 -0.21017474575E+03  0.23367158138E+03  0.91038142472E+02 0.  0.
        -11    1    4    4    0    0  0.45352895861E+02  0.40697351538E+02 -0.20133797661E+03  0.21035717342E+03  0.00000000000E+00 0.  1.
         11    1    4    4    0    0 -0.33365211675E+01 -0.21315270491E+02 -0.88367691461E+01  0.23314407961E+02  0.00000000000E+00 0. -1.
        -11    1    3    3    0    0 -0.36495509636E+02 -0.69908285061E+02 -0.11811483747E+03  0.14202184823E+03  0.00000000000E+00 0. -1.
         11    1    3    3    0    0  0.19528162856E+01  0.27968905146E+02 -0.38261409549E+02  0.47434255630E+02  0.00000000000E+00 0.  1.
         21    1    1    2  503  502  0.25668275176E+02 -0.26259150061E+02  0.28638369381E+03  0.28872828644E+03  0.00000000000E+00 0.  1.
          1    1    1    2  501    0 -0.33141956520E+02  0.48816448929E+02 -0.52312739824E+02  0.78854661979E+02  0.00000000000E+00 0. -1.
<scales pt_clust_5="13000.00000" pt_clust_6="13000.00000" pt_clust_7="13000.00000" pt_clust_8="13000.00000" pt_clust_9="36.72061" pt_clust_10="13000.00000"></scales>
<clustering>
<clus scale="   36.721">  1  9  2 -1</clus>
<clus scale="   91.038">  5  6 -1 -1</clus>
<clus scale="   47.507">  5 10 -1 -1</clus>
<clus scale="   92.130">  7  8 -1 -1</clus>
<clus scale="  108.741">  2  7  1 -1</clus>
<clus scale="   36.721">  1  5  2 -1</clus>
</clustering>
</event>
<event>
10    2  0.4951045E-006  0.2339504E+03  0.7546771E-02  0.1143645E+00
         21   -1    0    0  501  502  0.00000000000E+00  0.00000000000E+00  0.32823367997E+03  0.32823367997E+03  0.00000000000E+00 0. -1.
          1   -1    0    0  503    0 -0.00000000000E+00 -0.00000000000E+00 -0.14700028234E+03  0.14700028234E+03  0.00000000000E+00 0. -1.
         23    2    1    2    0    0 -0.78628688498E+02 -0.67085411261E+02  0.30302209544E+02  0.14283834243E+03  0.93817083234E+02 0.  0.
         23    2    1    2    0    0 -0.92165660801E+01 -0.20167630662E+02  0.94329583789E+01  0.95491854944E+02  0.92401489382E+02 0.  0.
        -11    1    4    4    0    0  0.48641212659E+01 -0.50135238947E+02  0.27897983712E+02  0.57580373003E+02  0.00000000000E+00 0. -1.
         11    1    4    4    0    0 -0.14080687346E+02  0.29967608285E+02 -0.18465025333E+02  0.37911481941E+02  0.00000000000E+00 0.  1.
        -13    1    3    3    0    0 -0.36176314840E+02 -0.51212929093E+01  0.52998732112E+02  0.64372501909E+02  0.00000000000E+00 0. -1.
         13    1    3    3    0    0 -0.42452373659E+02 -0.61964118352E+02 -0.22696522568E+02  0.78465840524E+02  0.00000000000E+00 0.  1.
         21    1    1    2  503  502 -0.23197102181E+02 -0.12045265485E+01  0.77993229993E+02  0.81378746357E+02  0.00000000000E+00 0. -1.
          1    1    1    2  501    0  0.11104235676E+03  0.88457568472E+02  0.63504999719E+02  0.15552501858E+03  0.00000000000E+00 0. -1.
<scales pt_clust_5="13000.00000" pt_clust_6="13000.00000" pt_clust_7="13000.00000" pt_clust_8="13000.00000" pt_clust_9="23.22835" pt_clust_10="13000.00000"></scales>
<clustering>
<clus scale="   23.228">  1  9  2 -1</clus>
<clus scale="   92.401">  5  6 -1 -1</clus>
<clus scale="   93.817">  7  8 -1 -1</clus>
<clus scale="  133.776">  5 10 -1 -1</clus>
<clus scale="  144.488">  2  7  1 -1</clus>
<clus scale="   23.228">  1  5  2 -1</clus>
</clustering>
</event>
<event>
10    2  0.4951045E-006  0.2117696E+03  0.7546771E-02  0.1162150E+00
         -3   -1    0    0    0  501 -0.00000000000E+00  0.00000000000E+00  0.55007270622E+03  0.55007270622E+03  0.00000000000E+00 0.  1.
         21   -1    0    0  501  502  0.00000000000E+00 -0.00000000000E+00 -0.19900080717E+03  0.19900080717E+03  0.00000000000E+00 0. -1.
         23    2    1    2    0    0 -0.30590737042E+02  0.87960253138E+02  0.18214147261E+03  0.22400492796E+03  0.91268244092E+02 0.  0.
         23    2    1    2    0    0  0.13027528282E+02 -0.58416525008E+02  0.30472490224E+03  0.32385757915E+03  0.91892647374E+02 0.  0.
        -11    1    4    4    0    0 -0.30384522256E+02 -0.55022508232E+02  0.13977930853E+03  0.15326105408E+03  0.00000000000E+00 0.  1.
         11    1    4    4    0    0  0.43412050538E+02 -0.33940167764E+01  0.16494559371E+03  0.17059652507E+03  0.00000000000E+00 0. -1.
        -13    1    3    3    0    0  0.11731093779E+02  0.36588867433E+02  0.14011481951E+03  0.14528773667E+03  0.00000000000E+00 0.  1.
         13    1    3    3    0    0 -0.42321830821E+02  0.51371385705E+02  0.42026653108E+02  0.78717191291E+02  0.00000000000E+00 0. -1.
         21    1    1    2  503  502  0.60419805503E+02 -0.38457519064E+01 -0.13851327846E+03  0.15116636866E+03  0.00000000000E+00 0. -1.
         -3    1    1    2    0  503 -0.42856596743E+02 -0.25697976223E+02  0.27188026493E+01  0.50044637617E+02  0.00000000000E+00 0.  1.
<scales pt_clust_5="13000.00000" pt_clust_6="13000.00000" pt_clust_7="13000.00000" pt_clust_8="13000.00000" pt_clust_9="60.54207" pt_clust_10="13000.00000"></scales>
<clustering>
<clus scale="   60.542">  2  9  1 -1</clus>
<clus scale="   91.268">  7  8 -1 -1</clus>
<clus scale="   91.893">  5  6 -1 -1</clus>
<clus scale="   31.945">  5 10 -1 -1</clus>
<clus scale="  125.937">  1  7  2 -1</clus>
<clus scale="   60.542">  2  5  1 -1</clus>
</clustering>
</event>
<event>
10    2  0.4951045E-006  0.2700915E+03  0.7546771E-02  0.1143348E+00
         21   -1    0    0  501  502  0.00000000000E+00  0.00000000000E+00  0.72798412148E+02  0.72798412148E+02  0.00000000000E+00 0. -1.
          2   -1    0    0  503    0 -0.00000000000E+00 -0.00000000000E+00 -0.66753131256E+03  0.66753131256E+03  0.00000000000E+00 0. -1.
         23    2    1    2    0    0  0.21942311503E+02 -0.10823140254E+02 -0.11538032497E+03  0.14882438054E+03  0.90760517040E+02 0.  0.
         23    2    1    2    0    0  0.77744490369E+02 -0.79211871165E+01 -0.38589077729E+03  0.40430067519E+03  0.91871611391E+02 0.  0.
        -11    1    3    3    0    0 -0.25449389848E+02 -0.13785620716E+02 -0.59677102415E+01  0.29552129326E+02  0.00000000000E+00 0.  1.
         11    1    3    3    0    0  0.47391701351E+02  0.29624804625E+01 -0.10941261473E+03  0.11927225121E+03  0.00000000000E+00 0. -1.
        -11    1    4    4    0    0  0.49750699996E+02 -0.47543324695E+02 -0.17835623554E+03  0.19117124948E+03  0.00000000000E+00 0.  1.
         11    1    4    4    0    0  0.27993790374E+02  0.39622137578E+02 -0.20753454175E+03  0.21312942571E+03  0.00000000000E+00 0. -1.
         21    1    1    2  503  502  0.14467488836E+02  0.32023447138E+02  0.54705879914E+01  0.35563137274E+02  0.00000000000E+00 0. -1.
          2    1    1    2  501    0 -0.11415429071E+03 -0.13279119768E+02 -0.98932386152E+02  0.15164153171E+03  0.00000000000E+00 0. -1.
<scales pt_clust_5="13000.00000" pt_clust_6="13000.00000" pt_clust_7="13000.00000" pt_clust_8="13000.00000" pt_clust_9="35.13985" pt_clust_10="13000.00000"></scales>
<clustering>
<clus scale="   35.140">  1  9  2 -1</clus>
<clus scale="   90.761">  5  6 -1 -1</clus>
<clus scale="   91.872">  7  8 -1 -1</clus>
<clus scale="   94.571">  2  5  1 -1</clus>
<clus scale="  100.953">  7 10 -1 -1</clus>
<clus scale="   35.140">  1  5  2 -1</clus>
</clustering>
</event>
<event>
10    2  0.4951045E-006  0.3975093E+03  0.7546771E-02  0.1090381E+00
          1   -1    0    0  502    0 -0.00000000000E+00  0.00000000000E+00  0.29639231638E+03  0.29639231638E+03  0.00000000000E+00 0. -1.
         21   -1    0    0  503  502  0.00000000000E+00 -0.00000000000E+00 -0.35689459477E+03  0.35689459477E+03  0.00000000000E+00 0. -1.
         23    2    1    2    0    0  0.71226481306E+02  0.60849581223E+00 -0.88820133121E+02  0.14589731721E+03  0.91232829698E+02 0.  0.
         23    2    1    2    0    0 -0.17101085206E+03 -0.73524239530E+02  0.17804175582E+03  0.27517050973E+03  0.96795750350E+02 0.  0.
        -13    1    3    3    0    0  0.49571155557E+02 -0.25216104490E+02 -0.53414452154E+01  0.55872018273E+02  0.00000000000E+00 0. -1.
         13    1    3    3    0    0  0.21655325749E+02  0.25824600302E+02 -0.83478687906E+02  0.90025298936E+02  0.00000000000E+00 0.  1.
        -13    1    4    4    0    0 -0.14984388906E+03 -0.93472001882E+02  0.13110107292E+03  0.21994930676E+03  0.00000000000E+00 0. -1.
         13    1    4    4    0    0 -0.21166963008E+02  0.19947762352E+02  0.46940682908E+02  0.55221202973E+02  0.00000000000E+00 0.  1.
         21    1    1    2  503  501 -0.16636469014E+02  0.34573781541E+02 -0.85780954625E+02  0.93970690365E+02  0.00000000000E+00 0. -1.
          1    1    1    2  501    0  0.11642083977E+03  0.38341962176E+02 -0.63942946469E+02  0.13824839384E+03  0.00000000000E+00 0. -1.
<scales pt_clust_5="13000.00000" pt_clust_6="13000.00000" pt_clust_7="13000.00000" pt_clust_8="13000.00000" pt_clust_9="38.36820" pt_clust_10="13000.00000"></scales>
<clustering>
<clus scale="   38.368">  2  9  1 -1</clus>
<clus scale="   91.233">  5  6 -1 -1</clus>
<clus scale="   96.796">  7  8 -1 -1</clus>
<clus scale="  112.509">  1  5  2 -1</clus>
<clus scale="  130.971">  7 10 -1 -1</clus>
<clus scale="   38.368">  2  5  1 -1</clus>
</clustering>
</event>
<event>
10    2  0.4951045E-006  0.3720716E+03  0.7546771E-02  0.1087669E+00
          1   -1    0    0  502    0 -0.00000000000E+00  0.00000000000E+00  0.12131291036E+04  0.12131291036E+04  0.00000000000E+00 0. -1.
         21   -1    0    0  503  502  0.00000000000E+00 -0.00000000000E+00 -0.62015175300E+02  0.62015175300E+02  0.00000000000E+00 0. -1.
         23    2    1    2    0    0  0.72162668102E+02 -0.82567157329E+02  0.29420610521E+03  0.32697297624E+03  0.91265046506E+02 0.  0.
         23    2    1    2    0    0 -0.19237226729E+03  0.75891785678E+02  0.33986031728E+03  0.40771285444E+03  0.89208094103E+02 0.  0.
        -11    1    4    4    0    0 -0.10236834208E+03  0.60587840952E+02  0.11688037756E+03  0.16676686299E+03  0.00000000000E+00 0.  1.
         11    1    4    4    0    0 -0.90003925210E+02  0.15303944726E+02  0.22297993972E+03  0.24094599145E+03  0.00000000000E+00 0. -1.
        -13    1    3    3    0    0  0.10879103045E+01 -0.46305887238E+02  0.19091064247E+03  0.19644921011E+03  0.00000000000E+00 0.  1.
         13    1    3    3    0    0  0.71074757798E+02 -0.36261270090E+02  0.10329546273E+03  0.13052376613E+03  0.00000000000E+00 0. -1.
         21    1    1    2  503  501  0.86011068044E+01 -0.20554289940E+02  0.18845264643E+02  0.29182218433E+02  0.00000000000E+00 0.  1.
          1    1    1    2  501    0  0.11160849239E+03  0.27229661591E+02  0.49820224114E+03  0.51127622976E+03  0.00000000000E+00 0. -1.
<scales pt_clust_5="13000.00000" pt_clust_6="13000.00000" pt_clust_7="13000.00000" pt_clust_8="13000.00000" pt_clust_9="22.28133" pt_clust_10="13000.00000"></scales>
<clustering>
<clus scale="   22.281">  2  9  1 -1</clus>
<clus scale="   89.208">  5  6 -1 -1</clus>
<clus scale="   91.265">  7  8 -1 -1</clus>
<clus scale="  115.311">  5 10 -1 -1</clus>
<clus scale="  147.416">  1  7  2 -1</clus>
<clus scale="   22.281">  2  5  1 -1</clus>
</clustering>
</event>
<event>
10    2  0.4951045E-006  0.1904493E+03  0.7546771E-02  0.1172621E+00
          1   -1    0    0  503    0 -0.00000000000E+00  0.00000000000E+00  0.12141162165E+04  0.12141162165E+04  0.00000000000E+00 0. -1.
         21   -1    0    0  501  502  0.00000000000E+00 -0.00000000000E+00 -0.32273654340E+02  0.32273654340E+02  0.00000000000E+00 0.  1.
         23    2    1    2    0    0  0.77191910260E+02  0.49044557303E+02  0.51660070725E+03  0.53224333271E+03  0.89681184643E+02 0.  0.
         23    2    1    2    0    0 -0.58819739020E+02 -0.39966211459E+02  0.19102671258E+03  0.22332583070E+03  0.91247805362E+02 0.  0.
        -11    1    3    3    0    0 -0.10601114592E+01  0.44228234284E+02  0.11834206976E+03  0.12634122851E+03  0.00000000000E+00 0.  1.
         11    1    3    3    0    0  0.78252021719E+02  0.48163230190E+01  0.39825863748E+03  0.40590210421E+03  0.00000000000E+00 0. -1.
        -13    1    4    4    0    0  0.24684144413E+02 -0.12359208074E+02  0.50287766658E+02  0.57366510135E+02  0.00000000000E+00 0. -1.
         13    1    4    4    0    0 -0.83503883433E+02 -0.27607003385E+02  0.14073894592E+03  0.16595932056E+03  0.00000000000E+00 0.  1.
         21    1    1    2  503  502  0.50101607581E+02 -0.10975447841E+02  0.12798938217E+03  0.13788369550E+03  0.00000000000E+00 0. -1.
          1    1    1    2  501    0 -0.68473778820E+02  0.18971019967E+01  0.34622576013E+03  0.35293701189E+03  0.00000000000E+00 0. -1.
<scales pt_clust_5="13000.00000" pt_clust_6="13000.00000" pt_clust_7="13000.00000" pt_clust_8="13000.00000" pt_clust_9="51.28968" pt_clust_10="13000.00000"></scales>
<clustering>
<clus scale="   51.290">  2  9  1 -1</clus>
<clus scale="   89.681">  5  6 -1 -1</clus>
<clus scale="   91.248">  7  8 -1 -1</clus>
<clus scale="   62.324">  7 10 -1 -1</clus>
<clus scale="  136.117">  1  5  2 -1</clus>
<clus scale="   51.290">  2  5  1 -1</clus>
</clustering>
</event>
<event>
10    2  0.4951045E-006  0.1735797E+03  0.7546771E-02  0.1196457E+00
         -1   -1    0    0    0  501 -0.00000000000E+00  0.00000000000E+00  0.28248007249E+03  0.28248007249E+03  0.00000000000E+00 0.  1.
         21   -1    0    0  503  502  0.00000000000E+00 -0.00000000000E+00 -0.94692045623E+02  0.94692045623E+02  0.00000000000E+00 0.  1.
         23    2    1    2    0    0  0.58226694092E+02  0.70775656658E+01  0.12048694994E+03  0.16191433246E+03  0.90877423530E+02 0.  0.
         23    2    1    2    0    0 -0.59638721045E+02 -0.35448823091E+02  0.38143503173E+02  0.11810217757E+03  0.87634476132E+02 0.  0.
        -11    1    4    4    0    0 -0.37498063687E+02  0.21471641954E+02 -0.47486488024E+01  0.43470517065E+02  0.00000000000E+00 0. -1.
         11    1    4    4    0    0 -0.22140657357E+02 -0.56920465045E+02  0.42892151975E+02  0.74631660508E+02  0.00000000000E+00 0.  1.
        -13    1    3    3    0    0  0.14476886159E+02  0.39992540459E+02  0.89286318425E+02  0.98899090912E+02  0.00000000000E+00 0.  1.
         13    1    3    3    0    0  0.43749807933E+02 -0.32914974793E+02  0.31200631519E+02  0.63015241545E+02  0.00000000000E+00 0. -1.
         21    1    1    2  503  501 -0.17226885006E+02 -0.28196675316E+02  0.85399069383E+01  0.34128405712E+02  0.00000000000E+00 0.  1.
         -1    1    1    2    0  502  0.18638911958E+02  0.56567932742E+02  0.20617666808E+02  0.63027202367E+02  0.00000000000E+00 0.  1.
<scales pt_clust_5="13000.00000" pt_clust_6="13000.00000" pt_clust_7="13000.00000" pt_clust_8="13000.00000" pt_clust_9="33.04267" pt_clust_10="13000.00000"></scales>
<clustering>
<clus scale="   33.043">  2  9  1 -1</clus>
<clus scale="   87.634">  5  6 -1 -1</clus>
<clus scale="   51.267">  5 10 -1 -1</clus>
<clus scale="   90.877">  7  8 -1 -1</clus>
<clus scale="  105.644">  1  7  2 -1</clus>
<clus scale="   33.043">  2  5  1 -1</clus>
</clustering>
</event>
<event>
10    2  0.4951045E-006  0.2689248E+03  0.7546771E-02  0.1136600E+00
          1   -1    0    0  503    0 -0.00000000000E+00  0.00000000000E+00  0.19994862737E+03  0.19994862737E+03  0.00000000000E+00 0. -1.
         21   -1    0    0  501  502  0.00000000000E+00 -0.00000000000E+00 -0.57715823217E+03  0.57715823217E+03  0.00000000000E+00 0. -1.
         23    2    1    2    0    0  0.37028740834E+02 -0.86961762133E+02 -0.45374280323E+02  0.13955080773E+03  0.92098463085E+02 0.  0.
         23    2    1    2    0    0 -0.76059254392E+02  0.12130716435E+02  0.83666304073E+02  0.14637399266E+03  0.92158183744E+02 0.  0.
        -13    1    3    3    0    0  0.88423363135E+01 -0.88164607600E+02 -0.60738833126E+02  0.10742621093E+03  0.00000000000E+00 0. -1.
         13    1    3    3    0    0  0.28186404521E+02  0.12028454667E+01  0.15364552802E+02  0.32124596804E+02  0.00000000000E+00 0.  1.
        -13    1    4    4    0    0 -0.71735268056E+02 -0.24296196248E+02  0.78924471039E+02  0.10938613241E+03  0.00000000000E+00 0. -1.
         13    1    4    4    0    0 -0.43239863365E+01  0.36426912683E+02  0.47418330333E+01  0.36987860251E+02  0.00000000000E+00 0.  1.
         21    1    1    2  503  502 -0.65740279114E+02  0.51218464609E+02 -0.36148016442E+03  0.37096229550E+03  0.00000000000E+00 0. -1.
          1    1    1    2  501    0  0.10477079267E+03  0.23612581090E+02 -0.54021464136E+02  0.12021976364E+03  0.00000000000E+00 0. -1.
<scales pt_clust_5="13000.00000" pt_clust_6="13000.00000" pt_clust_7="13000.00000" pt_clust_8="13000.00000" pt_clust_9="83.33736" pt_clust_10="13000.00000"></scales>
<clustering>
<clus scale="   83.337">  2  9  1 -1</clus>
<clus scale="   92.098">  5  6 -1 -1</clus>
<clus scale="   92.158">  7  8 -1 -1</clus>
<clus scale="   89.603">  7 10 -1 -1</clus>
<clus scale="  112.744">  1  5  2 -1</clus>
<clus scale="   83.337">  2  5  1 -1</clus>
</clustering>
</event>
<event>
10    2  0.4951045E-006  0.3085011E+03  0.7546771E-02  0.1110639E+00
          1   -1    0    0  503    0 -0.00000000000E+00  0.00000000000E+00  0.21284330616E+03  0.21284330616E+03  0.00000000000E+00 0. -1.
         21   -1    0    0  501  502  0.00000000000E+00 -0.00000000000E+00 -0.35290993161E+03  0.35290993161E+03  0.00000000000E+00 0. -1.
         23    2    1    2    0    0  0.95383973693E+02 -0.46961706700E+02  0.62543602573E+02  0.15444656554E+03  0.92943719802E+02 0.  0.
         23    2    1    2    0    0  0.12171252346E+02  0.60633786927E+02  0.17763112281E+02  0.11255364887E+03  0.92348255068E+02 0.  0.
        -11    1    3    3    0    0  0.87139926223E+02  0.20795454722E+01  0.57589067335E+02  0.10447100999E+03  0.00000000000E+00 0. -1.
         11    1    3    3    0    0  0.82440474701E+01 -0.49041252172E+02  0.49545352384E+01  0.49975555552E+02  0.00000000000E+00 0.  1.
        -13    1    4    4    0    0  0.19541906949E+02  0.10325831294E+02  0.48388744295E+02  0.53197551575E+02  0.00000000000E+00 0. -1.
         13    1    4    4    0    0 -0.73706546024E+01  0.50307955633E+02 -0.30625632014E+02  0.59356097290E+02  0.00000000000E+00 0.  1.
         21    1    1    2  503  502  0.24822037684E+02  0.27307266467E+02  0.17542028746E+01  0.36944520357E+02  0.00000000000E+00 0.  1.
          1    1    1    2  501    0 -0.13237726372E+03 -0.40979346694E+02 -0.22212754318E+03  0.26180850301E+03  0.00000000000E+00 0. -1.
<scales pt_clust_5="13000.00000" pt_clust_6="13000.00000" pt_clust_7="13000.00000" pt_clust_8="13000.00000" pt_clust_9="36.90287" pt_clust_10="13000.00000"></scales>
<clustering>
<clus scale="   36.903">  2  9  1 -1</clus>
<clus scale="   92.348">  7  8 -1 -1</clus>
<clus scale="   92.944">  5  6 -1 -1</clus>
<clus scale="  116.426">  7 10 -1 -1</clus>
<clus scale="  142.355">  1  5  2 -1</clus>
<clus scale="   36.903">  2  5  1 -1</clus>
</clustering>
</event>
<event>
10    2  0.4951045E-006  0.2045519E+03  0.7546771E-02  0.1171036E+00
         -3   -1    0    0    0  501 -0.00000000000E+00  0.00000000000E+00  0.57191533849E+03  0.57191533849E+03  0.00000000000E+00 0.  1.
         21   -1    0    0  503  502  0.00000000000E+00 -0.00000000000E+00 -0.10270806771E+03  0.10270806771E+03  0.00000000000E+00 0.  1.
         23    2    1    2    0    0  0.33306658071E+02 -0.57847576650E+02  0.10936780892E+03  0.15790845735E+03  0.92293486655E+02 0.  0.
         23    2    1    2    0    0 -0.15582980323E+03 -0.26489571740E+02  0.29102053701E+03  0.34377444168E+03  0.92213278918E+02 0.  0.
        -13    1    4    4    0    0 -0.12764035075E+03 -0.55384603354E+02  0.19442194005E+03  0.23908033002E+03  0.00000000000E+00 0.  1.
         13    1    4    4    0    0 -0.28189452473E+02  0.28895031614E+02  0.96598596956E+02  0.10469411166E+03  0.00000000000E+00 0. -1.
        -13    1    3    3    0    0  0.58690547869E+02 -0.14224948349E+02  0.41262286222E+02  0.73140316030E+02  0.00000000000E+00 0. -1.
         13    1    3    3    0    0 -0.25383889798E+02 -0.43622628300E+02  0.68105522698E+02  0.84768141322E+02  0.00000000000E+00 0.  1.
         21    1    1    2  503  501  0.96788721230E+02  0.79904618686E+02  0.35164423766E+02  0.13034316761E+03  0.00000000000E+00 0.  1.
         -3    1    1    2    0  502  0.25734423926E+02  0.44325297030E+01  0.33654501087E+02  0.42597339562E+02  0.00000000000E+00 0.  1.
<scales pt_clust_5="13000.00000" pt_clust_6="13000.00000" pt_clust_7="13000.00000" pt_clust_8="13000.00000" pt_clust_9="124.03027" pt_clust_10="13000.00000"></scales>
<clustering>
<clus scale="   92.213">  5  6 -1 -1</clus>
<clus scale="   26.113">  5 10 -1 -1</clus>
<clus scale="   92.293">  7  8 -1 -1</clus>
<clus scale="  113.902">  1  7  2 -1</clus>
<clus scale="  124.030">  2  9  1 -1</clus>
<clus scale="  124.030">  2  5  1 -1</clus>
</clustering>
</event>
<event>
10    2  0.4951045E-006  0.2321009E+03  0.7546771E-02  0.1159863E+00
         21   -1    0    0  503  502  0.00000000000E+00  0.00000000000E+00  0.25232421007E+03  0.25232421007E+03  0.00000000000E+00 0. -1.
          2   -1    0    0  502    0 -0.00000000000E+00 -0.00000000000E+00 -0.19061125040E+03  0.19061125040E+03  0.00000000000E+00 0. -1.
         23    2    1    2    0    0 -0.37158368468E+02 -0.18032237235E+02 -0.84515611325E+02  0.13111995911E+03  0.91343577731E+02 0.  0.
         23    2    1    2    0    0 -0.14732576877E+02 -0.13796834398E+02 -0.31118948444E+02  0.99703723121E+02  0.92547512074E+02 0.  0.
        -11    1    4    4    0    0  0.81123691338E+00  0.39175962446E+02 -0.17049470703E+02  0.42732874817E+02  0.00000000000E+00 0.  1.
         11    1    4    4    0    0 -0.15543813790E+02 -0.52972796844E+02 -0.14069477742E+02  0.56970848304E+02  0.00000000000E+00 0. -1.
        -13    1    3    3    0    0 -0.44374648408E+02  0.31913761825E+01 -0.96091364055E+02  0.10589071984E+03  0.00000000000E+00 0.  1.
         13    1    3    3    0    0  0.72162799393E+01 -0.21223613418E+02  0.11575752730E+02  0.25229239266E+02  0.00000000000E+00 0. -1.
         21    1    1    2  503  501  0.30669510873E+01 -0.33674317056E+02  0.40805647444E+02  0.52994968454E+02  0.00000000000E+00 0.  1.
          2    1    1    2  501    0  0.48823994258E+02  0.65503388690E+02  0.13654187200E+03  0.15911680978E+03  0.00000000000E+00 0. -1.
<scales pt_clust_5="13000.00000" pt_clust_6="13000.00000" pt_clust_7="13000.00000" pt_clust_8="13000.00000" pt_clust_9="33.81369" pt_clust_10="13000.00000"></scales>
<clustering>
<clus scale="   33.814">  1  9  2 -1</clus>
<clus scale="   91.344">  7  8 -1 -1</clus>
<clus scale="   92.548">  5  6 -1 -1</clus>
<clus scale="   65.631">  5 10 -1 -1</clus>
<clus scale="  100.877">  2  7  1 -1</clus>
<clus scale="   33.814">  1  5  2 -1</clus>
</clustering>
</event>
<event>
10    2  0.4951045E-006  0.4879560E+03  0.7546771E-02  0.1072034E+00
         21   -1    0    0  501  502  0.00000000000E+00  0.00000000000E+00  0.13720782984E+04  0.13720782984E+04  0.00000000000E+00 0.  1.
          2   -1    0    0  503    0 -0.00000000000E+00 -0.00000000000E+00 -0.12613462927E+03  0.12613462927E+03  0.00000000000E+00 0. -1.
         23    2    1    2    0    0 -0.12491131005E+02  0.31042014261E+02  0.34761539255E+02  0.10738306728E+03  0.95932911576E+02 0.  0.
         23    2    1    2    0    0 -0.15577311516E+03 -0.13458077964E+03  0.28776504422E+03  0.36575057858E+03  0.92668848066E+02 0.  0.
        -11    1    3    3    0    0  0.33874325640E+02 -0.13452626167E+02  0.19491403891E+02  0.41332286581E+02  0.00000000000E+00 0. -1.
         11    1    3    3    0    0 -0.46365456645E+02  0.44494640428E+02  0.15270135363E+02  0.66050780697E+02  0.00000000000E+00 0.  1.
        -13    1    4    4    0    0 -0.12401490369E+03 -0.14574003896E+03  0.23356101014E+03  0.30194469817E+03  0.00000000000E+00 0.  1.
         13    1    4    4    0    0 -0.31758211468E+02  0.11159259327E+02  0.54204034081E+02  0.63805880411E+02  0.00000000000E+00 0. -1.
         21    1    1    2  503  502 -0.15260472094E+02 -0.88370878120E+02  0.59978624649E+03  0.60645349005E+03  0.00000000000E+00 0.  1.
          2    1    1    2  501    0  0.18352471825E+03  0.19190964350E+03  0.32363083919E+03  0.41862579179E+03  0.00000000000E+00 0. -1.
<scales pt_clust_5="13000.00000" pt_clust_6="13000.00000" pt_clust_7="13000.00000" pt_clust_8="13000.00000" pt_clust_9="89.67884" pt_clust_10="13000.00000"></scales>
<clustering>
<clus scale="   89.679">  1  9  2 -1</clus>
<clus scale="   92.669">  7  8 -1 -1</clus>
<clus scale="   95.933">  5  6 -1 -1</clus>
<clus scale="   99.597">  2  5  1 -1</clus>
<clus scale="  232.956">  7 10 -1 -1</clus>
<clus scale="   89.679">  1  5  2 -1</clus>
</clustering>
</event>
<event>
10    2  0.4951045E-006  0.3247348E+03  0.7546771E-02  0.1076251E+00
          3   -1    0    0  503    0 -0.00000000000E+00  0.00000000000E+00  0.75535512927E+03  0.75535512927E+03  0.00000000000E+00 0. -1.
         21   -1    0    0  501  502  0.00000000000E+00 -0.00000000000E+00 -0.16591740992E+03  0.16591740992E+03  0.00000000000E+00 0.  1.
         23    2    1    2    0    0 -0.13059901056E+02 -0.26991196059E+03  0.88230688205E+02  0.29909214521E+03  0.92996932747E+02 0.  0.
         23    2    1    2    0    0  0.26766648080E+02  0.10448991635E+03  0.14745481463E+03  0.20350820326E+03  0.89655286328E+02 0.  0.
        -13    1    3    3    0    0  0.33046564206E+02 -0.19387547839E+03  0.55725513652E+02  0.20441406360E+03  0.00000000000E+00 0.  1.
         13    1    3    3    0    0 -0.46106465262E+02 -0.76036482200E+02  0.32505174553E+02  0.94678081608E+02  0.00000000000E+00 0. -1.
        -13    1    4    4    0    0  0.25851303216E+02  0.18964874511E+02  0.10143939771E+03  0.10638565576E+03  0.00000000000E+00 0.  1.
         13    1    4    4    0    0  0.91534486433E+00  0.85525041839E+02  0.46015416915E+02  0.97122547494E+02  0.00000000000E+00 0. -1.
         21    1    1    2  503  502 -0.26045255398E+02 -0.23032613380E+02  0.63267629051E+02  0.72191755025E+02  0.00000000000E+00 0.  1.
          3    1    1    2  501    0  0.12338508374E+02  0.18845465762E+03  0.29048458747E+03  0.34648043570E+03  0.00000000000E+00 0. -1.
<scales pt_clust_5="13000.00000" pt_clust_6="13000.00000" pt_clust_7="13000.00000" pt_clust_8="13000.00000" pt_clust_9="34.76863" pt_clust_10="13000.00000"></scales>
<clustering>
<clus scale="   34.769">  2  9  1 -1</clus>
<clus scale="   89.655">  7  8 -1 -1</clus>
<clus scale="   92.997">  5  6 -1 -1</clus>
<clus scale="  184.626">  7 10 -1 -1</clus>
<clus scale="  301.248">  1  5  2 -1</clus>
<clus scale="   34.769">  2  5  1 -1</clus>
</clustering>
</event>
<event>
10    2  0.4951045E-006  0.1699422E+03  0.7546771E-02  0.1202199E+00
          2   -1    0    0  503    0 -0.00000000000E+00  0.00000000000E+00  0.10639242637E+03  0.10639242637E+03  0.00000000000E+00 0. -1.
         21   -1    0    0  501  502  0.00000000000E+00 -0.00000000000E+00 -0.44836202677E+03  0.44836202677E+03  0.00000000000E+00 0.  1.
         23    2    1    2    0    0 -0.41951840361E+02  0.57940053381E+02 -0.58754828706E+02  0.12758287790E+03  0.87796663609E+02 0.  0.
         23    2    1    2    0    0  0.29783328376E+02  0.70517039440E+02 -0.15724800276E+03  0.19484163970E+03  0.85887313889E+02 0.  0.
        -11    1    4    4    0    0  0.18304500809E+02  0.10743199916E+02  0.47823036622E+01  0.21756413368E+02  0.00000000000E+00 0. -1.
         11    1    4    4    0    0  0.11478827567E+02  0.59773839524E+02 -0.16203030643E+03  0.17308522633E+03  0.00000000000E+00 0.  1.
        -11    1    3    3    0    0 -0.17016862416E+02 -0.12514559115E+02 -0.47523916320E+02  0.52006830501E+02  0.00000000000E+00 0.  1.
         11    1    3    3    0    0 -0.24934977945E+02  0.70454612496E+02 -0.11230912385E+02  0.75576047396E+02  0.00000000000E+00 0. -1.
         21    1    1    2  503  502  0.47943032035E+02 -0.95257844315E+02 -0.10726171083E+02  0.10718041785E+03  0.00000000000E+00 0. -1.
          2    1    1    2  501    0 -0.35774520051E+02 -0.33199248506E+02 -0.11524059784E+03  0.12514951769E+03  0.00000000000E+00 0. -1.
<scales pt_clust_5="13000.00000" pt_clust_6="13000.00000" pt_clust_7="13000.00000" pt_clust_8="13000.00000" pt_clust_9="106.64241" pt_clust_10="13000.00000"></scales>
<clustering>
<clus scale="   85.887">  5  6 -1 -1</clus>
<clus scale="   48.806">  5 10 -1 -1</clus>
<clus scale="   87.797">  7  8 -1 -1</clus>
<clus scale="  106.642">  2  9  1 -1</clus>
<clus scale="   99.362">  1  7  2 -1</clus>
<clus scale="  106.642">  2  5  1 -1</clus>
</clustering>
</event>
<event>
10    2  0.4951045E-006  0.3012819E+03  0.7546771E-02  0.1096862E+00
         21   -1    0    0  503  502  0.00000000000E+00  0.00000000000E+00  0.15344874441E+03  0.15344874441E+03  0.00000000000E+00 0. -1.
          1   -1    0    0  502    0 -0.00000000000E+00 -0.00000000000E+00 -0.63713300005E+03  0.63713300005E+03  0.00000000000E+00 0. -1.
         23    2    1    2    0    0  0.34492788037E+02 -0.17407990261E+03 -0.43817652949E+02  0.20427305661E+03  0.91180754698E+02 0.  0.
         23    2    1    2    0    0 -0.25166429867E+02 -0.13821868452E+02 -0.13164629312E+03  0.16049965332E+03  0.87206645300E+02 0.  0.
        -11    1    3    3    0    0  0.52658929160E+02 -0.46907768134E+02 -0.84212250534E+01  0.71022662320E+02  0.00000000000E+00 0.  1.
         11    1    3    3    0    0 -0.18166141123E+02 -0.12717213448E+03 -0.35396427896E+02  0.13325039429E+03  0.00000000000E+00 0. -1.
        -13    1    4    4    0    0  0.26823640173E+02 -0.94810500909E+01 -0.87981985156E+02  0.92467441270E+02  0.00000000000E+00 0. -1.
         13    1    4    4    0    0 -0.51990070039E+02 -0.43408183614E+01 -0.43664307964E+02  0.68032212052E+02  0.00000000000E+00 0.  1.
         21    1    1    2  503  501  0.30499447415E+02 -0.26497220232E+02  0.84909808556E+01  0.41284570103E+02  0.00000000000E+00 0. -1.
          1    1    1    2  501    0 -0.39825805585E+02  0.21439899130E+03 -0.31671129043E+03  0.38452446443E+03  0.00000000000E+00 0. -1.
<scales pt_clust_5="13000.00000" pt_clust_6="13000.00000" pt_clust_7="13000.00000" pt_clust_8="13000.00000" pt_clust_9="40.40197" pt_clust_10="13000.00000"></scales>
<clustering>
<clus scale="   40.402">  1  9  2 -1</clus>
<clus scale="   87.207">  7  8 -1 -1</clus>
<clus scale="   91.181">  5  6 -1 -1</clus>
<clus scale="  209.832">  7 10 -1 -1</clus>
<clus scale="  217.975">  2  5  1 -1</clus>
<clus scale="   40.402">  1  5  2 -1</clus>
</clustering>
</event>
<event>
10    2  0.4951045E-006  0.1999685E+03  0.7546771E-02  0.1174370E+00
         21   -1    0    0  501  502  0.00000000000E+00  0.00000000000E+00  0.59527109653E+02  0.59527109653E+02  0.00000000000E+00 0.  1.
          1   -1    0    0  503    0 -0.00000000000E+00 -0.00000000000E+00 -0.72171788487E+03  0.72171788487E+03  0.00000000000E+00 0. -1.
         23    2    1    2    0    0  0.28610918764E+02  0.45452835571E+02 -0.92535858668E+02  0.14060865721E+03  0.91232474525E+02 0.  0.
         23    2    1    2    0    0  0.20515222152E+02 -0.54190276979E+02 -0.39278309742E+03  0.40682049985E+03  0.88695529878E+02 0.  0.
        -11    1    4    4    0    0  0.43410172101E+02  0.20694037802E+01 -0.12860499763E+03  0.13574966258E+03  0.00000000000E+00 0.  1.
         11    1    4    4    0    0 -0.22894949949E+02 -0.56259680760E+02 -0.26417809979E+03  0.27107083728E+03  0.00000000000E+00 0. -1.
        -11    1    3    3    0    0 -0.28251965727E+02 -0.47844637260E+01 -0.35860060746E+02  0.45902163536E+02  0.00000000000E+00 0. -1.
         11    1    3    3    0    0  0.56862884490E+02  0.50237299297E+02 -0.56675797922E+02  0.94706493670E+02  0.00000000000E+00 0.  1.
         21    1    1    2  503  502  0.39292857790E+02 -0.45887700629E+01 -0.47378278210E+01  0.39842596508E+02  0.00000000000E+00 0. -1.
          1    1    1    2  501    0 -0.88418998706E+02  0.13326211471E+02 -0.17213399131E+03  0.19397324096E+03  0.00000000000E+00 0. -1.
<scales pt_clust_5="13000.00000" pt_clust_6="13000.00000" pt_clust_7="13000.00000" pt_clust_8="13000.00000" pt_clust_9="39.55990" pt_clust_10="13000.00000"></scales>
<clustering>
<clus scale="   39.560">  1  9  2 -1</clus>
<clus scale="   88.696">  5  6 -1 -1</clus>
<clus scale="   79.133">  5 10 -1 -1</clus>
<clus scale="   91.232">  7  8 -1 -1</clus>
<clus scale="  113.003">  2  7  1 -1</clus>
<clus scale="   39.560">  1  5  2 -1</clus>
</clustering>
</event>
<event>
10    2  0.4951045E-006  0.3434153E+03  0.7546771E-02  0.1109172E+00
         21   -1    0    0  503  502  0.00000000000E+00  0.00000000000E+00  0.62471991517E+03  0.62471991517E+03  0.00000000000E+00 0.  1.
         -1   -1    0    0    0  501 -0.00000000000E+00 -0.00000000000E+00 -0.10241180350E+04  0.10241180350E+04  0.00000000000E+00 0.  1.
         23    2    1    2    0    0  0.77577952121E+02  0.25631628309E+01 -0.56891045764E+02  0.12129912296E+03  0.73837508655E+02 0.  0.
         23    2    1    2    0    0 -0.62455703663E+02 -0.59085256852E+01 -0.24791796152E+03  0.27024413973E+03  0.87366777524E+02 0.  0.
        -11    1    4    4    0    0  0.98218834772E+01 -0.28286510573E+02 -0.95416885272E+02  0.10000489023E+03  0.00000000000E+00 0. -1.
         11    1    4    4    0    0 -0.72277587140E+02  0.22377984888E+02 -0.15250107625E+03  0.17023924949E+03  0.00000000000E+00 0.  1.
        -13    1    3    3    0    0  0.44595686650E+02 -0.25168146788E+02 -0.59041322253E+02  0.78154261649E+02  0.00000000000E+00 0.  1.
         13    1    3    3    0    0  0.32982265470E+02  0.27731309619E+02  0.21502764888E+01  0.43144861313E+02  0.00000000000E+00 0. -1.
         21    1    1    2  503  501 -0.50713821436E+02 -0.22475919265E+03  0.53726388521E+03  0.58458623720E+03  0.00000000000E+00 0.  1.
         -1    1    1    2    0  502  0.35591572978E+02  0.22810455550E+03 -0.63185299775E+03  0.67270845028E+03  0.00000000000E+00 0.  1.
<scales pt_clust_5="13000.00000" pt_clust_6="13000.00000" pt_clust_7="13000.00000" pt_clust_8="13000.00000" pt_clust_9="229.92210" pt_clust_10="13000.00000"></scales>
<clustering>
<clus scale="   73.838">  7  8 -1 -1</clus>
<clus scale="   87.367">  5  6 -1 -1</clus>
<clus scale="  107.130">  2  7  1 -1</clus>
<clus scale="  229.922">  1  9  2 -1</clus>
<clus scale="  112.583">  5 10 -1 -1</clus>
<clus scale="  229.922">  1  5  2 -1</clus>
</clustering>
</event>
<event>
10    2  0.4951045E-006  0.6045570E+03  0.7546771E-02  0.1007222E+00
          2   -1    0    0  503    0 -0.00000000000E+00  0.00000000000E+00  0.96284595047E+03  0.96284595047E+03  0.00000000000E+00 0. -1.
         21   -1    0    0  501  502  0.00000000000E+00 -0.00000000000E+00 -0.31728777957E+03  0.31728777957E+03  0.00000000000E+00 0. -1.
         23    2    1    2    0    0  0.31706065757E+03 -0.13854025407E+03  0.43372670148E+03  0.56205318204E+03  0.89800140811E+02 0.  0.
         23    2    1    2    0    0  0.14137699902E+03  0.90335293742E+02  0.19531974320E+02  0.19221575420E+03  0.91746809184E+02 0.  0.
        -11    1    3    3    0    0  0.15456935463E+03 -0.95812325987E+02  0.28267448918E+03  0.33611985070E+03  0.00000000000E+00 0.  1.
         11    1    3    3    0    0  0.16249130294E+03 -0.42727928079E+02  0.15105221230E+03  0.22593333134E+03  0.00000000000E+00 0. -1.
        -13    1    4    4    0    0  0.32999309767E+02  0.80674499407E+01  0.42306786082E+02  0.54257739929E+02  0.00000000000E+00 0.  1.
         13    1    4    4    0    0  0.10837768925E+03  0.82267843801E+02 -0.22774811762E+02  0.13795801427E+03  0.00000000000E+00 0. -1.
         21    1    1    2  503  502 -0.81075821982E+02 -0.53987123301E+02  0.24620823976E+02  0.10046931554E+03  0.00000000000E+00 0.  1.
          2    1    1    2  501    0 -0.37736183460E+03  0.10219208363E+03  0.16767867113E+03  0.42539547826E+03  0.00000000000E+00 0. -1.
<scales pt_clust_5="13000.00000" pt_clust_6="13000.00000" pt_clust_7="13000.00000" pt_clust_8="13000.00000" pt_clust_9="97.40584" pt_clust_10="13000.00000"></scales>
<clustering>
<clus scale="   89.800">  5  6 -1 -1</clus>
<clus scale="   91.747">  7  8 -1 -1</clus>
<clus scale="   97.406">  2  9  1 -1</clus>
<clus scale="  346.285">  1  5  2 -1</clus>
<clus scale="  191.632">  7 10 -1 -1</clus>
<clus scale="   97.406">  2  5  1 -1</clus>
</clustering>
</event>
<event>
10    2  0.4951045E-006  0.3094264E+03  0.7546771E-02  0.1107452E+00
         21   -1    0    0  501  502  0.00000000000E+00  0.00000000000E+00  0.42235268361E+03  0.42235268361E+03  0.00000000000E+00 0. -1.
          1   -1    0    0  503    0 -0.00000000000E+00 -0.00000000000E+00 -0.19465420137E+03  0.19465420137E+03  0.00000000000E+00 0. -1.
         23    2    1    2    0    0  0.66526399543E+01  0.13389889102E+03  0.40928491673E+02  0.16697867099E+03  0.90738991073E+02 0.  0.
         23    2    1    2    0    0  0.17921125779E+02 -0.75547922972E+02 -0.24256445944E+02  0.13377102239E+03  0.10619630807E+03 0.  0.
        -11    1    3    3    0    0 -0.97806045918E+01  0.41495322933E+02  0.57595019166E+02  0.71656878834E+02  0.00000000000E+00 0.  1.
         11    1    3    3    0    0  0.16433244546E+02  0.92403568087E+02 -0.16666527493E+02  0.95321792158E+02  0.00000000000E+00 0. -1.
        -13    1    4    4    0    0  0.50817859647E+02 -0.12566777847E+02 -0.33450854389E+02  0.62123573818E+02  0.00000000000E+00 0.  1.
         13    1    4    4    0    0 -0.32896733868E+02 -0.62981145126E+02  0.91944084448E+01  0.71647448574E+02  0.00000000000E+00 0. -1.
         21    1    1    2  503  502 -0.69957536516E+02 -0.42128844970E+02 -0.16812912129E+02  0.83376078753E+02  0.00000000000E+00 0. -1.
          1    1    1    2  501    0  0.45383770783E+02 -0.16222123078E+02  0.22783934864E+03  0.23288111284E+03  0.00000000000E+00 0. -1.
<scales pt_clust_5="13000.00000" pt_clust_6="13000.00000" pt_clust_7="13000.00000" pt_clust_8="13000.00000" pt_clust_9="81.66335" pt_clust_10="13000.00000"></scales>
<clustering>
<clus scale="   81.663">  1  9  2 -1</clus>
<clus scale="   90.739">  5  6 -1 -1</clus>
<clus scale="  106.196">  7  8 -1 -1</clus>
<clus scale="   41.356">  7 10 -1 -1</clus>
<clus scale="  153.035">  2  5  1 -1</clus>
<clus scale="   81.663">  1  5  2 -1</clus>
</clustering>
</event>
<event>
10    2  0.4951045E-006  0.1559314E+03  0.7546771E-02  0.1206076E+00
         21   -1    0    0  503  502  0.00000000000E+00  0.00000000000E+00  0.53389305950E+03  0.53389305950E+03  0.00000000000E+00 0.  1.
          1   -1    0    0  502    0 -0.00000000000E+00 -0.00000000000E+00 -0.83316624183E+02  0.83316624183E+02  0.00000000000E+00 0. -1.
         23    2    1    2    0    0  0.85321422884E+01 -0.77277451535E+02  0.19194127605E+03  0.22560041468E+03  0.89495763495E+02 0.  0.
         23    2    1    2    0    0  0.36329094617E+02  0.27968586454E+02 -0.62969102465E+01  0.10135496057E+03  0.90172789737E+02 0.  0.
        -11    1    3    3    0    0  0.29223483585E+02 -0.84493443361E+02  0.11537950980E+03  0.14596432868E+03  0.00000000000E+00 0.  1.
         11    1    3    3    0    0 -0.20691341297E+02  0.72159918259E+01  0.76561766247E+02  0.79636086001E+02  0.00000000000E+00 0. -1.
        -13    1    4    4    0    0 -0.24789755545E+02  0.27097757967E+02 -0.14887862452E+02  0.39629142247E+02  0.00000000000E+00 0. -1.
         13    1    4    4    0    0  0.61118850163E+02  0.87082848716E+00  0.85909522051E+01  0.61725818320E+02  0.00000000000E+00 0.  1.
         21    1    1    2  503  501 -0.41633502441E+02  0.36880321934E+01  0.22705874441E+03  0.23087360941E+03  0.00000000000E+00 0.  1.
          1    1    1    2  501    0 -0.32277344646E+01  0.45620832887E+02  0.37873325101E+02  0.59380699030E+02  0.00000000000E+00 0. -1.
<scales pt_clust_5="13000.00000" pt_clust_6="13000.00000" pt_clust_7="13000.00000" pt_clust_8="13000.00000" pt_clust_9="41.79653" pt_clust_10="13000.00000"></scales>
<clustering>
<clus scale="   41.797">  1  9  2 -1</clus>
<clus scale="   89.496">  5  6 -1 -1</clus>
<clus scale="   90.173">  7  8 -1 -1</clus>
<clus scale="   47.251">  7 10 -1 -1</clus>
<clus scale="  118.306">  2  5  1 -1</clus>
<clus scale="   41.797">  1  5  2 -1</clus>
</clustering>
</event>
<event>
10    2  0.4951045E-006  0.2608953E+03  0.7546771E-02  0.1149001E+00
          1   -1    0    0  503    0 -0.00000000000E+00  0.00000000000E+00  0.11764630714E+03  0.11764630714E+03  0.00000000000E+00 0. -1.
         21   -1    0    0  501  502  0.00000000000E+00 -0.00000000000E+00 -0.38618724270E+03  0.38618724270E+03  0.00000000000E+00 0. -1.
         23    2    1    2    0    0 -0.60968557867E+01  0.44098630689E+01 -0.75303456472E+02  0.11874063030E+03  0.91499225053E+02 0.  0.
         23    2    1    2    0    0 -0.11521284577E+03 -0.24554992277E+02 -0.10943038610E+03  0.19026048365E+03  0.10172067026E+03 0.  0.
        -11    1    4    4    0    0 -0.20942542108E+02  0.28975164807E+02 -0.62769279983E+02  0.72236644130E+02  0.00000000000E+00 0.  1.
         11    1    4    4    0    0 -0.94270303666E+02 -0.53530157084E+02 -0.46661106119E+02  0.11802383952E+03  0.00000000000E+00 0. -1.
        -11    1    3    3    0    0  0.63885325573E+01 -0.42400076169E+02 -0.41451226151E+02  0.59638778968E+02  0.00000000000E+00 0. -1.
         11    1    3    3    0    0 -0.12485388344E+02  0.46809939238E+02 -0.33852230321E+02  0.59101851335E+02  0.00000000000E+00 0.  1.
         21    1    1    2  503  502  0.30501352476E+02 -0.37809634264E+02  0.12687585375E+02  0.50208323700E+02  0.00000000000E+00 0.  1.
          1    1    1    2  501    0  0.90808349085E+02  0.57954763473E+02 -0.96494678358E+02  0.14462411218E+03  0.00000000000E+00 0. -1.
<scales pt_clust_5="13000.00000" pt_clust_6="13000.00000" pt_clust_7="13000.00000" pt_clust_8="13000.00000" pt_clust_9="48.57884" pt_clust_10="13000.00000"></scales>
<clustering>
<clus scale="   48.579">  2  9  1 -1</clus>
<clus scale="   91.499">  7  8 -1 -1</clus>
<clus scale="   91.690">  1  7  2 -1</clus>
<clus scale="  101.721">  5  6 -1 -1</clus>
<clus scale="  110.443">  5 10 -1 -1</clus>
<clus scale="   48.579">  2  5  1 -1</clus>
</clustering>
</event>
<event>
10    2  0.4951045E-006  0.1572667E+03  0.7546771E-02  0.1213532E+00
         21   -1    0    0  503  502  0.00000000000E+00  0.00000000000E+00  0.17011687268E+03  0.17011687268E+03  0.00000000000E+00 0.  1.
          1   -1    0    0  502    0 -0.00000000000E+00 -0.00000000000E+00 -0.18336447515E+03  0.18336447515E+03  0.00000000000E+00 0. -1.
         23    2    1    2    0    0  0.25971786695E+02  0.40176889623E+02 -0.60681624583E+02  0.11868745236E+03  0.90087377700E+02 0.  0.
         23    2    1    2    0    0  0.10563212365E+02 -0.14299787604E+02 -0.37286774826E+02  0.10105315723E+03  0.92224571716E+02 0.  0.
        -11    1    4    4    0    0  0.49652048277E+02 -0.21580583118E+02 -0.20410401520E+02  0.57858724113E+02  0.00000000000E+00 0. -1.
         11    1    4    4    0    0 -0.39088835912E+02  0.72807955142E+01 -0.16876373306E+02  0.43194433116E+02  0.00000000000E+00 0.  1.
        -11    1    3    3    0    0  0.23967392655E+02  0.67333316275E+02 -0.56566165177E+02  0.91147915139E+02  0.00000000000E+00 0. -1.
         11    1    3    3    0    0  0.20043940397E+01 -0.27156426653E+02 -0.41154594069E+01  0.27539537217E+02  0.00000000000E+00 0.  1.
         21    1    1    2  503  501  0.10218988823E+02 -0.46403175162E+02  0.61314718059E+02  0.77570465051E+02  0.00000000000E+00 0.  1.
          1    1    1    2  501    0 -0.46753987883E+02  0.20526073143E+02  0.23406078880E+02  0.56170273189E+02  0.00000000000E+00 0. -1.
<scales pt_clust_5="13000.00000" pt_clust_6="13000.00000" pt_clust_7="13000.00000" pt_clust_8="13000.00000" pt_clust_9="47.51508" pt_clust_10="13000.00000"></scales>
<clustering>
<clus scale="   47.515">  1  9  2 -1</clus>
<clus scale="   90.087">  7  8 -1 -1</clus>
<clus scale="   92.225">  5  6 -1 -1</clus>
<clus scale="   42.771">  5 10 -1 -1</clus>
<clus scale="   98.339">  2  7  1 -1</clus>
<clus scale="   47.515">  1  5  2 -1</clus>
</clustering>
</event>
<event>
10    2  0.4951045E-006  0.1922731E+03  0.7546771E-02  0.1181958E+00
         21   -1    0    0  503  502  0.00000000000E+00  0.00000000000E+00  0.21153753661E+03  0.21153753661E+03  0.00000000000E+00 0. -1.
         -3   -1    0    0    0  501 -0.00000000000E+00 -0.00000000000E+00 -0.30518897979E+03  0.30518897979E+03  0.00000000000E+00 0.  1.
         23    2    1    2    0    0  0.11778507178E+02  0.45034074020E+02 -0.96513198853E+02  0.14254963936E+03  0.94014898147E+02 0.  0.
         23    2    1    2    0    0 -0.15561201568E+02 -0.34381151140E+02 -0.16033845395E+03  0.19697233543E+03  0.10800678941E+03 0.  0.
        -11    1    4    4    0    0  0.45652793542E+02 -0.19467679882E+02 -0.53779050775E+02  0.73180287103E+02  0.00000000000E+00 0. -1.
         11    1    4    4    0    0 -0.61213995110E+02 -0.14913471257E+02 -0.10655940318E+03  0.12379204832E+03  0.00000000000E+00 0.  1.
        -11    1    3    3    0    0 -0.14055892662E+02  0.66177174792E+02 -0.81569056954E+02  0.10597404227E+03  0.00000000000E+00 0.  1.
         11    1    3    3    0    0  0.25834399840E+02 -0.21143100772E+02 -0.14944141899E+02  0.36575597089E+02  0.00000000000E+00 0. -1.
         21    1    1    2  503  501  0.24215268497E+02  0.85095963071E+01  0.13513775535E+03  0.13755364546E+03  0.00000000000E+00 0. -1.
         -3    1    1    2    0  502 -0.20432574107E+02 -0.19162519188E+02  0.28062454279E+02  0.39650896162E+02  0.00000000000E+00 0.  1.
<scales pt_clust_5="13000.00000" pt_clust_6="13000.00000" pt_clust_7="13000.00000" pt_clust_8="13000.00000" pt_clust_9="25.66695" pt_clust_10="13000.00000"></scales>
<clustering>
<clus scale="   25.667">  1  9  2 -1</clus>
<clus scale="   94.015">  7  8 -1 -1</clus>
<clus scale="  107.129">  2  7  1 -1</clus>
<clus scale="  108.007">  5  6 -1 -1</clus>
<clus scale="   16.973">  5 10 -1 -1</clus>
<clus scale="   25.667">  1  5  2 -1</clus>
</clustering>
</event>
<event>
10    2  0.4951045E-006  0.4039727E+03  0.7546771E-02  0.1070869E+00
         21   -1    0    0  503  502  0.00000000000E+00  0.00000000000E+00  0.23155585461E+03  0.23155585461E+03  0.00000000000E+00 0. -1.
          2   -1    0    0  502    0 -0.00000000000E+00 -0.00000000000E+00 -0.13157218473E+04  0.13157218473E+04  0.00000000000E+00 0. -1.
         23    2    1    2    0    0 -0.75652343219E+02  0.13115939472E+03 -0.58219470061E+03  0.60859918528E+03  0.92283449483E+02 0.  0.
         23    2    1    2    0    0 -0.21611214253E+02 -0.34014190938E+01 -0.51986595543E+03  0.53359180261E+03  0.11824121938E+03 0.  0.
        -11    1    4    4    0    0 -0.22511195792E+02  0.54321264427E+02 -0.19635441827E+03  0.20496978138E+03  0.00000000000E+00 0.  1.
         11    1    4    4    0    0  0.89998153907E+00 -0.57722683521E+02 -0.32351153716E+03  0.32862202123E+03  0.00000000000E+00 0. -1.
        -13    1    3    3    0    0 -0.67323613472E+02  0.52703167820E+02 -0.41510962053E+03  0.42382318234E+03  0.00000000000E+00 0.  1.
         13    1    3    3    0    0 -0.83287297477E+01  0.78456226903E+02 -0.16708508008E+03  0.18477600294E+03  0.00000000000E+00 0. -1.
         21    1    1    2  503  501  0.83677368841E+02  0.71572383073E+02  0.13444669667E+03  0.17378268706E+03  0.00000000000E+00 0. -1.
          2    1    1    2  501    0  0.13586188631E+02 -0.19933035870E+03 -0.11655203336E+03  0.23130402699E+03  0.00000000000E+00 0. -1.
<scales pt_clust_5="13000.00000" pt_clust_6="13000.00000" pt_clust_7="13000.00000" pt_clust_8="13000.00000" pt_clust_9="110.11134" pt_clust_10="13000.00000"></scales>
<clustering>
<clus scale="   92.283">  7  8 -1 -1</clus>
<clus scale="  110.111">  1  9  2 -1</clus>
<clus scale="  118.241">  5  6 -1 -1</clus>
<clus scale="  164.673">  5 10 -1 -1</clus>
<clus scale="  181.210">  2  7  1 -1</clus>
<clus scale="  110.111">  1  5  2 -1</clus>
</clustering>
</event>
<event>
10    2  0.4951045E-006  0.1770618E+03  0.7546771E-02  0.1194838E+00
         21   -1    0    0  501  502  0.00000000000E+00  0.00000000000E+00  0.69781167290E+02  0.69781167290E+02  0.00000000000E+00 0.  1.
         -1   -1    0    0    0  501 -0.00000000000E+00 -0.00000000000E+00 -0.62921055262E+03  0.62921055262E+03  0.00000000000E+00 0.  1.
         23    2    1    2    0    0  0.46832963709E+02  0.30177467074E+02 -0.26585791013E+02  0.11297519348E+03  0.94618095776E+02 0.  0.
         23    2    1    2    0    0 -0.27811092219E+02 -0.75408025954E+02 -0.45266201603E+03  0.46964457749E+03  0.95933837521E+02 0.  0.
        -11    1    3    3    0    0  0.50208389757E+02  0.59610396228E+02 -0.88308171635E+01  0.78436375951E+02  0.00000000000E+00 0.  1.
         11    1    3    3    0    0 -0.33754260482E+01 -0.29432929154E+02 -0.17754973850E+02  0.34538817525E+02  0.00000000000E+00 0. -1.
        -11    1    4    4    0    0 -0.31496604718E+01 -0.92152203063E+02 -0.38163902131E+03  0.39261977978E+03  0.00000000000E+00 0.  1.
         11    1    4    4    0    0 -0.24661431747E+02  0.16744177110E+02 -0.71022994719E+02  0.77024797707E+02  0.00000000000E+00 0. -1.
         21    1    1    2  503  502 -0.37024372652E+02  0.81062772923E+01 -0.18530827746E+02  0.42188949723E+02  0.00000000000E+00 0.  1.
         -1    1    1    2    0  503  0.18002501162E+02  0.37124281587E+02 -0.61650750547E+02  0.74182999228E+02  0.00000000000E+00 0.  1.
<scales pt_clust_5="13000.00000" pt_clust_6="13000.00000" pt_clust_7="13000.00000" pt_clust_8="13000.00000" pt_clust_9="37.90140" pt_clust_10="13000.00000"></scales>
<clustering>
<clus scale="   37.901">  1  9  2 -1</clus>
<clus scale="   94.618">  5  6 -1 -1</clus>
<clus scale="   95.934">  7  8 -1 -1</clus>
<clus scale="   40.497">  7 10 -1 -1</clus>
<clus scale="  103.124">  2  5  1 -1</clus>
<clus scale="   37.901">  1  5  2 -1</clus>
</clustering>
</event>
<event>
10    2  0.4951045E-006  0.2238609E+03  0.7546771E-02  0.1149712E+00
          3   -1    0    0  503    0 -0.00000000000E+00  0.00000000000E+00  0.41023385518E+03  0.41023385518E+03  0.00000000000E+00 0. -1.
         21   -1    0    0  501  502  0.00000000000E+00 -0.00000000000E+00 -0.13731831704E+03  0.13731831704E+03  0.00000000000E+00 0. -1.
         23    2    1    2    0    0  0.71118363802E+02  0.73422467527E+02  0.13542209530E+03  0.19243867703E+03  0.90800991819E+02 0.  0.
         23    2    1    2    0    0  0.17994672764E+00 -0.75515790083E+01  0.14458181385E+03  0.16982073562E+03  0.88758788990E+02 0.  0.
        -11    1    3    3    0    0  0.56803557130E+02  0.89766622066E+02  0.13352828576E+03  0.17062969741E+03  0.00000000000E+00 0. -1.
         11    1    3    3    0    0  0.14314806673E+02 -0.16344154539E+02  0.18938095381E+01  0.21808979624E+02  0.00000000000E+00 0.  1.
        -13    1    4    4    0    0 -0.57900800038E+01 -0.47895212111E+02  0.75430773584E+02  0.89539253811E+02  0.00000000000E+00 0.  1.
         13    1    4    4    0    0  0.59700267314E+01  0.40343633102E+02  0.69151040265E+02  0.80281481805E+02  0.00000000000E+00 0. -1.
         21    1    1    2  503  502  0.24823903037E+02  0.78895152899E+01 -0.50309973467E+02  0.56653014428E+02  0.00000000000E+00 0. -1.
          3    1    1    2  501    0 -0.96122213567E+02 -0.73760403808E+02  0.43221602470E+02  0.12863974515E+03  0.00000000000E+00 0. -1.
<scales pt_clust_5="13000.00000" pt_clust_6="13000.00000" pt_clust_7="13000.00000" pt_clust_8="13000.00000" pt_clust_9="26.04747" pt_clust_10="13000.00000"></scales>
<clustering>
<clus scale="   26.047">  2  9  1 -1</clus>
<clus scale="   88.759">  7  8 -1 -1</clus>
<clus scale="   90.801">  5  6 -1 -1</clus>
<clus scale="  108.776">  7 10 -1 -1</clus>
<clus scale="  142.711">  1  5  2 -1</clus>
<clus scale="   26.047">  2  5  1 -1</clus>
</clustering>
</event>
<event>
10    2  0.4951045E-006  0.5533942E+03  0.7546771E-02  0.1053477E+00
          2   -1    0    0  503    0 -0.00000000000E+00  0.00000000000E+00  0.25037386252E+03  0.25037386252E+03  0.00000000000E+00 0. -1.
         21   -1    0    0  501  502  0.00000000000E+00 -0.00000000000E+00 -0.17035209735E+04  0.17035209735E+04  0.00000000000E+00 0. -1.
         23    2    1    2    0    0  0.65641256581E+02  0.18567579379E+02 -0.62511596209E+02  0.13041795422E+03  0.91910900082E+02 0.  0.
         23    2    1    2    0    0  0.12224657127E+02  0.26272371220E+02  0.15616320179E+03  0.17914256617E+03  0.82857912659E+02 0.  0.
        -11    1    3    3    0    0  0.15862024797E+02 -0.14433262939E+02 -0.67171407923E+02  0.70511849728E+02  0.00000000000E+00 0.  1.
         11    1    3    3    0    0  0.49779231784E+02  0.33000842318E+02  0.46598117142E+01  0.59906104496E+02  0.00000000000E+00 0. -1.
        -11    1    4    4    0    0  0.43037921406E+02  0.11335920838E+02  0.46972380251E+02  0.64708347890E+02  0.00000000000E+00 0. -1.
         11    1    4    4    0    0 -0.30813264280E+02  0.14936450382E+02  0.10919082154E+03  0.11443421828E+03  0.00000000000E+00 0.  1.
         21    1    1    2  503  502  0.17331181633E+03 -0.69992026994E+02 -0.12050729147E+04  0.12194821029E+04  0.00000000000E+00 0. -1.
          2    1    1    2  501    0 -0.25117773004E+03  0.25152076395E+02 -0.34172580184E+03  0.42485221272E+03  0.00000000000E+00 0. -1.
<scales pt_clust_5="13000.00000" pt_clust_6="13000.00000" pt_clust_7="13000.00000" pt_clust_8="13000.00000" pt_clust_9="188.71125" pt_clust_10="13000.00000"></scales>
<clustering>
<clus scale="   82.858">  7  8 -1 -1</clus>
<clus scale="   91.911">  5  6 -1 -1</clus>
<clus scale="  114.460">  1  5  2 -1</clus>
<clus scale="  188.711">  2  9  1 -1</clus>
<clus scale="  106.075">  7 10 -1 -1</clus>
<clus scale="  188.711">  2  5  1 -1</clus>
</clustering>
</event>
<event>
10    2  0.4951045E-006  0.2311518E+03  0.7546771E-02  0.1162440E+00
          1   -1    0    0  503    0 -0.00000000000E+00  0.00000000000E+00  0.50215539615E+03  0.50215539615E+03  0.00000000000E+00 0. -1.
         21   -1    0    0  501  502  0.00000000000E+00 -0.00000000000E+00 -0.95461821771E+02  0.95461821771E+02  0.00000000000E+00 0.  1.
         23    2    1    2    0    0  0.48097378676E+01  0.48858568137E+01  0.15166843712E+03  0.17931943908E+03  0.95420863754E+02 0.  0.
         23    2    1    2    0    0  0.53938239875E+02 -0.35301151492E+02  0.24705315630E+03  0.27091107089E+03  0.90565121750E+02 0.  0.
        -13    1    4    4    0    0  0.63816499786E+02 -0.55868093528E+02  0.16211611920E+03  0.18296290779E+03  0.00000000000E+00 0.  1.
         13    1    4    4    0    0 -0.98782599111E+01  0.20566942036E+02  0.84937037091E+02  0.87948163104E+02  0.00000000000E+00 0. -1.
        -13    1    3    3    0    0 -0.31348704353E+02 -0.24571145151E+02  0.10921885586E+03  0.11625506833E+03  0.00000000000E+00 0. -1.
         13    1    3    3    0    0  0.36158442220E+02  0.29457001965E+02  0.42449581259E+02  0.63064370746E+02  0.00000000000E+00 0.  1.
         21    1    1    2  503  502  0.26534262126E+02 -0.41830444565E+01 -0.36381317215E+02  0.45223502405E+02  0.00000000000E+00 0. -1.
          1    1    1    2  501    0 -0.85282239868E+02  0.34598339135E+02  0.44353298183E+02  0.10216320555E+03  0.00000000000E+00 0. -1.
<scales pt_clust_5="13000.00000" pt_clust_6="13000.00000" pt_clust_7="13000.00000" pt_clust_8="13000.00000" pt_clust_9="26.86196" pt_clust_10="13000.00000"></scales>
<clustering>
<clus scale="   26.862">  2  9  1 -1</clus>
<clus scale="   90.565">  5  6 -1 -1</clus>
<clus scale="   78.266">  5 10 -1 -1</clus>
<clus scale="   95.421">  7  8 -1 -1</clus>
<clus scale="   96.190">  1  7  2 -1</clus>
<clus scale="   26.862">  2  5  1 -1</clus>
</clustering>
</event>
<event>
10    2  0.4951045E-006  0.2002039E+03  0.7546771E-02  0.1174059E+00
          1   -1    0    0  502    0 -0.00000000000E+00  0.00000000000E+00  0.64645159725E+03  0.64645159725E+03  0.00000000000E+00 0. -1.
         21   -1    0    0  503  502  0.00000000000E+00 -0.00000000000E+00 -0.70945047148E+02  0.70945047148E+02  0.00000000000E+00 0.  1.
         23    2    1    2    0    0  0.48975118036E+02  0.51495967987E+02  0.45143211575E+03  0.46581379652E+03  0.90228271591E+02 0.  0.
         23    2    1    2    0    0 -0.79574232724E+02  0.38053172272E+01  0.29780983503E+02  0.12466756214E+03  0.91151276011E+02 0.  0.
        -11    1    4    4    0    0 -0.34661947503E+01 -0.30789399136E+02  0.26875029803E+02  0.41015470644E+02  0.00000000000E+00 0. -1.
         11    1    4    4    0    0 -0.76108037974E+02  0.34594716364E+02  0.29059536995E+01  0.83652091495E+02  0.00000000000E+00 0.  1.
        -13    1    3    3    0    0  0.73714722433E+02  0.51617031361E+02  0.36273563609E+03  0.37373161483E+03  0.00000000000E+00 0. -1.
         13    1    3    3    0    0 -0.24739604397E+02 -0.12106337452E+00  0.88696479657E+02  0.92082181694E+02  0.00000000000E+00 0.  1.
         21    1    1    2  503  501 -0.78259955713E+01 -0.20584494485E+02  0.33695243820E+01  0.22278270006E+02  0.00000000000E+00 0.  1.
          1    1    1    2  501    0  0.38425110260E+02 -0.34716790728E+02  0.90923926464E+02  0.10463701573E+03  0.00000000000E+00 0. -1.
<scales pt_clust_5="13000.00000" pt_clust_6="13000.00000" pt_clust_7="13000.00000" pt_clust_8="13000.00000" pt_clust_9="22.02198" pt_clust_10="13000.00000"></scales>
<clustering>
<clus scale="   22.022">  2  9  1 -1</clus>
<clus scale="   90.228">  7  8 -1 -1</clus>
<clus scale="   91.151">  5  6 -1 -1</clus>
<clus scale="   52.727">  5 10 -1 -1</clus>
<clus scale="  113.405">  1  7  2 -1</clus>
<clus scale="   22.022">  2  5  1 -1</clus>
</clustering>
</event>
<event>
10    2  0.4951045E-006  0.1810514E+03  0.7546771E-02  0.1170477E+00
         -3   -1    0    0    0  501 -0.00000000000E+00  0.00000000000E+00  0.23195847211E+03  0.23195847211E+03  0.00000000000E+00 0.  1.
         21   -1    0    0  503  502  0.00000000000E+00 -0.00000000000E+00 -0.23066391744E+03  0.23066391744E+03  0.00000000000E+00 0.  1.
         23    2    1    2    0    0 -0.12156093415E+03  0.37735898858E+02  0.25615649749E+02  0.15783586731E+03  0.89749321586E+02 0.  0.
         23    2    1    2    0    0  0.82029798198E+02 -0.66947157727E+02  0.37084760681E+02  0.14487925675E+03  0.91672841348E+02 0.  0.
        -11    1    3    3    0    0 -0.58109082096E+02 -0.21986455310E+02  0.33066180587E+02  0.70380692933E+02  0.00000000000E+00 0.  1.
         11    1    3    3    0    0 -0.63451852051E+02  0.59722354168E+02 -0.74505308384E+01  0.87455174380E+02  0.00000000000E+00 0. -1.
        -13    1    4    4    0    0  0.31918290923E+02 -0.59990902532E+02  0.58763837513E+02  0.89838044733E+02  0.00000000000E+00 0.  1.
         13    1    4    4    0    0  0.50111507275E+02 -0.69562551947E+01 -0.21679076832E+02  0.55041212015E+02  0.00000000000E+00 0. -1.
         21    1    1    2  503  501 -0.10339674073E+02  0.45756634135E+02 -0.88964706007E+02  0.10057483454E+03  0.00000000000E+00 0.  1.
         -3    1    1    2    0  502  0.49870810021E+02 -0.16545375266E+02  0.27558850251E+02  0.59332430946E+02  0.00000000000E+00 0.  1.
<scales pt_clust_5="13000.00000" pt_clust_6="13000.00000" pt_clust_7="13000.00000" pt_clust_8="13000.00000" pt_clust_9="46.91032" pt_clust_10="13000.00000"></scales>
<clustering>
<clus scale="   46.910">  2  9  1 -1</clus>
<clus scale="   89.749">  5  6 -1 -1</clus>
<clus scale="   91.673">  7  8 -1 -1</clus>
<clus scale="   49.933">  7 10 -1 -1</clus>
<clus scale="  166.372">  1  5  2 -1</clus>
<clus scale="   46.910">  2  5  1 -1</clus>
</clustering>
</event>
<event>
10    2  0.4951045E-006  0.1815563E+03  0.7546771E-02  0.1179454E+00
         21   -1    0    0  501  502  0.00000000000E+00  0.00000000000E+00  0.16053301132E+03  0.16053301132E+03  0.00000000000E+00 0. -1.
         -3   -1    0    0    0  501 -0.00000000000E+00 -0.00000000000E+00 -0.44141470012E+03  0.44141470012E+03  0.00000000000E+00 0.  1.
         23    2    1    2    0    0 -0.99902511694E+02  0.35225470204E+02  0.58770993660E+02  0.15134848964E+03  0.90724803816E+02 0.  0.
         23    2    1    2    0    0  0.40756243694E+02 -0.33339667795E+02 -0.34125676869E+03  0.35657463584E+03  0.88975748938E+02 0.  0.
        -13    1    3    3    0    0 -0.56903857904E+02  0.47472752706E+02  0.73403351568E+02  0.10430610392E+03  0.00000000000E+00 0.  1.
         13    1    3    3    0    0 -0.42998653790E+02 -0.12247282502E+02 -0.14632357908E+02  0.47042385722E+02  0.00000000000E+00 0. -1.
        -13    1    4    4    0    0  0.11981518838E+02 -0.60620067204E+02 -0.17286000516E+03  0.18357268512E+03  0.00000000000E+00 0.  1.
         13    1    4    4    0    0  0.28774724856E+02  0.27280399409E+02 -0.16839676353E+03  0.17300195071E+03  0.00000000000E+00 0. -1.
         21    1    1    2  503  502  0.19260938781E+02  0.21838691418E+02  0.28200117671E+02  0.40535895725E+02  0.00000000000E+00 0. -1.
         -3    1    1    2    0  503  0.39885329219E+02 -0.23724493827E+02 -0.26596031440E+02  0.53488690230E+02  0.00000000000E+00 0.  1.
<scales pt_clust_5="13000.00000" pt_clust_6="13000.00000" pt_clust_7="13000.00000" pt_clust_8="13000.00000" pt_clust_9="29.11893" pt_clust_10="13000.00000"></scales>
<clustering>
<clus scale="   29.119">  1  9  2 -1</clus>
<clus scale="   88.976">  7  8 -1 -1</clus>
<clus scale="   47.081">  7 10 -1 -1</clus>
<clus scale="   90.725">  5  6 -1 -1</clus>
<clus scale="  134.599">  2  5  1 -1</clus>
<clus scale="   29.119">  1  5  2 -1</clus>
</clustering>
</event>
<event>
10    2  0.4951045E-006  0.3190747E+03  0.7546771E-02  0.1118299E+00
         21   -1    0    0  503  502  0.00000000000E+00  0.00000000000E+00  0.37870310273E+03  0.37870310273E+03  0.00000000000E+00 0. -1.
         -3   -1    0    0    0  501 -0.00000000000E+00 -0.00000000000E+00 -0.34808321351E+03  0.34808321351E+03  0.00000000000E+00 0.  1.
         23    2    1    2    0    0  0.52105456421E+02  0.99335602204E+01 -0.61642696849E+02  0.12264544299E+03  0.91806472560E+02 0.  0.
         23    2    1    2    0    0  0.12534593102E+02  0.77090540152E+02 -0.11017271422E+03  0.16304585425E+03  0.91355657863E+02 0.  0.
        -11    1    4    4    0    0 -0.24967871683E+02 -0.34010283151E+01 -0.49357444800E+02  0.55417677389E+02  0.00000000000E+00 0.  1.
         11    1    4    4    0    0  0.37502464786E+02  0.80491568467E+02 -0.60815269422E+02  0.10762817686E+03  0.00000000000E+00 0. -1.
        -13    1    3    3    0    0  0.20228682359E+02 -0.87672330735E+01  0.22034476965E+02  0.31170212397E+02  0.00000000000E+00 0. -1.
         13    1    3    3    0    0  0.31876774062E+02  0.18700793294E+02 -0.83677173815E+02  0.91475230593E+02  0.00000000000E+00 0.  1.
         21    1    1    2  503  501 -0.13765572208E+03  0.63970697553E+02  0.22546304636E+03  0.27179943569E+03  0.00000000000E+00 0. -1.
         -3    1    1    2    0  502  0.73015672559E+02 -0.15099479792E+03 -0.23027746073E+02  0.16929558331E+03  0.00000000000E+00 0.  1.
<scales pt_clust_5="13000.00000" pt_clust_6="13000.00000" pt_clust_7="13000.00000" pt_clust_8="13000.00000" pt_clust_9="147.92190" pt_clust_10="13000.00000"></scales>
<clustering>
<clus scale="   91.356">  5  6 -1 -1</clus>
<clus scale="   91.806">  7  8 -1 -1</clus>
<clus scale="  106.029">  2  7  1 -1</clus>
<clus scale="  147.922">  1  9  2 -1</clus>
<clus scale="  107.164">  5 10 -1 -1</clus>
<clus scale="  147.922">  1  5  2 -1</clus>
</clustering>
</event>
<event>
10    2  0.4951045E-006  0.1399862E+03  0.7546771E-02  0.1219867E+00
          1   -1    0    0  503    0 -0.00000000000E+00  0.00000000000E+00  0.51046593879E+03  0.51046593879E+03  0.00000000000E+00 0. -1.
         21   -1    0    0  501  502  0.00000000000E+00 -0.00000000000E+00 -0.11543931537E+03  0.11543931537E+03  0.00000000000E+00 0.  1.
         23    2    1    2    0    0 -0.24536869359E+02  0.63049021244E+02  0.91971345438E+02  0.14605820659E+03  0.91088057909E+02 0.  0.
         23    2    1    2    0    0  0.35311608436E+02 -0.56798325717E+02  0.31441179646E+03  0.33351106771E+03  0.88892603958E+02 0.  0.
        -11    1    3    3    0    0  0.88242207782E+01 -0.20991512116E+02  0.22707001287E+02  0.32157710750E+02  0.00000000000E+00 0. -1.
         11    1    3    3    0    0 -0.33361090138E+02  0.84040533359E+02  0.69264344151E+02  0.11390049584E+03  0.00000000000E+00 0.  1.
        -13    1    4    4    0    0  0.43117297117E+02 -0.21659540292E+02  0.27855717970E+03  0.28270539323E+03  0.00000000000E+00 0. -1.
         13    1    4    4    0    0 -0.78056886809E+01 -0.35138785426E+02  0.35854616759E+02  0.50805674486E+02  0.00000000000E+00 0.  1.
         21    1    1    2  503  502 -0.42740417514E+02 -0.22552977342E+01 -0.68480130013E+02  0.80754924702E+02  0.00000000000E+00 0.  1.
          1    1    1    2  501    0  0.31965678437E+02 -0.39953977922E+01  0.57123611534E+02  0.65581055162E+02  0.00000000000E+00 0. -1.
<scales pt_clust_5="13000.00000" pt_clust_6="13000.00000" pt_clust_7="13000.00000" pt_clust_8="13000.00000" pt_clust_9="42.79988" pt_clust_10="13000.00000"></scales>
<clustering>
<clus scale="   42.800">  2  9  1 -1</clus>
<clus scale="   88.893">  7  8 -1 -1</clus>
<clus scale="   27.861">  7 10 -1 -1</clus>
<clus scale="   91.088">  5  6 -1 -1</clus>
<clus scale="  121.981">  1  5  2 -1</clus>
<clus scale="   42.800">  2  5  1 -1</clus>
</clustering>
</event>
<event>
10    2  0.4951045E-006  0.1426245E+03  0.7546771E-02  0.1229503E+00
         -3   -1    0    0    0  501 -0.00000000000E+00  0.00000000000E+00  0.93365859809E+02  0.93365859809E+02  0.00000000000E+00 0.  1.
         21   -1    0    0  501  502  0.00000000000E+00 -0.00000000000E+00 -0.25290990696E+03  0.25290990696E+03  0.00000000000E+00 0.  1.
         23    2    1    2    0    0  0.96118452074E+01 -0.42028977105E+01  0.58039830122E+00  0.94861387162E+02  0.94277749202E+02 0.  0.
         23    2    1    2    0    0  0.51280403131E+02  0.45221260639E+00 -0.43615661336E+02  0.11420620981E+03  0.92254258460E+02 0.  0.
        -11    1    4    4    0    0 -0.16306719996E+02 -0.27710152624E+02 -0.10285814516E+02  0.33757364467E+02  0.00000000000E+00 0. -1.
         11    1    4    4    0    0  0.67587123128E+02  0.28162365231E+02 -0.33329846819E+02  0.80448845343E+02  0.00000000000E+00 0.  1.
        -13    1    3    3    0    0  0.94076916776E+01  0.41103143952E+02 -0.18059040847E+02  0.45870492278E+02  0.00000000000E+00 0.  1.
         13    1    3    3    0    0  0.20415352989E+00 -0.45306041663E+02  0.18639439148E+02  0.48990894885E+02  0.00000000000E+00 0. -1.
         21    1    1    2  503  502 -0.24684628174E+02  0.42158808597E+01 -0.86891020799E+02  0.90427617546E+02  0.00000000000E+00 0.  1.
         -3    1    1    2    0  503 -0.36207620164E+02 -0.46519575563E+00 -0.29617763320E+02  0.46780552253E+02  0.00000000000E+00 0.  1.
<scales pt_clust_5="13000.00000" pt_clust_6="13000.00000" pt_clust_7="13000.00000" pt_clust_8="13000.00000" pt_clust_9="25.04206" pt_clust_10="13000.00000"></scales>
<clustering>
<clus scale="   25.042">  2  9  1 -1</clus>
<clus scale="   92.254">  5  6 -1 -1</clus>
<clus scale="   41.952">  5 10 -1 -1</clus>
<clus scale="   94.278">  7  8 -1 -1</clus>
<clus scale="   94.359">  1  7  2 -1</clus>
<clus scale="   25.042">  2  5  1 -1</clus>
</clustering>
</event>
<event>
10    2  0.4951045E-006  0.1533728E+03  0.7546771E-02  0.1218473E+00
          1   -1    0    0  503    0 -0.00000000000E+00  0.00000000000E+00  0.15919018378E+03  0.15919018378E+03  0.00000000000E+00 0. -1.
         21   -1    0    0  501  502  0.00000000000E+00 -0.00000000000E+00 -0.36646510408E+03  0.36646510408E+03  0.00000000000E+00 0.  1.
         23    2    1    2    0    0  0.21212198565E+01 -0.36266659794E+01 -0.86819569407E+01  0.91901485768E+02  0.91393951825E+02 0.  0.
         23    2    1    2    0    0 -0.34435274668E+02 -0.28653351599E+02  0.45223673544E+02  0.11091491266E+03  0.90830251026E+02 0.  0.
        -11    1    4    4    0    0 -0.22381100951E+02  0.23326910023E+01 -0.24746169029E+02  0.33447391657E+02  0.00000000000E+00 0.  1.
         11    1    4    4    0    0 -0.12054173717E+02 -0.30986042601E+02  0.69969842572E+02  0.77467520999E+02  0.00000000000E+00 0. -1.
        -13    1    3    3    0    0 -0.36254167097E+02 -0.27544379428E+02 -0.10191956741E+02  0.46657619444E+02  0.00000000000E+00 0.  1.
         13    1    3    3    0    0  0.38375386954E+02  0.23917713449E+02  0.15099998006E+01  0.45243866323E+02  0.00000000000E+00 0. -1.
         21    1    1    2  503  502  0.44158030851E+02 -0.24867340078E+02 -0.25787512677E+03  0.26280771926E+03  0.00000000000E+00 0.  1.
          1    1    1    2  501    0 -0.11843976040E+02  0.57147357656E+02  0.14058489873E+02  0.60031170179E+02  0.00000000000E+00 0. -1.
<scales pt_clust_5="13000.00000" pt_clust_6="13000.00000" pt_clust_7="13000.00000" pt_clust_8="13000.00000" pt_clust_9="50.67856" pt_clust_10="13000.00000"></scales>
<clustering>
<clus scale="   50.679">  2  9  1 -1</clus>
<clus scale="   90.830">  5  6 -1 -1</clus>
<clus scale="   51.811">  5 10 -1 -1</clus>
<clus scale="   91.394">  7  8 -1 -1</clus>
<clus scale="   95.507">  1  7  2 -1</clus>
<clus scale="   50.679">  2  5  1 -1</clus>
</clustering>
</event>
<event>
10    2  0.4951045E-006  0.4708695E+03  0.7546771E-02  0.1028557E+00
          2   -1    0    0  502    0 -0.00000000000E+00  0.00000000000E+00  0.70846077537E+03  0.70846077537E+03  0.00000000000E+00 0. -1.
         21   -1    0    0  503  502  0.00000000000E+00 -0.00000000000E+00 -0.33464409172E+03  0.33464409172E+03  0.00000000000E+00 0.  1.
         23    2    1    2    0    0  0.34802633025E+03 -0.14181287083E+03  0.35021601840E+03  0.52170437752E+03  0.91054824720E+02 0.  0.
         23    2    1    2    0    0 -0.35104328999E+03  0.19811739020E+03  0.54655264900E+02  0.41685360245E+03  0.91092459339E+02 0.  0.
        -13    1    3    3    0    0  0.51278154717E+02 -0.41722472597E+02  0.10444309376E+03  0.12360652776E+03  0.00000000000E+00 0.  1.
         13    1    3    3    0    0  0.29674817553E+03 -0.10009039823E+03  0.24577292463E+03  0.39809784976E+03  0.00000000000E+00 0. -1.
        -13    1    4    4    0    0 -0.19529568740E+03  0.16104750990E+03  0.35616776711E+02  0.25562719093E+03  0.00000000000E+00 0.  1.
         13    1    4    4    0    0 -0.15574760259E+03  0.37069880301E+02  0.19038488189E+02  0.16122641152E+03  0.00000000000E+00 0. -1.
         21    1    1    2  503  501 -0.17452890431E+02 -0.10333195350E+02 -0.47464268039E+02  0.51616228562E+02  0.00000000000E+00 0.  1.
          2    1    1    2  501    0  0.20469850175E+02 -0.45971324019E+02  0.16409668394E+02  0.52930658555E+02  0.00000000000E+00 0. -1.
<scales pt_clust_5="13000.00000" pt_clust_6="13000.00000" pt_clust_7="13000.00000" pt_clust_8="13000.00000" pt_clust_9="20.28246" pt_clust_10="13000.00000"></scales>
<clustering>
<clus scale="   20.282">  2  9  1 -1</clus>
<clus scale="   91.055">  5  6 -1 -1</clus>
<clus scale="   91.092">  7  8 -1 -1</clus>
<clus scale="   50.489">  7 10 -1 -1</clus>
<clus scale="  383.131">  1  5  2 -1</clus>
<clus scale="   20.282">  2  5  1 -1</clus>
</clustering>
</event>
<event>
10    2  0.4951045E-006  0.4993728E+03  0.7546771E-02  0.1067715E+00
         21   -1    0    0  501  502  0.00000000000E+00  0.00000000000E+00  0.80730555698E+03  0.80730555698E+03  0.00000000000E+00 0. -1.
          1   -1    0    0  503    0 -0.00000000000E+00 -0.00000000000E+00 -0.16727362619E+03  0.16727362619E+03  0.00000000000E+00 0. -1.
         23    2    1    2    0    0 -0.49427945202E+02 -0.18943478469E+02 -0.19448488690E+01  0.10556501085E+03  0.91313810216E+02 0.  0.
         23    2    1    2    0    0 -0.32655610879E+02 -0.62016250821E+02 -0.76928793052E+02  0.13811512264E+03  0.90803874448E+02 0.  0.
        -11    1    4    4    0    0 -0.42464781138E+02  0.77017960134E+01 -0.38873056682E+02  0.58083472991E+02  0.00000000000E+00 0.  1.
         11    1    4    4    0    0  0.98091702584E+01 -0.69718046835E+02 -0.38055736371E+02  0.80031649654E+02  0.00000000000E+00 0. -1.
        -13    1    3    3    0    0 -0.75742291643E+02 -0.53640599701E+01 -0.10116630402E+01  0.75938734153E+02  0.00000000000E+00 0. -1.
         13    1    3    3    0    0  0.26314346441E+02 -0.13579418499E+02 -0.93318582880E+00  0.29626276701E+02  0.00000000000E+00 0.  1.
         21    1    1    2  503  502  0.75452857186E+01  0.45921604782E+02  0.18983762992E+03  0.19545856558E+03  0.00000000000E+00 0.  1.
          1    1    1    2  501    0  0.74538270362E+02  0.35038124508E+02  0.52906794279E+03  0.53544048409E+03  0.00000000000E+00 0. -1.
<scales pt_clust_5="13000.00000" pt_clust_6="13000.00000" pt_clust_7="13000.00000" pt_clust_8="13000.00000" pt_clust_9="46.53735" pt_clust_10="13000.00000"></scales>
<clustering>
<clus scale="   46.537">  1  9  2 -1</clus>
<clus scale="   90.804">  5  6 -1 -1</clus>
<clus scale="   91.314">  7  8 -1 -1</clus>
<clus scale="  104.623">  2  7  1 -1</clus>
<clus scale="  106.777">  5 10 -1 -1</clus>
<clus scale="   46.537">  1  5  2 -1</clus>
</clustering>
</event>
<event>
10    2  0.4951045E-006  0.3027600E+03  0.7546771E-02  0.1128066E+00
          1   -1    0    0  502    0 -0.00000000000E+00  0.00000000000E+00  0.23611343193E+03  0.23611343193E+03  0.00000000000E+00 0. -1.
         21   -1    0    0  503  502  0.00000000000E+00 -0.00000000000E+00 -0.22126732802E+03  0.22126732802E+03  0.00000000000E+00 0.  1.
         23    2    1    2    0    0  0.30100879615E+02  0.13777042723E+02  0.75461721606E+02  0.12245253820E+03  0.90577496239E+02 0.  0.
         23    2    1    2    0    0  0.10604620684E+03  0.23880863137E+02 -0.19313340998E+02  0.14240622711E+03  0.89946844135E+02 0.  0.
        -11    1    4    4    0    0  0.98637527796E+01  0.22065043805E+02 -0.37391371776E+02  0.44522740934E+02  0.00000000000E+00 0. -1.
         11    1    4    4    0    0  0.96182454063E+02  0.18158193318E+01  0.18078030778E+02  0.97883486178E+02  0.00000000000E+00 0.  1.
        -11    1    3    3    0    0  0.39407263164E+02  0.45140029515E+02  0.64285299296E+02  0.87881479051E+02  0.00000000000E+00 0.  1.
         11    1    3    3    0    0 -0.93063835491E+01 -0.31362986791E+02  0.11176422310E+02  0.34571059152E+02  0.00000000000E+00 0. -1.
         21    1    1    2  503  501  0.23294023277E+02  0.28984494960E+01 -0.65953460238E+01  0.24382598694E+02  0.00000000000E+00 0.  1.
          1    1    1    2  501    0 -0.15944110973E+03 -0.40556355357E+02 -0.34706930673E+02  0.16813939595E+03  0.00000000000E+00 0. -1.
<scales pt_clust_5="13000.00000" pt_clust_6="13000.00000" pt_clust_7="13000.00000" pt_clust_8="13000.00000" pt_clust_9="23.47366" pt_clust_10="13000.00000"></scales>
<clustering>
<clus scale="   23.474">  2  9  1 -1</clus>
<clus scale="   89.947">  5  6 -1 -1</clus>
<clus scale="   90.577">  7  8 -1 -1</clus>
<clus scale="   97.348">  1  7  2 -1</clus>
<clus scale="  136.869">  5 10 -1 -1</clus>
<clus scale="   23.474">  2  5  1 -1</clus>
</clustering>
</event>
<event>
10    2  0.4951045E-006  0.1346693E+03  0.7546771E-02  0.1234608E+00
         21   -1    0    0  501  502  0.00000000000E+00  0.00000000000E+00  0.38048597876E+02  0.38048597876E+02  0.00000000000E+00 0.  1.
          1   -1    0    0  503    0 -0.00000000000E+00 -0.00000000000E+00 -0.53687030766E+03  0.53687030766E+03  0.00000000000E+00 0. -1.
         23    2    1    2    0    0  0.11330829230E+02 -0.20441242686E+02 -0.18426091742E+03  0.20954144938E+03  0.97001552694E+02 0.  0.
         23    2    1    2    0    0 -0.21567243847E+02  0.41869111288E+02 -0.28686867188E+03  0.30484659302E+03  0.91758606595E+02 0.  0.
        -11    1    4    4    0    0 -0.47095743058E+02  0.15129666525E+01 -0.82833793093E+02  0.95298139334E+02  0.00000000000E+00 0.  1.
         11    1    4    4    0    0  0.25528499212E+02  0.40356144635E+02 -0.20403487879E+03  0.20954845369E+03  0.00000000000E+00 0. -1.
        -11    1    3    3    0    0 -0.12725150353E+02  0.35365658462E+02 -0.88164680692E+02  0.95841901961E+02  0.00000000000E+00 0.  1.
         11    1    3    3    0    0  0.24055979583E+02 -0.55806901148E+02 -0.96096236730E+02  0.11369954742E+03  0.00000000000E+00 0. -1.
         21    1    1    2  503  502 -0.15361371690E+02 -0.14986762643E+02  0.10761424721E+01  0.21487970526E+02  0.00000000000E+00 0. -1.
          1    1    1    2  501    0  0.25597786307E+02 -0.64411059583E+01 -0.28768262955E+02  0.39042892608E+02  0.00000000000E+00 0. -1.
<scales pt_clust_5="13000.00000" pt_clust_6="13000.00000" pt_clust_7="13000.00000" pt_clust_8="13000.00000" pt_clust_9="21.46101" pt_clust_10="13000.00000"></scales>
<clustering>
<clus scale="   21.461">  1  9  2 -1</clus>
<clus scale="   91.759">  5  6 -1 -1</clus>
<clus scale="   24.491">  5 10 -1 -1</clus>
<clus scale="   97.002">  7  8 -1 -1</clus>
<clus scale="  100.912">  2  7  1 -1</clus>
<clus scale="   21.461">  1  5  2 -1</clus>
</clustering>
</event>
<event>
10    2  0.4951045E-006  0.4707292E+03  0.7546771E-02  0.1061532E+00
         21   -1    0    0  503  502  0.00000000000E+00  0.00000000000E+00  0.13471025879E+04  0.13471025879E+04  0.00000000000E+00 0.  1.
         -1   -1    0    0    0  501 -0.00000000000E+00 -0.00000000000E+00 -0.10623721296E+03  0.10623721296E+03  0.00000000000E+00 0.  1.
         23    2    1    2    0    0  0.10666892818E+03  0.62658743320E+02  0.37577293702E+03  0.40589042263E+03  0.90759884451E+02 0.  0.
         23    2    1    2    0    0  0.65690764296E+02  0.13040583621E+03  0.59197551169E+02  0.18556329848E+03  0.98022594576E+02 0.  0.
        -13    1    3    3    0    0  0.11915954327E+03  0.41629813337E+02  0.28162666334E+03  0.30861888408E+03  0.00000000000E+00 0.  1.
         13    1    3    3    0    0 -0.12490615084E+02  0.21028929984E+02  0.94146273689E+02  0.97271538546E+02  0.00000000000E+00 0. -1.
        -13    1    4    4    0    0 -0.41008916286E+01  0.94607489734E+02  0.16066203697E+02  0.96049556621E+02  0.00000000000E+00 0.  1.
         13    1    4    4    0    0  0.69791655925E+02  0.35798346478E+02  0.43131347472E+02  0.89513741861E+02  0.00000000000E+00 0. -1.
         21    1    1    2  503  501  0.10241346432E+02 -0.61829072213E+02  0.32534047886E+03  0.33132181717E+03  0.00000000000E+00 0.  1.
         -1    1    1    2    0  502 -0.18260103891E+03 -0.13123550732E+03  0.48055440787E+03  0.53056426257E+03  0.00000000000E+00 0.  1.
<scales pt_clust_5="13000.00000" pt_clust_6="13000.00000" pt_clust_7="13000.00000" pt_clust_8="13000.00000" pt_clust_9="62.67152" pt_clust_10="13000.00000"></scales>
<clustering>
<clus scale="   62.672">  1  9  2 -1</clus>
<clus scale="   90.760">  5  6 -1 -1</clus>
<clus scale="   98.023">  7  8 -1 -1</clus>
<clus scale="  148.275">  2  5  1 -1</clus>
<clus scale="  205.048">  7 10 -1 -1</clus>
<clus scale="   62.672">  1  5  2 -1</clus>
</clustering>
</event>
<event>
10    2  0.4951045E-006  0.2067380E+03  0.7546771E-02  0.1154992E+00
         21   -1    0    0  503  502  0.00000000000E+00  0.00000000000E+00  0.25072851480E+03  0.25072851480E+03  0.00000000000E+00 0. -1.
          3   -1    0    0  502    0 -0.00000000000E+00 -0.00000000000E+00 -0.21749833557E+03  0.21749833557E+03  0.00000000000E+00 0. -1.
         23    2    1    2    0    0 -0.11533206600E+03  0.38248255762E+02  0.23548356752E+01  0.15078751882E+03  0.89257582681E+02 0.  0.
         23    2    1    2    0    0  0.88769881094E+02 -0.38404876898E+01 -0.13506417266E+01  0.12678870486E+03  0.90436222347E+02 0.  0.
        -11    1    4    4    0    0  0.66171236691E+02 -0.38634504175E+02 -0.22985968905E+02  0.79997576492E+02  0.00000000000E+00 0.  1.
         11    1    4    4    0    0  0.22598644403E+02  0.34794016485E+02  0.21635327178E+02  0.46791128370E+02  0.00000000000E+00 0. -1.
        -13    1    3    3    0    0 -0.18695260273E+02  0.48681594537E+02 -0.90322116426E+01  0.52924391829E+02  0.00000000000E+00 0.  1.
         13    1    3    3    0    0 -0.96636805725E+02 -0.10433338775E+02  0.11387047318E+02  0.97863126996E+02  0.00000000000E+00 0. -1.
         21    1    1    2  503  501 -0.11562787657E+02  0.34781507873E+02  0.87077391427E+02  0.94477105407E+02  0.00000000000E+00 0.  1.
          3    1    1    2  501    0  0.38124972560E+02 -0.69189275946E+02 -0.54851406140E+02  0.96173521274E+02  0.00000000000E+00 0. -1.
<scales pt_clust_5="13000.00000" pt_clust_6="13000.00000" pt_clust_7="13000.00000" pt_clust_8="13000.00000" pt_clust_9="36.65312" pt_clust_10="13000.00000"></scales>
<clustering>
<clus scale="   36.653">  1  9  2 -1</clus>
<clus scale="   89.258">  7  8 -1 -1</clus>
<clus scale="   90.436">  5  6 -1 -1</clus>
<clus scale="   74.347">  5 10 -1 -1</clus>
<clus scale="  159.968">  2  7  1 -1</clus>
<clus scale="   36.653">  1  5  2 -1</clus>
</clustering>
</event>
<event>
10    2  0.4951045E-006  0.5189812E+03  0.7546771E-02  0.1051240E+00
         21   -1    0    0  503  502  0.00000000000E+00  0.00000000000E+00  0.28988221295E+03  0.28988221295E+03  0.00000000000E+00 0. -1.
          1   -1    0    0  502    0 -0.00000000000E+00 -0.00000000000E+00 -0.15282188436E+04  0.15282188436E+04  0.00000000000E+00 0. -1.
         23    2    1    2    0    0  0.93409649161E+02 -0.70930256052E+02 -0.28649815506E+03  0.32240886091E+03  0.90054522173E+02 0.  0.
         23    2    1    2    0    0  0.21232296110E+02 -0.13203903396E+03 -0.62876297336E+03  0.64931901195E+03  0.91581579560E+02 0.  0.
        -11    1    4    4    0    0  0.44383062344E+02 -0.29622493879E+02 -0.28213184308E+03  0.28713363656E+03  0.00000000000E+00 0. -1.
         11    1    4    4    0    0 -0.23150766234E+02 -0.10241654008E+03 -0.34663113029E+03  0.36218537539E+03  0.00000000000E+00 0.  1.
        -13    1    3    3    0    0  0.84881889924E+02 -0.50071400708E+02 -0.28291882817E+03  0.29959162828E+03  0.00000000000E+00 0.  1.
         13    1    3    3    0    0  0.85277592369E+01 -0.20858855344E+02 -0.35793268898E+01  0.22817232629E+02  0.00000000000E+00 0. -1.
         21    1    1    2  503  501 -0.31084999912E+03  0.33344713618E+03 -0.11864185314E+02  0.45602135199E+03  0.00000000000E+00 0. -1.
          1    1    1    2  501    0  0.19620805385E+03 -0.13047784617E+03 -0.31121131690E+03  0.39035183169E+03  0.00000000000E+00 0. -1.
<scales pt_clust_5="13000.00000" pt_clust_6="13000.00000" pt_clust_7="13000.00000" pt_clust_8="13000.00000" pt_clust_9="433.78928" pt_clust_10="13000.00000"></scales>
<clustering>
<clus scale="   90.055">  7  8 -1 -1</clus>
<clus scale="   91.582">  5  6 -1 -1</clus>
<clus scale="  147.873">  2  7  1 -1</clus>
<clus scale="  269.193">  5 10 -1 -1</clus>
<clus scale="  433.789">  1  9  2 -1</clus>
<clus scale="  433.789">  1  5  2 -1</clus>
</clustering>
</event>
<event>
10    2  0.4951045E-006  0.3637872E+03  0.7546771E-02  0.1082723E+00
         -2   -1    0    0    0  501 -0.00000000000E+00  0.00000000000E+00  0.43749823622E+03  0.43749823622E+03  0.00000000000E+00 0.  1.
         21   -1    0    0  503  502  0.00000000000E+00 -0.00000000000E+00 -0.22358055802E+03  0.22358055802E+03  0.00000000000E+00 0.  1.
         23    2    1    2    0    0 -0.12927006739E+03 -0.80869751071E+02  0.33404664303E+02  0.17922759705E+03  0.88068115607E+02 0.  0.
         23    2    1    2    0    0  0.78392222271E+01  0.12589922302E+03  0.23483341295E+03  0.28057641619E+03  0.87546134823E+02 0.  0.
        -11    1    4    4    0    0  0.34018166075E+02  0.81665526308E+02  0.19940713579E+03  0.21815063514E+03  0.00000000000E+00 0.  1.
         11    1    4    4    0    0 -0.26178943848E+02  0.44233696710E+02  0.35426277159E+02  0.62425781044E+02  0.00000000000E+00 0. -1.
        -13    1    3    3    0    0 -0.91593587224E+02 -0.92316626902E+01  0.34413717489E+02  0.98279767847E+02  0.00000000000E+00 0. -1.
         13    1    3    3    0    0 -0.37676480163E+02 -0.71638088381E+02 -0.10090531859E+01  0.80947829203E+02  0.00000000000E+00 0.  1.
         21    1    1    2  503  501 -0.18439021167E+02  0.10138923673E+02 -0.46121120449E+02  0.50694704125E+02  0.00000000000E+00 0.  1.
         -2    1    1    2    0  502  0.13986986633E+03 -0.55168395620E+02 -0.81992786018E+01  0.15058007687E+03  0.00000000000E+00 0.  1.
<scales pt_clust_5="13000.00000" pt_clust_6="13000.00000" pt_clust_7="13000.00000" pt_clust_8="13000.00000" pt_clust_9="21.04270" pt_clust_10="13000.00000"></scales>
<clustering>
<clus scale="   21.043">  2  9  1 -1</clus>
<clus scale="   87.546">  5  6 -1 -1</clus>
<clus scale="   88.068">  7  8 -1 -1</clus>
<clus scale="  140.902">  5 10 -1 -1</clus>
<clus scale="  179.959">  1  7  2 -1</clus>
<clus scale="   21.043">  2  5  1 -1</clus>
</clustering>
</event>
<event>
10    2  0.4951045E-006  0.2801726E+03  0.7546771E-02  0.1129147E+00
         -2   -1    0    0    0  501 -0.00000000000E+00  0.00000000000E+00  0.13225125933E+03  0.13225125933E+03  0.00000000000E+00 0.  1.
         21   -1    0    0  503  502  0.00000000000E+00 -0.00000000000E+00 -0.67206051477E+03  0.67206051477E+03  0.00000000000E+00 0. -1.
         23    2    1    2    0    0 -0.18537337515E+02 -0.20500362898E+02 -0.90714878737E+02  0.14749862459E+03  0.11297237392E+03 0.  0.
         23    2    1    2    0    0  0.18736242791E+02 -0.72057167332E+01  0.75763863881E+02  0.12012937860E+03  0.91038098536E+02 0.  0.
        -11    1    3    3    0    0 -0.26204428635E+02  0.39989128570E+02 -0.66477648925E+02  0.81884554651E+02  0.00000000000E+00 0.  1.
         11    1    3    3    0    0  0.76670911200E+01 -0.60489491468E+02 -0.24237229812E+02  0.65614069934E+02  0.00000000000E+00 0. -1.
        -11    1    4    4    0    0 -0.35073423168E+02 -0.16235167158E+02  0.30380730507E+02  0.49160090028E+02  0.00000000000E+00 0. -1.
         11    1    4    4    0    0  0.53809665959E+02  0.90294504251E+01  0.45383133374E+02  0.70969288572E+02  0.00000000000E+00 0.  1.
         21    1    1    2  503  501 -0.51165118239E+02  0.23923717528E+02 -0.34933466528E+03  0.35387133530E+03  0.00000000000E+00 0. -1.
         -2    1    1    2    0  502  0.50966212962E+02  0.37823621029E+01 -0.17552357531E+03  0.18281243561E+03  0.00000000000E+00 0.  1.
<scales pt_clust_5="13000.00000" pt_clust_6="13000.00000" pt_clust_7="13000.00000" pt_clust_8="13000.00000" pt_clust_9="56.48198" pt_clust_10="13000.00000"></scales>
<clustering>
<clus scale="   56.482">  2  9  1 -1</clus>
<clus scale="   91.038">  7  8 -1 -1</clus>
<clus scale="   28.184">  7 10 -1 -1</clus>
<clus scale="  112.972">  5  6 -1 -1</clus>
<clus scale="  119.615">  1  5  2 -1</clus>
<clus scale="   56.482">  2  5  1 -1</clus>
</clustering>
</event>
<event>
10    2  0.4951045E-006  0.2555276E+03  0.7546771E-02  0.1150179E+00
         -1   -1    0    0    0  501 -0.00000000000E+00  0.00000000000E+00  0.10658110567E+03  0.10658110567E+03  0.00000000000E+00 0.  1.
         21   -1    0    0  501  502  0.00000000000E+00 -0.00000000000E+00 -0.43052884293E+03  0.43052884293E+03  0.00000000000E+00 0.  1.
         23    2    1    2    0    0  0.10283226380E+02 -0.60752525266E+01 -0.16985180680E+03  0.19246208321E+03  0.89718246542E+02 0.  0.
         23    2    1    2    0    0 -0.64012334236E+02  0.11220589846E+03 -0.10502275339E+03  0.19454385004E+03  0.10064684930E+03 0.  0.
        -13    1    3    3    0    0 -0.80202439597E+01 -0.45313943376E+02 -0.71873849164E+02  0.85343587756E+02  0.00000000000E+00 0.  1.
         13    1    3    3    0    0  0.18303470340E+02  0.39238690849E+02 -0.97977957632E+02  0.10711849545E+03  0.00000000000E+00 0. -1.
        -13    1    4    4    0    0 -0.31791138393E+02  0.12461253610E+03 -0.75587783188E+02  0.14917263020E+03  0.00000000000E+00 0.  1.
         13    1    4    4    0    0 -0.32221195843E+02 -0.12406637639E+02 -0.29434970200E+02  0.45371219839E+02  0.00000000000E+00 0. -1.
         21    1    1    2  503  502  0.27199924180E+02 -0.28303648818E+02 -0.55106772256E+02  0.67658619260E+02  0.00000000000E+00 0.  1.
         -1    1    1    2    0  503  0.26529183676E+02 -0.77826997112E+02  0.60335951824E+01  0.82445396093E+02  0.00000000000E+00 0.  1.
<scales pt_clust_5="13000.00000" pt_clust_6="13000.00000" pt_clust_7="13000.00000" pt_clust_8="13000.00000" pt_clust_9="39.25471" pt_clust_10="13000.00000"></scales>
<clustering>
<clus scale="   39.255">  2  9  1 -1</clus>
<clus scale="   89.718">  5  6 -1 -1</clus>
<clus scale="   94.902">  1  5  2 -1</clus>
<clus scale="  100.647">  7  8 -1 -1</clus>
<clus scale="  100.904">  7 10 -1 -1</clus>
<clus scale="   39.255">  2  5  1 -1</clus>
</clustering>
</event>
<event>
10    2  0.4951045E-006  0.2213269E+03  0.7546771E-02  0.1151777E+00
         -2   -1    0    0    0  501 -0.00000000000E+00  0.00000000000E+00  0.46956167511E+03  0.46956167511E+03  0.00000000000E+00 0.  1.
         21   -1    0    0  503  502  0.00000000000E+00 -0.00000000000E+00 -0.29123622641E+03  0.29123622641E+03  0.00000000000E+00 0.  1.
         23    2    1    2    0    0  0.62739948785E+02  0.66558886344E+02  0.26343162785E+03  0.30442063163E+03  0.12210369317E+03 0.  0.
         23    2    1    2    0    0  0.40299396772E+02  0.16515080495E+02 -0.30414840472E+02  0.10409826024E+03  0.89524276041E+02 0.  0.
        -11    1    3    3    0    0  0.99511694128E+02  0.46883514554E+02  0.17595119911E+03  0.20750774847E+03  0.00000000000E+00 0.  1.
         11    1    3    3    0    0 -0.36771745343E+02  0.19675371790E+02  0.87480428737E+02  0.96912883161E+02  0.00000000000E+00 0. -1.
        -11    1    4    4    0    0  0.30955174110E+02  0.51857207200E+02 -0.72669666610E+01  0.60829281988E+02  0.00000000000E+00 0.  1.
         11    1    4    4    0    0  0.93442226618E+01 -0.35342126705E+02 -0.23147873811E+02  0.43268978254E+02  0.00000000000E+00 0. -1.
         21    1    1    2  503  501 -0.11852149712E+03 -0.32689110342E+02 -0.17905755615E+03  0.21720389414E+03  0.00000000000E+00 0.  1.
         -2    1    1    2    0  502  0.15482151562E+02 -0.50384856496E+02  0.12436621747E+03  0.13507511550E+03  0.00000000000E+00 0.  1.
<scales pt_clust_5="13000.00000" pt_clust_6="13000.00000" pt_clust_7="13000.00000" pt_clust_8="13000.00000" pt_clust_9="122.94683" pt_clust_10="13000.00000"></scales>
<clustering>
<clus scale="   89.524">  7  8 -1 -1</clus>
<clus scale="   52.710">  7 10 -1 -1</clus>
<clus scale="  122.104">  5  6 -1 -1</clus>
<clus scale="  122.947">  2  9  1 -1</clus>
<clus scale="  140.629">  1  5  2 -1</clus>
<clus scale="  122.947">  2  5  1 -1</clus>
</clustering>
</event>
<event>
10    2  0.4951045E-006  0.1799803E+03  0.7546771E-02  0.1186654E+00
          1   -1    0    0  502    0 -0.00000000000E+00  0.00000000000E+00  0.70028892306E+03  0.70028892306E+03  0.00000000000E+00 0. -1.
         21   -1    0    0  503  502  0.00000000000E+00 -0.00000000000E+00 -0.13130646374E+03  0.13130646374E+03  0.00000000000E+00 0.  1.
         23    2    1    2    0    0 -0.75869485269E+02  0.27619435736E+01  0.51100653793E+03  0.52431948846E+03  0.89551309576E+02 0.  0.
         23    2    1    2    0    0  0.49969634996E+02 -0.59976025274E+01  0.15702120683E+03  0.18828528371E+03  0.90899686515E+02 0.  0.
        -11    1    4    4    0    0  0.65922224737E+02  0.23812216113E+02  0.10636536919E+03  0.12738270335E+03  0.00000000000E+00 0.  1.
         11    1    4    4    0    0 -0.15952589741E+02 -0.29809818641E+02  0.50655837644E+02  0.60902580357E+02  0.00000000000E+00 0. -1.
        -13    1    3    3    0    0 -0.78607132136E+02 -0.24101288545E+02  0.45214814752E+03  0.45956272764E+03  0.00000000000E+00 0. -1.
         13    1    3    3    0    0  0.27376468675E+01  0.26863232119E+02  0.58858390412E+02  0.64756760822E+02  0.00000000000E+00 0.  1.
         21    1    1    2  503  501 -0.15829429885E+01  0.20157835156E+02 -0.77719276825E+02  0.80306475560E+02  0.00000000000E+00 0.  1.
          1    1    1    2  501    0  0.27482793261E+02 -0.16922176202E+02 -0.21326008608E+02  0.38684139075E+02  0.00000000000E+00 0. -1.
<scales pt_clust_5="13000.00000" pt_clust_6="13000.00000" pt_clust_7="13000.00000" pt_clust_8="13000.00000" pt_clust_9="20.21989" pt_clust_10="13000.00000"></scales>
<clustering>
<clus scale="   20.220">  2  9  1 -1</clus>
<clus scale="   89.551">  7  8 -1 -1</clus>
<clus scale="   90.900">  5  6 -1 -1</clus>
<clus scale="   27.109">  5 10 -1 -1</clus>
<clus scale="  117.621">  1  7  2 -1</clus>
<clus scale="   20.220">  2  5  1 -1</clus>
</clustering>
</event>
<event>
10    2  0.4951045E-006  0.2223563E+03  0.7546771E-02  0.1169082E+00
         21   -1    0    0  501  502  0.00000000000E+00  0.00000000000E+00  0.93592406617E+03  0.93592406617E+03  0.00000000000E+00 0. -1.
          3   -1    0    0  503    0 -0.00000000000E+00 -0.00000000000E+00 -0.55101079370E+02  0.55101079370E+02  0.00000000000E+00 0. -1.
         23    2    1    2    0    0 -0.14903797852E+01 -0.32650990480E+02  0.42689056218E+02  0.10279882816E+03  0.87618121064E+02 0.  0.
         23    2    1    2    0    0 -0.52860808900E+02 -0.48284459206E+02  0.48318607859E+03  0.49940124802E+03  0.10395751953E+03 0.  0.
        -11    1    4    4    0    0 -0.71390098344E+02  0.25736424151E+01  0.24927842605E+03  0.25931236660E+03  0.00000000000E+00 0.  1.
         11    1    4    4    0    0  0.18529289444E+02 -0.50858101621E+02  0.23390765254E+03  0.24008888142E+03  0.00000000000E+00 0. -1.
        -13    1    3    3    0    0 -0.61564959635E+01  0.29454163568E+02  0.21616388002E+02  0.37050214902E+02  0.00000000000E+00 0.  1.
         13    1    3    3    0    0  0.46661161782E+01 -0.62105154047E+02  0.21072668216E+02  0.65748613256E+02  0.00000000000E+00 0. -1.
         21    1    1    2  503  502 -0.27079333724E+02  0.31029673083E+02  0.32302606897E+02  0.52341086528E+02  0.00000000000E+00 0. -1.
          3    1    1    2  501    0  0.81430522410E+02  0.49905776602E+02  0.32264524509E+03  0.33648398283E+03  0.00000000000E+00 0. -1.
<scales pt_clust_5="13000.00000" pt_clust_6="13000.00000" pt_clust_7="13000.00000" pt_clust_8="13000.00000" pt_clust_9="41.18413" pt_clust_10="13000.00000"></scales>
<clustering>
<clus scale="   41.184">  1  9  2 -1</clus>
<clus scale="   87.618">  7  8 -1 -1</clus>
<clus scale="   92.726">  2  7  1 -1</clus>
<clus scale="  103.958">  5  6 -1 -1</clus>
<clus scale="   85.339">  5 10 -1 -1</clus>
<clus scale="   41.184">  1  5  2 -1</clus>
</clustering>
</event>
<event>
10    2  0.4951045E-006  0.2217514E+03  0.7546771E-02  0.1164508E+00
          3   -1    0    0  503    0 -0.00000000000E+00  0.00000000000E+00  0.78233256758E+03  0.78233256758E+03  0.00000000000E+00 0. -1.
         21   -1    0    0  501  502  0.00000000000E+00 -0.00000000000E+00 -0.67705119264E+02  0.67705119264E+02  0.00000000000E+00 0. -1.
         23    2    1    2    0    0 -0.70684655491E+02  0.22401964969E+02  0.44977526086E+03  0.46290678459E+03  0.80540284168E+02 0.  0.
         23    2    1    2    0    0 -0.21194143991E+02  0.12783166148E+02  0.23232087144E+03  0.25429391066E+03  0.10039823015E+03 0.  0.
        -11    1    4    4    0    0  0.28927810087E+02  0.21833335741E+02  0.34557790151E+02  0.50077476035E+02  0.00000000000E+00 0.  1.
         11    1    4    4    0    0 -0.50121954078E+02 -0.90501695931E+01  0.19776308129E+03  0.20421643462E+03  0.00000000000E+00 0. -1.
        -13    1    3    3    0    0 -0.18583217849E+02 -0.30144466158E+02  0.13818006372E+03  0.14264555666E+03  0.00000000000E+00 0.  1.
         13    1    3    3    0    0 -0.52101437643E+02  0.52546431126E+02  0.31159519715E+03  0.32026122793E+03  0.00000000000E+00 0. -1.
         21    1    1    2  503  502  0.69008458212E+02 -0.36114565364E+01  0.54570732014E+02  0.88052113635E+02  0.00000000000E+00 0.  1.
          3    1    1    2  501    0  0.22870341271E+02 -0.31573674580E+02 -0.22039416002E+02  0.44784877962E+02  0.00000000000E+00 0. -1.
<scales pt_clust_5="13000.00000" pt_clust_6="13000.00000" pt_clust_7="13000.00000" pt_clust_8="13000.00000" pt_clust_9="69.10289" pt_clust_10="13000.00000"></scales>
<clustering>
<clus scale="   69.103">  2  9  1 -1</clus>
<clus scale="   80.540">  7  8 -1 -1</clus>
<clus scale="  100.398">  5  6 -1 -1</clus>
<clus scale="   76.100">  5 10 -1 -1</clus>
<clus scale="  103.858">  1  7  2 -1</clus>
<clus scale="   69.103">  2  5  1 -1</clus>
</clustering>
</event>
<event>
10    2  0.4951045E-006  0.2501279E+03  0.7546771E-02  0.1143475E+00
          1   -1    0    0  502    0 -0.00000000000E+00  0.00000000000E+00  0.69712099545E+03  0.69712099545E+03  0.00000000000E+00 0. -1.
         21   -1    0    0  503  502  0.00000000000E+00 -0.00000000000E+00 -0.23533568299E+03  0.23533568299E+03  0.00000000000E+00 0. -1.
         23    2    1    2    0    0  0.72621136745E+02  0.24261042500E+01  0.52238073012E+03  0.53538633221E+03  0.92071613600E+02 0.  0.
         23    2    1    2    0    0 -0.30426377020E+02  0.61132596893E+02  0.11653577967E+03  0.16264052781E+03  0.90600190508E+02 0.  0.
        -11    1    4    4    0    0 -0.50641295176E+02  0.60994002641E+02  0.51501625630E+02  0.94536905903E+02  0.00000000000E+00 0.  1.
         11    1    4    4    0    0  0.20214918156E+02  0.13859425265E+00  0.65034154043E+02  0.68103621905E+02  0.00000000000E+00 0. -1.
        -11    1    3    3    0    0  0.31567140124E+02 -0.43135767226E+02  0.29895827961E+03  0.30369924546E+03  0.00000000000E+00 0.  1.
         11    1    3    3    0    0  0.41053996621E+02  0.45561871476E+02  0.22342245051E+03  0.23168708674E+03  0.00000000000E+00 0. -1.
         21    1    1    2  503  501  0.40801338314E+02 -0.31677748632E+02 -0.11468875513E+03  0.12578449634E+03  0.00000000000E+00 0. -1.
          1    1    1    2  501    0 -0.82996098040E+02 -0.31880952512E+02 -0.62442442196E+02  0.10864532208E+03  0.00000000000E+00 0. -1.
<scales pt_clust_5="13000.00000" pt_clust_6="13000.00000" pt_clust_7="13000.00000" pt_clust_8="13000.00000" pt_clust_9="51.65490" pt_clust_10="13000.00000"></scales>
<clustering>
<clus scale="   51.655">  2  9  1 -1</clus>
<clus scale="   90.600">  5  6 -1 -1</clus>
<clus scale="   76.460">  5 10 -1 -1</clus>
<clus scale="   92.072">  7  8 -1 -1</clus>
<clus scale="  118.708">  1  7  2 -1</clus>
<clus scale="   51.655">  2  5  1 -1</clus>
</clustering>
</event>
<event>
10    2  0.4951045E-006  0.2767890E+03  0.7546771E-02  0.1129883E+00
         21   -1    0    0  501  502  0.00000000000E+00  0.00000000000E+00  0.10930260569E+03  0.10930260569E+03  0.00000000000E+00 0.  1.
          1   -1    0    0  503    0 -0.00000000000E+00 -0.00000000000E+00 -0.68463554792E+03  0.68463554792E+03  0.00000000000E+00 0. -1.
         23    2    1    2    0    0 -0.90285345791E+01 -0.79079573738E+02 -0.20747914106E+03  0.24017912784E+03  0.91122588067E+02 0.  0.
         23    2    1    2    0    0 -0.32880200152E+02  0.16526985818E+03 -0.23406587271E+03  0.30213335613E+03  0.90013879664E+02 0.  0.
        -11    1    3    3    0    0  0.20166214877E+02 -0.25249828852E+02 -0.15850969270E+03  0.16177006139E+03  0.00000000000E+00 0. -1.
         11    1    3    3    0    0 -0.29194749456E+02 -0.53829744885E+02 -0.48969448360E+02  0.78409066459E+02  0.00000000000E+00 0.  1.
        -11    1    4    4    0    0  0.30009900918E+02  0.60675258921E+02 -0.67052606585E+02  0.95279238285E+02  0.00000000000E+00 0. -1.
         11    1    4    4    0    0 -0.62890101069E+02  0.10459459926E+03 -0.16701326612E+03  0.20685411784E+03  0.00000000000E+00 0.  1.
         21    1    1    2  503  502  0.94794798965E+02 -0.25651047188E+01 -0.13363800863E+02  0.95766512135E+02  0.00000000000E+00 0.  1.
          1    1    1    2  501    0 -0.52886064235E+02 -0.83625179722E+02 -0.12042412759E+03  0.15585915751E+03  0.00000000000E+00 0. -1.
<scales pt_clust_5="13000.00000" pt_clust_6="13000.00000" pt_clust_7="13000.00000" pt_clust_8="13000.00000" pt_clust_9="94.82950" pt_clust_10="13000.00000"></scales>
<clustering>
<clus scale="   90.014">  7  8 -1 -1</clus>
<clus scale="   91.123">  5  6 -1 -1</clus>
<clus scale="   94.829">  1  9  2 -1</clus>
<clus scale="   88.892">  7 10 -1 -1</clus>
<clus scale="  121.833">  2  5  1 -1</clus>
<clus scale="   94.829">  1  5  2 -1</clus>
</clustering>
</event>
<event>
10    2  0.4951045E-006  0.1922165E+03  0.7546771E-02  0.1181138E+00
          1   -1    0    0  503    0 -0.00000000000E+00  0.00000000000E+00  0.22370695950E+03  0.22370695950E+03  0.00000000000E+00 0. -1.
         21   -1    0    0  501  502  0.00000000000E+00 -0.00000000000E+00 -0.13929939576E+03  0.13929939576E+03  0.00000000000E+00 0.  1.
         23    2    1    2    0    0 -0.42557231593E+02 -0.25321083254E+02  0.75852837813E+02  0.13419442332E+03  0.99006136312E+02 0.  0.
         23    2    1    2    0    0  0.55853391822E+02  0.23186745288E+02  0.58243739965E+02  0.12440655175E+03  0.91801036689E+02 0.  0.
        -13    1    4    4    0    0  0.23902326256E+02 -0.29701584141E+01  0.75801644608E+02  0.79536358772E+02  0.00000000000E+00 0. -1.
         13    1    4    4    0    0  0.31951065566E+02  0.26156903702E+02 -0.17557904643E+02  0.44870192974E+02  0.00000000000E+00 0.  1.
        -13    1    3    3    0    0 -0.63893062492E+02 -0.47718410479E+02  0.53467515293E+02  0.96011172916E+02  0.00000000000E+00 0.  1.
         13    1    3    3    0    0  0.21335830898E+02  0.22397327224E+02  0.22385322520E+02  0.38183250402E+02  0.00000000000E+00 0. -1.
         21    1    1    2  503  502 -0.14262326172E+01  0.35966988424E+02  0.76310142238E+01  0.36795254773E+02  0.00000000000E+00 0.  1.
          1    1    1    2  501    0 -0.11869927612E+02 -0.33832650458E+02 -0.57320028266E+02  0.67610125417E+02  0.00000000000E+00 0. -1.
<scales pt_clust_5="13000.00000" pt_clust_6="13000.00000" pt_clust_7="13000.00000" pt_clust_8="13000.00000" pt_clust_9="35.99526" pt_clust_10="13000.00000"></scales>
<clustering>
<clus scale="   35.995">  2  9  1 -1</clus>
<clus scale="   91.801">  5  6 -1 -1</clus>
<clus scale="   20.214">  5 10 -1 -1</clus>
<clus scale="   99.006">  7  8 -1 -1</clus>
<clus scale="  109.214">  1  7  2 -1</clus>
<clus scale="   35.995">  2  5  1 -1</clus>
</clustering>
</event>
<event>
10    2  0.6273847E-006  0.8141150E+03  0.7546771E-02  0.9814416E-01
          2   -1    0    0  502    0 -0.00000000000E+00  0.00000000000E+00  0.78589228166E+03  0.78589228166E+03  0.00000000000E+00 0. -1.
         21   -1    0    0  503  502  0.00000000000E+00 -0.00000000000E+00 -0.19368301959E+04  0.19368301959E+04  0.00000000000E+00 0. -1.
         23    2    1    2    0    0  0.21289656935E+03  0.22451967824E+03  0.13679750578E+03  0.35044912559E+03  0.91471289909E+02 0.  0.
         23    2    1    2    0    0  0.16407117881E+03 -0.70628667491E+02  0.15872977077E+03  0.25562808914E+03  0.90789974330E+02 0.  0.
        -11    1    3    3    0    0  0.16867195231E+03  0.16924937525E+03  0.14450640819E+03  0.27924483974E+03  0.00000000000E+00 0. -1.
         11    1    3    3    0    0  0.44224617044E+02  0.55270302996E+02 -0.77089024102E+01  0.71204285843E+02  0.00000000000E+00 0.  1.
        -13    1    4    4    0    0  0.87004059197E+02  0.45240870479E-01  0.11004382456E+03  0.14028311262E+03  0.00000000000E+00 0. -1.
         13    1    4    4    0    0  0.77067119615E+02 -0.70673908362E+02  0.48685946214E+02  0.11534497652E+03  0.00000000000E+00 0.  1.
         21    1    1    2  503  501 -0.75265141327E+03 -0.29230268562E+03 -0.15089876546E+04  0.17114230195E+04  0.00000000000E+00 0. -1.
          2    1    1    2  501    0  0.37568366510E+03  0.13841167486E+03  0.62522463880E+02  0.40522224329E+03  0.00000000000E+00 0. -1.
<scales pt_clust_5="13000.00000" pt_clust_6="13000.00000" pt_clust_7="13000.00000" pt_clust_8="13000.00000" pt_clust_9="755.60738" pt_clust_10="13000.00000"></scales>
<clustering>
<clus scale="   90.790">  7  8 -1 -1</clus>
<clus scale="   91.471">  5  6 -1 -1</clus>
<clus scale="  322.647">  1  5  2 -1</clus>
<clus scale="  523.353">  7 10 -1 -1</clus>
<clus scale="  755.607">  2  9  1 -1</clus>
<clus scale="  755.607">  2  5  1 -1</clus>
</clustering>
</event>
<event>
10    2  0.4951045E-006  0.2106746E+03  0.7546771E-02  0.1166965E+00
         -1   -1    0    0    0  501 -0.00000000000E+00  0.00000000000E+00  0.27435643451E+03  0.27435643451E+03  0.00000000000E+00 0.  1.
         21   -1    0    0  501  502  0.00000000000E+00 -0.00000000000E+00 -0.32743243990E+03  0.32743243990E+03  0.00000000000E+00 0.  1.
         23    2    1    2    0    0 -0.73165407881E+01  0.70473423744E+02  0.21003761330E+03  0.23964358013E+03  0.91067070209E+02 0.  0.
         23    2    1    2    0    0 -0.75179197589E+02 -0.14827790698E+02 -0.59892077560E+02  0.13383499583E+03  0.91940034953E+02 0.  0.
        -11    1    4    4    0    0 -0.45254069383E+02 -0.52529391792E+02 -0.22534278356E+02  0.72904468305E+02  0.00000000000E+00 0. -1.
         11    1    4    4    0    0 -0.29925128206E+02  0.37701601093E+02 -0.37357799203E+02  0.60930527525E+02  0.00000000000E+00 0.  1.
        -13    1    3    3    0    0 -0.38241402108E+02  0.24669829334E+01  0.95430372153E+02  0.10283699125E+03  0.00000000000E+00 0.  1.
         13    1    3    3    0    0  0.30924861320E+02  0.68006440810E+02  0.11460724114E+03  0.13680658888E+03  0.00000000000E+00 0. -1.
         21    1    1    2  503  502  0.19207747366E+02 -0.22828547310E+02 -0.86921902216E+02  0.91899386375E+02  0.00000000000E+00 0.  1.
         -1    1    1    2    0  503  0.63287991011E+02 -0.32817085735E+02 -0.11629963891E+03  0.13641091207E+03  0.00000000000E+00 0.  1.
<scales pt_clust_5="13000.00000" pt_clust_6="13000.00000" pt_clust_7="13000.00000" pt_clust_8="13000.00000" pt_clust_9="29.83421" pt_clust_10="13000.00000"></scales>
<clustering>
<clus scale="   29.834">  2  9  1 -1</clus>
<clus scale="   91.067">  7  8 -1 -1</clus>
<clus scale="   91.940">  5  6 -1 -1</clus>
<clus scale="   86.135">  5 10 -1 -1</clus>
<clus scale="  114.451">  1  7  2 -1</clus>
<clus scale="   29.834">  2  5  1 -1</clus>
</clustering>
</event>
<event>
10    2  0.4951045E-006  0.1673377E+03  0.7546771E-02  0.1200286E+00
         21   -1    0    0  501  502  0.00000000000E+00  0.00000000000E+00  0.20809256407E+03  0.20809256407E+03  0.00000000000E+00 0.  1.
          1   -1    0    0  503    0 -0.00000000000E+00 -0.00000000000E+00 -0.19810307487E+03  0.19810307487E+03  0.00000000000E+00 0. -1.
         23    2    1    2    0    0  0.22279146747E+02 -0.45578322724E+02 -0.41052374666E+02  0.10970992819E+03  0.88188587670E+02 0.  0.
         23    2    1    2    0    0 -0.53781375982E+02  0.31805425650E+02 -0.78100797705E+02  0.13501310931E+03  0.90690592569E+02 0.  0.
        -11    1    4    4    0    0  0.18657014845E+02  0.12383196670E+02  0.51352905589E+01  0.22973875855E+02  0.00000000000E+00 0.  1.
         11    1    4    4    0    0 -0.72438390826E+02  0.19422228980E+02 -0.83236088264E+02  0.11203923346E+03  0.00000000000E+00 0. -1.
        -13    1    3    3    0    0  0.49753562559E+02 -0.18552019217E+01 -0.24452054982E+02  0.55468565461E+02  0.00000000000E+00 0.  1.
         13    1    3    3    0    0 -0.27474415812E+02 -0.43723120802E+02 -0.16600319684E+02  0.54241362727E+02  0.00000000000E+00 0. -1.
         21    1    1    2  503  502  0.22235124900E+02 -0.29505451595E+02  0.10444877351E+03  0.11079042712E+03  0.00000000000E+00 0.  1.
          1    1    1    2  501    0  0.92671043349E+01  0.43278348669E+02  0.24693888054E+02  0.50682174317E+02  0.00000000000E+00 0. -1.
<scales pt_clust_5="13000.00000" pt_clust_6="13000.00000" pt_clust_7="13000.00000" pt_clust_8="13000.00000" pt_clust_9="36.94553" pt_clust_10="13000.00000"></scales>
<clustering>
<clus scale="   36.946">  1  9  2 -1</clus>
<clus scale="   88.189">  7  8 -1 -1</clus>
<clus scale="   90.691">  5  6 -1 -1</clus>
<clus scale="   36.709">  5 10 -1 -1</clus>
<clus scale="  108.479">  2  7  1 -1</clus>
<clus scale="   36.946">  1  5  2 -1</clus>
</clustering>
</event>
<event>
10    2  0.4951045E-006  0.7273626E+03  0.7546771E-02  0.9983622E-01
          2   -1    0    0  502    0 -0.00000000000E+00  0.00000000000E+00  0.14528865796E+04  0.14528865796E+04  0.00000000000E+00 0. -1.
         21   -1    0    0  503  502  0.00000000000E+00 -0.00000000000E+00 -0.21861653438E+03  0.21861653438E+03  0.00000000000E+00 0. -1.
         23    2    1    2    0    0  0.18491590473E+03  0.17277157589E+03  0.18699015464E+03  0.32824666851E+03  0.93470039038E+02 0.  0.
         23    2    1    2    0    0 -0.36468623722E+03  0.10698827563E+03  0.64731573487E+03  0.75779646546E+03  0.10390033546E+03 0.  0.
        -11    1    4    4    0    0 -0.16017979170E+02  0.14526949782E+02  0.67590024141E+01  0.22655949335E+02  0.00000000000E+00 0.  1.
         11    1    4    4    0    0 -0.34866825805E+03  0.92461325846E+02  0.64055673246E+03  0.73514051612E+03  0.00000000000E+00 0. -1.
        -13    1    3    3    0    0  0.70752792458E+02  0.26504508244E+02  0.94308238620E+02  0.12084076493E+03  0.00000000000E+00 0.  1.
         13    1    3    3    0    0  0.11416311227E+03  0.14626706765E+03  0.92681916020E+02  0.20740590358E+03  0.00000000000E+00 0. -1.
         21    1    1    2  503  501 -0.12615331915E+02 -0.15721839358E+02 -0.35649203807E+02  0.40953492698E+02  0.00000000000E+00 0. -1.
          2    1    1    2  501    0  0.19238566440E+03 -0.26403801216E+03  0.43561335948E+03  0.54450648728E+03  0.00000000000E+00 0. -1.
<scales pt_clust_5="13000.00000" pt_clust_6="13000.00000" pt_clust_7="13000.00000" pt_clust_8="13000.00000" pt_clust_9="20.15745" pt_clust_10="13000.00000"></scales>
<clustering>
<clus scale="   20.157">  2  9  1 -1</clus>
<clus scale="   93.470">  7  8 -1 -1</clus>
<clus scale="  103.900">  5  6 -1 -1</clus>
<clus scale="  262.464">  1  7  2 -1</clus>
<clus scale="  330.221">  5 10 -1 -1</clus>
<clus scale="   20.157">  2  5  1 -1</clus>
</clustering>
</event>
<event>
10    2  0.4951045E-006  0.2670455E+03  0.7546771E-02  0.1142776E+00
          1   -1    0    0  503    0 -0.00000000000E+00  0.00000000000E+00  0.55567287499E+03  0.55567287499E+03  0.00000000000E+00 0. -1.
         21   -1    0    0  501  502  0.00000000000E+00 -0.00000000000E+00 -0.61116766555E+03  0.61116766555E+03  0.00000000000E+00 0. -1.
         23    2    1    2    0    0  0.49199256668E+01 -0.24866625897E+02  0.14119204507E+03  0.17066539737E+03  0.92460421347E+02 0.  0.
         23    2    1    2    0    0 -0.25096650770E+02  0.82673102205E+02  0.35931071705E+03  0.37829691772E+03  0.80868305671E+02 0.  0.
        -11    1    4    4    0    0  0.28794046418E+02  0.17525789224E+02  0.10894932531E+03  0.11404475386E+03  0.00000000000E+00 0. -1.
         11    1    4    4    0    0 -0.53890697188E+02  0.65147312982E+02  0.25036139174E+03  0.26425216386E+03  0.00000000000E+00 0.  1.
        -11    1    3    3    0    0 -0.21687345466E+02 -0.29899034200E+02  0.12256191198E+02  0.38916672804E+02  0.00000000000E+00 0.  1.
         11    1    3    3    0    0  0.26607271133E+02  0.50324083030E+01  0.12893585387E+03  0.13174872456E+03  0.00000000000E+00 0. -1.
         21    1    1    2  503  502  0.72611124047E+02 -0.16200672354E+02 -0.54498858369E+03  0.55004308329E+03  0.00000000000E+00 0. -1.
          1    1    1    2  501    0 -0.52434398944E+02 -0.41605803954E+02 -0.11008968990E+02  0.67835142172E+02  0.00000000000E+00 0. -1.
<scales pt_clust_5="13000.00000" pt_clust_6="13000.00000" pt_clust_7="13000.00000" pt_clust_8="13000.00000" pt_clust_9="74.39649" pt_clust_10="13000.00000"></scales>
<clustering>
<clus scale="   74.396">  2  9  1 -1</clus>
<clus scale="   80.868">  5  6 -1 -1</clus>
<clus scale="   52.176">  5 10 -1 -1</clus>
<clus scale="   92.460">  7  8 -1 -1</clus>
<clus scale="   99.197">  1  7  2 -1</clus>
<clus scale="   74.396">  2  5  1 -1</clus>
</clustering>
</event>
<event>
10    2  0.4951045E-006  0.2109174E+03  0.7546771E-02  0.1148851E+00
         21   -1    0    0  501  502  0.00000000000E+00  0.00000000000E+00  0.47602708929E+03  0.47602708929E+03  0.00000000000E+00 0.  1.
         -3   -1    0    0    0  501 -0.00000000000E+00 -0.00000000000E+00 -0.10265774690E+03  0.10265774690E+03  0.00000000000E+00 0.  1.
         23    2    1    2    0    0  0.13580743321E+03 -0.64397983496E+02  0.11487416495E+03  0.21581985988E+03  0.10388156214E+03 0.  0.
         23    2    1    2    0    0 -0.18440863009E+02  0.15898997208E+02  0.30951088025E+02  0.94236604821E+02  0.85613809035E+02 0.  0.
        -11    1    3    3    0    0  0.66548833432E+02 -0.68212428455E+02  0.18495950533E+02  0.97076170160E+02  0.00000000000E+00 0.  1.
         11    1    3    3    0    0  0.69258599783E+02  0.38144449588E+01  0.96378214421E+02  0.11874368972E+03  0.00000000000E+00 0. -1.
        -13    1    4    4    0    0 -0.19388944737E+02 -0.25628966001E+02 -0.12168685500E+02  0.34363526930E+02  0.00000000000E+00 0.  1.
         13    1    4    4    0    0  0.94808172780E+00  0.41527963209E+02  0.43119773525E+02  0.59873077890E+02  0.00000000000E+00 0. -1.
         21    1    1    2  503  502 -0.25508213797E+02  0.12385038092E+01  0.10638936280E+03  0.10941160532E+03  0.00000000000E+00 0.  1.
         -3    1    1    2    0  503 -0.91858356408E+02  0.47260482479E+02  0.12115472661E+03  0.15921676616E+03  0.00000000000E+00 0.  1.
<scales pt_clust_5="13000.00000" pt_clust_6="13000.00000" pt_clust_7="13000.00000" pt_clust_8="13000.00000" pt_clust_9="25.53826" pt_clust_10="13000.00000"></scales>
<clustering>
<clus scale="   25.538">  1  9  2 -1</clus>
<clus scale="   85.614">  7  8 -1 -1</clus>
<clus scale="  103.882">  5  6 -1 -1</clus>
<clus scale="  112.229">  7 10 -1 -1</clus>
<clus scale="  174.155">  2  5  1 -1</clus>
<clus scale="   25.538">  1  5  2 -1</clus>
</clustering>
</event>
<event>
10    2  0.4951045E-006  0.1430871E+03  0.7546771E-02  0.1228469E+00
         21   -1    0    0  501  502  0.00000000000E+00  0.00000000000E+00  0.46262742297E+02  0.46262742297E+02  0.00000000000E+00 0.  1.
          1   -1    0    0  503    0 -0.00000000000E+00 -0.00000000000E+00 -0.11019381614E+04  0.11019381614E+04  0.00000000000E+00 0. -1.
         23    2    1    2    0    0 -0.22720248272E+02  0.18516518641E+02 -0.52215381074E+03  0.53119037529E+03  0.93056657933E+02 0.  0.
         23    2    1    2    0    0  0.32554987355E+02  0.46997116765E+01 -0.30837362272E+03  0.32258344504E+03  0.88791178246E+02 0.  0.
        -13    1    3    3    0    0 -0.13807146070E+01 -0.37222982963E+02 -0.17209812369E+03  0.17608299466E+03  0.00000000000E+00 0.  1.
         13    1    3    3    0    0 -0.21339533665E+02  0.55739501604E+02 -0.35005568705E+03  0.35510738062E+03  0.00000000000E+00 0. -1.
        -13    1    4    4    0    0  0.31474427269E+01  0.41424774971E+02 -0.88962487367E+02  0.98184736775E+02  0.00000000000E+00 0. -1.
         13    1    4    4    0    0  0.29407544628E+02 -0.36725063295E+02 -0.21941113535E+03  0.22439870826E+03  0.00000000000E+00 0.  1.
         21    1    1    2  503  502  0.28645423428E+02 -0.49704391536E+01  0.26417151903E+02  0.39282712017E+02  0.00000000000E+00 0.  1.
          1    1    1    2  501    0 -0.38480162510E+02 -0.18245791164E+02 -0.25156513756E+03  0.25514437137E+03  0.00000000000E+00 0. -1.
<scales pt_clust_5="13000.00000" pt_clust_6="13000.00000" pt_clust_7="13000.00000" pt_clust_8="13000.00000" pt_clust_9="29.07345" pt_clust_10="13000.00000"></scales>
<clustering>
<clus scale="   29.073">  1  9  2 -1</clus>
<clus scale="   88.791">  7  8 -1 -1</clus>
<clus scale="   39.481">  7 10 -1 -1</clus>
<clus scale="   93.057">  5  6 -1 -1</clus>
<clus scale="   95.467">  2  5  1 -1</clus>
<clus scale="   29.073">  1  5  2 -1</clus>
</clustering>
</event>
<event>
10    2  0.4951045E-006  0.4805504E+03  0.7546771E-02  0.1058795E+00
         21   -1    0    0  501  502  0.00000000000E+00  0.00000000000E+00  0.35616206269E+03  0.35616206269E+03  0.00000000000E+00 0.  1.
          1   -1    0    0  503    0 -0.00000000000E+00 -0.00000000000E+00 -0.86690616380E+03  0.86690616380E+03  0.00000000000E+00 0. -1.
         23    2    1    2    0    0  0.40189255349E+02 -0.11706950562E+03 -0.22247586320E+03  0.27089145652E+03  0.92553909240E+02 0.  0.
         23    2    1    2    0    0 -0.11711181371E+02 -0.85146376583E+02 -0.51402653675E+03  0.53367521460E+03  0.11488645256E+03 0.  0.
        -13    1    4    4    0    0  0.17459917052E+02  0.15539699554E+02 -0.28005222283E+02  0.36477711562E+02  0.00000000000E+00 0.  1.
         13    1    4    4    0    0 -0.29171098423E+02 -0.10068607614E+03 -0.48602131446E+03  0.49719750303E+03  0.00000000000E+00 0. -1.
        -13    1    3    3    0    0  0.37493345300E+02 -0.58767726505E+01 -0.29152571617E+02  0.47855614409E+02  0.00000000000E+00 0.  1.
         13    1    3    3    0    0  0.26959100486E+01 -0.11119273297E+03 -0.19332329158E+03  0.22303584211E+03  0.00000000000E+00 0. -1.
         21    1    1    2  503  502  0.97561601190E+01  0.29753287222E+02  0.23929387784E+03  0.24133379526E+03  0.00000000000E+00 0.  1.
          1    1    1    2  501    0 -0.38234234096E+02  0.17246259498E+03 -0.13535579004E+02  0.17716776011E+03  0.00000000000E+00 0. -1.
<scales pt_clust_5="13000.00000" pt_clust_6="13000.00000" pt_clust_7="13000.00000" pt_clust_8="13000.00000" pt_clust_9="31.31199" pt_clust_10="13000.00000"></scales>
<clustering>
<clus scale="   31.312">  1  9  2 -1</clus>
<clus scale="   92.554">  7  8 -1 -1</clus>
<clus scale="  114.886">  5  6 -1 -1</clus>
<clus scale="  150.458">  2  7  1 -1</clus>
<clus scale="  174.167">  5 10 -1 -1</clus>
<clus scale="   31.312">  1  5  2 -1</clus>
</clustering>
</event>
<event>
10    2  0.4951045E-006  0.2064056E+03  0.7546771E-02  0.1149436E+00
         21   -1    0    0  501  502  0.00000000000E+00  0.00000000000E+00  0.82614700311E+02  0.82614700311E+02  0.00000000000E+00 0.  1.
          1   -1    0    0  503    0 -0.00000000000E+00 -0.00000000000E+00 -0.63522805932E+03  0.63522805932E+03  0.00000000000E+00 0. -1.
         23    2    1    2    0    0 -0.10328378767E+03  0.99847869018E+02 -0.24375914494E+03  0.29744359732E+03  0.91744400924E+02 0.  0.
         23    2    1    2    0    0  0.81555589639E+02 -0.10116530374E+03 -0.26921494090E+03  0.31307744729E+03  0.93032632538E+02 0.  0.
        -11    1    3    3    0    0 -0.60851389850E+02  0.10973646575E+03 -0.19667324850E+03  0.23329241359E+03  0.00000000000E+00 0.  1.
         11    1    3    3    0    0 -0.42432397824E+02 -0.98885967360E+01 -0.47085896447E+02  0.64151183736E+02  0.00000000000E+00 0. -1.
        -11    1    4    4    0    0  0.49168740948E+02 -0.46572989490E+02 -0.48193920981E+02  0.83121973365E+02  0.00000000000E+00 0. -1.
         11    1    4    4    0    0  0.32386848691E+02 -0.54592314252E+02 -0.22102101992E+03  0.22995547393E+03  0.00000000000E+00 0.  1.
         21    1    1    2  503  502 -0.26973933427E+01  0.47066557360E+02 -0.12424550221E+02  0.48753525009E+02  0.00000000000E+00 0. -1.
          1    1    1    2  501    0  0.24425591378E+02 -0.45749122636E+02 -0.27214722948E+02  0.58568190012E+02  0.00000000000E+00 0. -1.
<scales pt_clust_5="13000.00000" pt_clust_6="13000.00000" pt_clust_7="13000.00000" pt_clust_8="13000.00000" pt_clust_9="47.14379" pt_clust_10="13000.00000"></scales>
<clustering>
<clus scale="   47.144">  1  9  2 -1</clus>
<clus scale="   91.744">  5  6 -1 -1</clus>
<clus scale="   93.033">  7  8 -1 -1</clus>
<clus scale="   41.732">  7 10 -1 -1</clus>
<clus scale="  183.265">  2  5  1 -1</clus>
<clus scale="   47.144">  1  5  2 -1</clus>
</clustering>
</event>
<event>
10    2  0.4951045E-006  0.4078845E+03  0.7546771E-02  0.1052846E+00
          1   -1    0    0  503    0 -0.00000000000E+00  0.00000000000E+00  0.12121697658E+04  0.12121697658E+04  0.00000000000E+00 0. -1.
         21   -1    0    0  501  502  0.00000000000E+00 -0.00000000000E+00 -0.14829496669E+03  0.14829496669E+03  0.00000000000E+00 0. -1.
         23    2    1    2    0    0  0.22819139360E+03  0.11395520629E+03  0.28427371408E+03  0.39245396216E+03  0.90285473613E+02 0.  0.
         23    2    1    2    0    0 -0.15733085431E+03 -0.15893256916E+03  0.74003825362E+03  0.77881328253E+03  0.94238808197E+02 0.  0.
        -11    1    4    4    0    0 -0.55809295007E+02 -0.27848496421E+02  0.34172223343E+03  0.34736767406E+03  0.00000000000E+00 0. -1.
         11    1    4    4    0    0 -0.10152155930E+03 -0.13108407274E+03  0.39831602019E+03  0.43144560847E+03  0.00000000000E+00 0.  1.
        -13    1    3    3    0    0  0.11362603510E+02  0.38792685037E+02  0.33249555532E+02  0.52340367920E+02  0.00000000000E+00 0.  1.
         13    1    3    3    0    0  0.21682879009E+03  0.75162521249E+02  0.25102415855E+03  0.34011359424E+03  0.00000000000E+00 0. -1.
         21    1    1    2  503  502  0.40401851719E+02  0.13459794771E+02 -0.31944242251E+02  0.53234484224E+02  0.00000000000E+00 0. -1.
          1    1    1    2  501    0 -0.11126239101E+03  0.31517568106E+02  0.71507073645E+02  0.13596300355E+03  0.00000000000E+00 0. -1.
<scales pt_clust_5="13000.00000" pt_clust_6="13000.00000" pt_clust_7="13000.00000" pt_clust_8="13000.00000" pt_clust_9="42.58492" pt_clust_10="13000.00000"></scales>
<clustering>
<clus scale="   42.585">  2  9  1 -1</clus>
<clus scale="   90.285">  7  8 -1 -1</clus>
<clus scale="   94.239">  5  6 -1 -1</clus>
<clus scale="  105.161">  5 10 -1 -1</clus>
<clus scale="  291.013">  1  7  2 -1</clus>
<clus scale="   42.585">  2  5  1 -1</clus>
</clustering>
</event>
<event>
10    2  0.4951045E-006  0.1282209E+03  0.7546771E-02  0.1242172E+00
         21   -1    0    0  501  502  0.00000000000E+00  0.00000000000E+00  0.12660165105E+03  0.12660165105E+03  0.00000000000E+00 0.  1.
          4   -1    0    0  503    0 -0.00000000000E+00 -0.00000000000E+00 -0.18549959886E+03  0.18549959886E+03  0.00000000000E+00 0. -1.
         23    2    1    2    0    0  0.13955789384E+02  0.29443406470E+02 -0.55268483745E+02  0.11168071946E+03  0.91412797582E+02 0.  0.
         23    2    1    2    0    0 -0.11452341398E+02 -0.32872544936E+02 -0.47714344726E+02  0.10335222834E+03  0.84813112638E+02 0.  0.
        -11    1    3    3    0    0 -0.25827334789E+02 -0.13996823938E+02  0.21063469488E+01  0.29451638327E+02  0.00000000000E+00 0. -1.
         11    1    3    3    0    0  0.39783124173E+02  0.43440230409E+02 -0.57374830694E+02  0.82229081134E+02  0.00000000000E+00 0.  1.
        -13    1    4    4    0    0 -0.14547097796E+02  0.27519863722E+02 -0.18261520445E+02  0.36089390165E+02  0.00000000000E+00 0. -1.
         13    1    4    4    0    0  0.30947563980E+01 -0.60392408658E+02 -0.29452824282E+02  0.67262838171E+02  0.00000000000E+00 0.  1.
         21    1    1    2  503  502  0.37532988781E+02  0.23124334400E+01  0.42831651634E+02  0.56996692684E+02  0.00000000000E+00 0.  1.
          4    1    1    2  501    0 -0.40036436767E+02  0.11167050261E+01  0.12532290362E+01  0.40071609427E+02  0.00000000000E+00 0. -1.
<scales pt_clust_5="13000.00000" pt_clust_6="13000.00000" pt_clust_7="13000.00000" pt_clust_8="13000.00000" pt_clust_9="37.60416" pt_clust_10="13000.00000"></scales>
<clustering>
<clus scale="   37.604">  1  9  2 -1</clus>
<clus scale="   84.813">  7  8 -1 -1</clus>
<clus scale="   29.974">  7 10 -1 -1</clus>
<clus scale="   91.413">  5  6 -1 -1</clus>
<clus scale="  100.223">  2  5  1 -1</clus>
<clus scale="   37.604">  1  5  2 -1</clus>
</clustering>
</event>
<event>
10    2  0.4951045E-006  0.1455753E+03  0.7546771E-02  0.1217708E+00
         21   -1    0    0  501  502  0.00000000000E+00  0.00000000000E+00  0.14243899753E+03  0.14243899753E+03  0.00000000000E+00 0. -1.
          2   -1    0    0  503    0 -0.00000000000E+00 -0.00000000000E+00 -0.14625819691E+03  0.14625819691E+03  0.00000000000E+00 0. -1.
         23    2    1    2    0    0  0.47661067796E+02  0.29819879775E+02 -0.77962537752E+01  0.11326806466E+03  0.98020764568E+02 0.  0.
         23    2    1    2    0    0  0.84758658077E+01 -0.18039443209E+02  0.52645543201E+01  0.93056141315E+02  0.90743970002E+02 0.  0.
        -11    1    3    3    0    0  0.72776692725E+02  0.11495717212E+02  0.14393531227E+02  0.75071780713E+02  0.00000000000E+00 0. -1.
         11    1    3    3    0    0 -0.25115624929E+02  0.18324162563E+02 -0.22189785002E+02  0.38196283951E+02  0.00000000000E+00 0.  1.
        -13    1    4    4    0    0 -0.25405664556E+02 -0.15563150677E+02 -0.31253870852E+02  0.43179438321E+02  0.00000000000E+00 0.  1.
         13    1    4    4    0    0  0.33881530363E+02 -0.24762925328E+01  0.36518425172E+02  0.49876702994E+02  0.00000000000E+00 0. -1.
         21    1    1    2  503  502 -0.14672585237E+02  0.22824227725E+02  0.62452782380E+01  0.27843017600E+02  0.00000000000E+00 0. -1.
          2    1    1    2  501    0 -0.41464348367E+02 -0.34604664291E+02 -0.75327781625E+01  0.54529970869E+02  0.00000000000E+00 0. -1.
<scales pt_clust_5="13000.00000" pt_clust_6="13000.00000" pt_clust_7="13000.00000" pt_clust_8="13000.00000" pt_clust_9="27.13356" pt_clust_10="13000.00000"></scales>
<clustering>
<clus scale="   27.134">  1  9  2 -1</clus>
<clus scale="   90.744">  7  8 -1 -1</clus>
<clus scale="   53.616">  7 10 -1 -1</clus>
<clus scale="   98.021">  5  6 -1 -1</clus>
<clus scale="  113.505">  2  5  1 -1</clus>
<clus scale="   27.134">  1  5  2 -1</clus>
</clustering>
</event>
<event>
10    2  0.4951045E-006  0.3785101E+03  0.7546771E-02  0.1073681E+00
          1   -1    0    0  502    0 -0.00000000000E+00  0.00000000000E+00  0.15118802051E+04  0.15118802051E+04  0.00000000000E+00 0. -1.
         21   -1    0    0  503  502  0.00000000000E+00 -0.00000000000E+00 -0.18386201689E+03  0.18386201689E+03  0.00000000000E+00 0.  1.
         23    2    1    2    0    0 -0.84001176789E+02 -0.19562655807E+03  0.81424484887E+03  0.84644825660E+03  0.90299663641E+02 0.  0.
         23    2    1    2    0    0  0.11491950369E+03  0.17831009972E+03  0.36820619071E+03  0.43465330798E+03  0.91360359402E+02 0.  0.
        -13    1    3    3    0    0 -0.51082566040E+02 -0.10326941923E+03  0.59822256106E+03  0.60921608159E+03  0.00000000000E+00 0. -1.
         13    1    3    3    0    0 -0.32918610749E+02 -0.92357138836E+02  0.21602228781E+03  0.23723217501E+03  0.00000000000E+00 0.  1.
        -13    1    4    4    0    0  0.51916198967E+02  0.13617244011E+03  0.29618614840E+03  0.33009765171E+03  0.00000000000E+00 0.  1.
         13    1    4    4    0    0  0.63003304724E+02  0.42137659612E+02  0.72020042307E+02  0.10455565627E+03  0.00000000000E+00 0. -1.
         21    1    1    2  503  501  0.25166780258E+02  0.11508071970E+03 -0.93460749501E+02  0.15037237303E+03  0.00000000000E+00 0.  1.
          1    1    1    2  501    0 -0.56085107160E+02 -0.97764261352E+02  0.23902789809E+03  0.26426828434E+03  0.00000000000E+00 0. -1.
<scales pt_clust_5="13000.00000" pt_clust_6="13000.00000" pt_clust_7="13000.00000" pt_clust_8="13000.00000" pt_clust_9="117.80042" pt_clust_10="13000.00000"></scales>
<clustering>
<clus scale="   90.300">  5  6 -1 -1</clus>
<clus scale="   91.360">  7  8 -1 -1</clus>
<clus scale="  112.709">  7 10 -1 -1</clus>
<clus scale="  117.800">  2  9  1 -1</clus>
<clus scale="  203.997">  1  5  2 -1</clus>
<clus scale="  117.800">  2  5  1 -1</clus>
</clustering>
</event>
<event>
10    2  0.4951045E-006  0.1365568E+04  0.7546771E-02  0.9272592E-01
         21   -1    0    0  501  502  0.00000000000E+00  0.00000000000E+00  0.90647782297E+03  0.90647782297E+03  0.00000000000E+00 0. -1.
          2   -1    0    0  503    0 -0.00000000000E+00 -0.00000000000E+00 -0.19548566730E+04  0.19548566730E+04  0.00000000000E+00 0. -1.
         23    2    1    2    0    0 -0.43088232366E+03 -0.12456223377E+03 -0.78865835605E+03  0.91183515973E+03  0.91027627893E+02 0.  0.
         23    2    1    2    0    0  0.94883852408E+02  0.53232525317E+03 -0.83471355165E+03  0.99875102744E+03  0.91562988751E+02 0.  0.
        -11    1    4    4    0    0 -0.85862150865E+01  0.33397151399E+02 -0.90203958256E+02  0.96570424542E+02  0.00000000000E+00 0.  1.
         11    1    4    4    0    0  0.10347006749E+03  0.49892810177E+03 -0.74450959339E+03  0.90218060290E+03  0.00000000000E+00 0. -1.
        -13    1    3    3    0    0 -0.28435729256E+03 -0.12626820282E+03 -0.53456596965E+03  0.61851718228E+03  0.00000000000E+00 0.  1.
         13    1    3    3    0    0 -0.14652503110E+03  0.17059690476E+01 -0.25409238640E+03  0.29331797745E+03  0.00000000000E+00 0. -1.
         21    1    1    2  503  502  0.76119627123E+02  0.10974767025E+02  0.43030135167E+03  0.43712000228E+03  0.00000000000E+00 0. -1.
          2    1    1    2  501    0  0.25987884413E+03 -0.41873778642E+03  0.14469170604E+03  0.51362830646E+03  0.00000000000E+00 0. -1.
<scales pt_clust_5="13000.00000" pt_clust_6="13000.00000" pt_clust_7="13000.00000" pt_clust_8="13000.00000" pt_clust_9="76.90672" pt_clust_10="13000.00000"></scales>
<clustering>
<clus scale="   76.907">  1  9  2 -1</clus>
<clus scale="   91.028">  7  8 -1 -1</clus>
<clus scale="   91.563">  5  6 -1 -1</clus>
<clus scale="  447.951">  2  7  1 -1</clus>
<clus scale="  493.741">  5 10 -1 -1</clus>
<clus scale="   76.907">  1  5  2 -1</clus>
</clustering>
</event>
<event>
10    2  0.4951045E-006  0.2583756E+03  0.7546771E-02  0.1132934E+00
         21   -1    0    0  501  502  0.00000000000E+00  0.00000000000E+00  0.35730777501E+03  0.35730777501E+03  0.00000000000E+00 0.  1.
          2   -1    0    0  503    0 -0.00000000000E+00 -0.00000000000E+00 -0.51999808550E+03  0.51999808550E+03  0.00000000000E+00 0. -1.
         23    2    1    2    0    0  0.90863229575E+02  0.52456794120E+01  0.77408060408E+02  0.15035932968E+03  0.91281304566E+02 0.  0.
         23    2    1    2    0    0 -0.22924640996E+02  0.56917979844E+02 -0.23755554804E+03  0.26185231674E+03  0.91481155341E+02 0.  0.
        -11    1    3    3    0    0  0.93229481611E+02 -0.20958894621E+02  0.79023071383E+02  0.12399861820E+03  0.00000000000E+00 0.  1.
         11    1    3    3    0    0 -0.23662520364E+01  0.26204574033E+02 -0.16150109746E+01  0.26360711474E+02  0.00000000000E+00 0. -1.
        -13    1    4    4    0    0 -0.50784323954E+02  0.63531577456E+02 -0.18218561901E+03  0.19951668769E+03  0.00000000000E+00 0. -1.
         13    1    4    4    0    0  0.27859682958E+02 -0.66135976118E+01 -0.55369929033E+02  0.62335629049E+02  0.00000000000E+00 0.  1.
         21    1    1    2  503  502 -0.63700921939E+01  0.71954466651E+02  0.20105485434E+03  0.21363772560E+03  0.00000000000E+00 0.  1.
          2    1    1    2  501    0 -0.61568496385E+02 -0.13411812591E+03 -0.20359767719E+03  0.25145648849E+03  0.00000000000E+00 0. -1.
<scales pt_clust_5="13000.00000" pt_clust_6="13000.00000" pt_clust_7="13000.00000" pt_clust_8="13000.00000" pt_clust_9="72.23589" pt_clust_10="13000.00000"></scales>
<clustering>
<clus scale="   72.236">  1  9  2 -1</clus>
<clus scale="   91.281">  5  6 -1 -1</clus>
<clus scale="   91.481">  7  8 -1 -1</clus>
<clus scale="  137.683">  7 10 -1 -1</clus>
<clus scale="  138.994">  2  5  1 -1</clus>
<clus scale="   72.236">  1  5  2 -1</clus>
</clustering>
</event>
<event>
10    2  0.4951045E-006  0.4652131E+03  0.7546771E-02  0.1028430E+00
          1   -1    0    0  503    0 -0.00000000000E+00  0.00000000000E+00  0.23007166052E+04  0.23007166052E+04  0.00000000000E+00 0. -1.
         21   -1    0    0  501  502  0.00000000000E+00 -0.00000000000E+00 -0.38449339580E+03  0.38449339580E+03  0.00000000000E+00 0. -1.
         23    2    1    2    0    0 -0.30034659784E+03 -0.26419356009E+03  0.19877320249E+04  0.20294331106E+04  0.86682360244E+02 0.  0.
         23    2    1    2    0    0  0.10073553335E+02  0.24973911677E+02  0.88957257643E+02  0.13054321172E+03  0.91667680764E+02 0.  0.
        -13    1    3    3    0    0 -0.20696172197E+03 -0.14092223083E+03  0.13658570109E+04  0.13886171552E+04  0.00000000000E+00 0. -1.
         13    1    3    3    0    0 -0.93384875874E+02 -0.12327132926E+03  0.62187501403E+03  0.64081595543E+03  0.00000000000E+00 0.  1.
        -13    1    4    4    0    0 -0.16420026704E+02  0.44329177925E+02  0.85308058586E+02  0.97530293510E+02  0.00000000000E+00 0. -1.
         13    1    4    4    0    0  0.26493580039E+02 -0.19355266247E+02  0.36491990573E+01  0.33012918207E+02  0.00000000000E+00 0.  1.
         21    1    1    2  503  502  0.12760627335E+03 -0.65226192859E+01 -0.19009427195E+03  0.22904527454E+03  0.00000000000E+00 0. -1.
          1    1    1    2  501    0  0.16266677116E+03  0.24574226770E+03  0.29628198784E+02  0.29618840412E+03  0.00000000000E+00 0. -1.
<scales pt_clust_5="13000.00000" pt_clust_6="13000.00000" pt_clust_7="13000.00000" pt_clust_8="13000.00000" pt_clust_9="127.77287" pt_clust_10="13000.00000"></scales>
<clustering>
<clus scale="   86.682">  5  6 -1 -1</clus>
<clus scale="   91.668">  7  8 -1 -1</clus>
<clus scale="  127.773">  2  9  1 -1</clus>
<clus scale="  354.283">  7 10 -1 -1</clus>
<clus scale="  398.781">  1  5  2 -1</clus>
<clus scale="  127.773">  2  5  1 -1</clus>
</clustering>
</event>
<event>
10    2  0.4951045E-006  0.2158405E+03  0.7546771E-02  0.1156691E+00
         21   -1    0    0  501  502  0.00000000000E+00  0.00000000000E+00  0.11249661796E+03  0.11249661796E+03  0.00000000000E+00 0. -1.
          2   -1    0    0  503    0 -0.00000000000E+00 -0.00000000000E+00 -0.54661644280E+03  0.54661644280E+03  0.00000000000E+00 0. -1.
         23    2    1    2    0    0  0.76046299443E+02  0.65903138295E+02 -0.33506881349E+03  0.36143014029E+03  0.90743447359E+02 0.  0.
         23    2    1    2    0    0  0.86326821290E+01 -0.40006831387E+02 -0.11161477204E+03  0.15266421687E+03  0.95778056024E+02 0.  0.
        -11    1    3    3    0    0  0.86044560846E+02  0.26523027868E+02 -0.27098386150E+03  0.28555102986E+03  0.00000000000E+00 0.  1.
         11    1    3    3    0    0 -0.99982614022E+01  0.39380110427E+02 -0.64084951991E+02  0.75879110432E+02  0.00000000000E+00 0. -1.
        -13    1    4    4    0    0  0.23161622076E+02  0.26961625185E+02 -0.41084490834E+02  0.54326101985E+02  0.00000000000E+00 0. -1.
         13    1    4    4    0    0 -0.14528939947E+02 -0.66968456572E+02 -0.70530281204E+02  0.98338114881E+02  0.00000000000E+00 0.  1.
         21    1    1    2  503  502  0.14185937326E+02 -0.22116461150E+02  0.34808126146E+02  0.43611745177E+02  0.00000000000E+00 0. -1.
          2    1    1    2  501    0 -0.98864918898E+02 -0.37798457580E+01 -0.22244365448E+02  0.10140695842E+03  0.00000000000E+00 0. -1.
<scales pt_clust_5="13000.00000" pt_clust_6="13000.00000" pt_clust_7="13000.00000" pt_clust_8="13000.00000" pt_clust_9="26.27506" pt_clust_10="13000.00000"></scales>
<clustering>
<clus scale="   26.275">  1  9  2 -1</clus>
<clus scale="   90.743">  5  6 -1 -1</clus>
<clus scale="   95.778">  7  8 -1 -1</clus>
<clus scale="   92.549">  7 10 -1 -1</clus>
<clus scale="  135.080">  2  5  1 -1</clus>
<clus scale="   26.275">  1  5  2 -1</clus>
</clustering>
</event>
<event>
10    2  0.4951045E-006  0.2585430E+03  0.7546771E-02  0.1125569E+00
          1   -1    0    0  502    0 -0.00000000000E+00  0.00000000000E+00  0.59227387724E+03  0.59227387724E+03  0.00000000000E+00 0. -1.
         21   -1    0    0  503  502  0.00000000000E+00 -0.00000000000E+00 -0.11658134275E+03  0.11658134275E+03  0.00000000000E+00 0. -1.
         23    2    1    2    0    0  0.80537887993E+02 -0.11837916969E+03  0.36294980431E+03  0.40096321862E+03  0.92406509583E+02 0.  0.
         23    2    1    2    0    0  0.40077468745E+02  0.77533168918E+02  0.96375761173E+02  0.15805619307E+03  0.89865883641E+02 0.  0.
        -13    1    4    4    0    0 -0.23645968743E+02  0.13302606423E+02  0.48794097844E+02  0.55829697830E+02  0.00000000000E+00 0.  1.
         13    1    4    4    0    0  0.63723437489E+02  0.64230562495E+02  0.47581663329E+02  0.10222649524E+03  0.00000000000E+00 0. -1.
        -13    1    3    3    0    0  0.64226083886E+02 -0.18978363503E+02  0.11121111755E+03  0.12981941611E+03  0.00000000000E+00 0. -1.
         13    1    3    3    0    0  0.16311804107E+02 -0.99400806189E+02  0.25173868676E+03  0.27114380250E+03  0.00000000000E+00 0.  1.
         21    1    1    2  503  501 -0.47781810386E+01  0.27035617089E+02 -0.11709161963E+02  0.29847279261E+02  0.00000000000E+00 0. -1.
          1    1    1    2  501    0 -0.11583717570E+03  0.13810383685E+02  0.28076130969E+02  0.11998852904E+03  0.00000000000E+00 0. -1.
<scales pt_clust_5="13000.00000" pt_clust_6="13000.00000" pt_clust_7="13000.00000" pt_clust_8="13000.00000" pt_clust_9="27.45461" pt_clust_10="13000.00000"></scales>
<clustering>
<clus scale="   27.455">  2  9  1 -1</clus>
<clus scale="   89.866">  5  6 -1 -1</clus>
<clus scale="   92.407">  7  8 -1 -1</clus>
<clus scale="  121.127">  5 10 -1 -1</clus>
<clus scale="  166.271">  1  7  2 -1</clus>
<clus scale="   27.455">  2  5  1 -1</clus>
</clustering>
</event>
<event>
10    2  0.4951045E-006  0.1673138E+03  0.7546771E-02  0.1200386E+00
         21   -1    0    0  503  502  0.00000000000E+00  0.00000000000E+00  0.33203996739E+03  0.33203996739E+03  0.00000000000E+00 0. -1.
         -2   -1    0    0    0  501 -0.00000000000E+00 -0.00000000000E+00 -0.13009047563E+03  0.13009047563E+03  0.00000000000E+00 0.  1.
         23    2    1    2    0    0  0.52089211154E+02 -0.60952517525E+01 -0.48301913616E+02  0.11704137570E+03  0.92817944137E+02 0.  0.
         23    2    1    2    0    0 -0.56855037727E+02 -0.53097993947E+02  0.69466568193E+02  0.13557522269E+03  0.86620694030E+02 0.  0.
        -11    1    3    3    0    0  0.60647845768E+02 -0.39243219249E+02 -0.35524938036E+02  0.80499768172E+02  0.00000000000E+00 0.  1.
         11    1    3    3    0    0 -0.85586346147E+01  0.33147967496E+02 -0.12776975580E+02  0.36541607526E+02  0.00000000000E+00 0. -1.
        -13    1    4    4    0    0  0.22137601811E+02 -0.34033392816E+01  0.77979837883E+01  0.23716337900E+02  0.00000000000E+00 0.  1.
         13    1    4    4    0    0 -0.78992639538E+02 -0.49694654665E+02  0.61668584405E+02  0.11185888479E+03  0.00000000000E+00 0. -1.
         21    1    1    2  503  501  0.19560608426E+02  0.48301588405E+01  0.13615744445E+03  0.13764010141E+03  0.00000000000E+00 0. -1.
         -2    1    1    2    0  502 -0.14794781853E+02  0.54363086859E+02  0.44627392740E+02  0.71873743228E+02  0.00000000000E+00 0.  1.
<scales pt_clust_5="13000.00000" pt_clust_6="13000.00000" pt_clust_7="13000.00000" pt_clust_8="13000.00000" pt_clust_9="20.14815" pt_clust_10="13000.00000"></scales>
<clustering>
<clus scale="   20.148">  1  9  2 -1</clus>
<clus scale="   86.621">  7  8 -1 -1</clus>
<clus scale="   56.519">  7 10 -1 -1</clus>
<clus scale="   92.818">  5  6 -1 -1</clus>
<clus scale="  108.290">  2  5  1 -1</clus>
<clus scale="   20.148">  1  5  2 -1</clus>
</clustering>
</event>
<event>
10    2  0.4951045E-006  0.1438862E+03  0.7546771E-02  0.1217315E+00
         -2   -1    0    0    0  501 -0.00000000000E+00  0.00000000000E+00  0.12205788182E+03  0.12205788182E+03  0.00000000000E+00 0.  1.
         21   -1    0    0  501  502  0.00000000000E+00 -0.00000000000E+00 -0.31523574132E+03  0.31523574132E+03  0.00000000000E+00 0.  1.
         23    2    1    2    0    0  0.65450549885E+02  0.42580908022E+02  0.52789174924E+02  0.13175089231E+03  0.92058092673E+02 0.  0.
         23    2    1    2    0    0 -0.47188212672E+02  0.18882882875E+01 -0.75992204884E+02  0.12737381314E+03  0.90658590451E+02 0.  0.
        -13    1    3    3    0    0  0.83295015555E+02  0.52708519781E+02  0.35017253048E+02  0.10460619334E+03  0.00000000000E+00 0.  1.
         13    1    3    3    0    0 -0.17844465670E+02 -0.10127611759E+02  0.17771921876E+02  0.27144698970E+02  0.00000000000E+00 0. -1.
        -13    1    4    4    0    0 -0.39482873722E+02 -0.21563840612E+02  0.25338876301E+01  0.45059040444E+02  0.00000000000E+00 0. -1.
         13    1    4    4    0    0 -0.77053389507E+01  0.23452128900E+02 -0.78526092514E+02  0.82314772695E+02  0.00000000000E+00 0.  1.
         21    1    1    2  503  502 -0.95305096717E+01 -0.17817839105E+02 -0.11150305453E+03  0.11331918273E+03  0.00000000000E+00 0.  1.
         -2    1    1    2    0  503 -0.87318275414E+01 -0.26651357205E+02 -0.58471775005E+02  0.64849734967E+02  0.00000000000E+00 0.  1.
<scales pt_clust_5="13000.00000" pt_clust_6="13000.00000" pt_clust_7="13000.00000" pt_clust_8="13000.00000" pt_clust_9="20.20658" pt_clust_10="13000.00000"></scales>
<clustering>
<clus scale="   20.207">  2  9  1 -1</clus>
<clus scale="   90.659">  7  8 -1 -1</clus>
<clus scale="   34.112">  7 10 -1 -1</clus>
<clus scale="   92.058">  5  6 -1 -1</clus>
<clus scale="  118.528">  1  5  2 -1</clus>
<clus scale="   20.207">  2  5  1 -1</clus>
</clustering>
</event>
<event>
10    2  0.9839732E-006  0.2369082E+03  0.7546771E-02  0.1142231E+00
         21   -1    0    0  503  502  0.00000000000E+00  0.00000000000E+00  0.21659153057E+03  0.21659153057E+03  0.00000000000E+00 0. -1.
          2   -1    0    0  502    0 -0.00000000000E+00 -0.00000000000E+00 -0.83399101923E+03  0.83399101923E+03  0.00000000000E+00 0. -1.
         23    2    1    2    0    0 -0.85274401390E+02 -0.25357353338E+02 -0.20450996742E+03  0.24431520278E+03  0.99754060727E+02 0.  0.
         23    2    1    2    0    0  0.73499912824E+02  0.62658960887E+02 -0.58462617188E+03  0.59951333427E+03  0.91104854688E+02 0.  0.
        -11    1    4    4    0    0 -0.16147860741E+02  0.35604801294E+02 -0.16591666706E+03  0.17046053998E+03  0.00000000000E+00 0.  1.
         11    1    4    4    0    0  0.89647773565E+02  0.27054159593E+02 -0.41870950482E+03  0.42905279429E+03  0.00000000000E+00 0. -1.
        -13    1    3    3    0    0 -0.60116340853E+02  0.11709436410E+02 -0.18603432714E+03  0.19585672368E+03  0.00000000000E+00 0. -1.
         13    1    3    3    0    0 -0.25158060537E+02 -0.37066789748E+02 -0.18475640289E+02  0.48458479096E+02  0.00000000000E+00 0.  1.
         21    1    1    2  503  501 -0.14482067087E+02 -0.53114898387E+02  0.16687274682E+03  0.17571976647E+03  0.00000000000E+00 0. -1.
          2    1    1    2  501    0  0.26256555653E+02  0.15813290838E+02  0.48639038329E+01  0.31034246283E+02  0.00000000000E+00 0. -1.
<scales pt_clust_5="13000.00000" pt_clust_6="13000.00000" pt_clust_7="13000.00000" pt_clust_8="13000.00000" pt_clust_9="55.05382" pt_clust_10="13000.00000"></scales>
<clustering>
<clus scale="   55.054">  1  9  2 -1</clus>
<clus scale="   91.105">  5  6 -1 -1</clus>
<clus scale="   21.175">  5 10 -1 -1</clus>
<clus scale="   99.754">  7  8 -1 -1</clus>
<clus scale="  143.943">  2  7  1 -1</clus>
<clus scale="   55.054">  1  5  2 -1</clus>
</clustering>
</event>
<event>
10    2  0.4951045E-006  0.1731794E+03  0.7546771E-02  0.1187363E+00
          2   -1    0    0  502    0 -0.00000000000E+00  0.00000000000E+00  0.45244421818E+03  0.45244421818E+03  0.00000000000E+00 0. -1.
         21   -1    0    0  503  502  0.00000000000E+00 -0.00000000000E+00 -0.17659321270E+03  0.17659321270E+03  0.00000000000E+00 0. -1.
         23    2    1    2    0    0  0.45392936526E+02 -0.11844511915E+03  0.21364274603E+03  0.26467563409E+03  0.91215149019E+02 0.  0.
         23    2    1    2    0    0  0.53693281520E+02  0.48885342667E+02  0.15887339976E+03  0.19784700539E+03  0.92897444445E+02 0.  0.
        -11    1    4    4    0    0  0.68878416135E+02  0.70586403844E+01  0.70012406975E+02  0.98467241983E+02  0.00000000000E+00 0.  1.
         11    1    4    4    0    0 -0.15185134615E+02  0.41826702283E+02  0.88860992782E+02  0.99379763409E+02  0.00000000000E+00 0. -1.
        -11    1    3    3    0    0 -0.22349769566E+02 -0.12848306755E+02  0.15278582811E+02  0.29967086592E+02  0.00000000000E+00 0.  1.
         11    1    3    3    0    0  0.67742706093E+02 -0.10559681239E+03  0.19836416322E+03  0.23470854749E+03  0.00000000000E+00 0. -1.
         21    1    1    2  503  501 -0.71060959698E+02  0.61320692794E+02 -0.99958002302E+02  0.13711852385E+03  0.00000000000E+00 0. -1.
          2    1    1    2  501    0 -0.28025258349E+02  0.82390836883E+01  0.32928619957E+01  0.29396267547E+02  0.00000000000E+00 0. -1.
<scales pt_clust_5="13000.00000" pt_clust_6="13000.00000" pt_clust_7="13000.00000" pt_clust_8="13000.00000" pt_clust_9="93.86100" pt_clust_10="13000.00000"></scales>
<clustering>
<clus scale="   91.215">  7  8 -1 -1</clus>
<clus scale="   92.897">  5  6 -1 -1</clus>
<clus scale="   29.211">  5 10 -1 -1</clus>
<clus scale="   93.861">  2  9  1 -1</clus>
<clus scale="  129.968">  1  7  2 -1</clus>
<clus scale="   93.861">  2  5  1 -1</clus>
</clustering>
</event>
<event>
10    2  0.4951045E-006  0.4006000E+03  0.7546771E-02  0.1058283E+00
         21   -1    0    0  501  502  0.00000000000E+00  0.00000000000E+00  0.42703553674E+03  0.42703553674E+03  0.00000000000E+00 0.  1.
          2   -1    0    0  503    0 -0.00000000000E+00 -0.00000000000E+00 -0.65553329255E+03  0.65553329255E+03  0.00000000000E+00 0. -1.
         23    2    1    2    0    0  0.19014773834E+03 -0.15911029799E+03 -0.19442881073E+03  0.32745874683E+03  0.89187550237E+02 0.  0.
         23    2    1    2    0    0 -0.98549475158E+02  0.12663724842E+03 -0.32179734275E+03  0.37085350424E+03  0.90718245472E+02 0.  0.
        -11    1    3    3    0    0  0.84934292483E+02 -0.85058450133E+02 -0.40504185205E+02  0.12684385282E+03  0.00000000000E+00 0.  1.
         11    1    3    3    0    0  0.10521344585E+03 -0.74051847854E+02 -0.15392462552E+03  0.20061489402E+03  0.00000000000E+00 0. -1.
        -11    1    4    4    0    0 -0.15347472375E+02  0.92331239342E+02 -0.14745432316E+03  0.17465216885E+03  0.00000000000E+00 0. -1.
         11    1    4    4    0    0 -0.83202002783E+02  0.34306009080E+02 -0.17434301959E+03  0.19620133539E+03  0.00000000000E+00 0.  1.
         21    1    1    2  503  502 -0.77036635526E+02 -0.77811892757E+02  0.23884541553E+03  0.26274791414E+03  0.00000000000E+00 0.  1.
          2    1    1    2  501    0 -0.14561627652E+02  0.11028494232E+03  0.48882982137E+02  0.12150866408E+03  0.00000000000E+00 0. -1.
<scales pt_clust_5="13000.00000" pt_clust_6="13000.00000" pt_clust_7="13000.00000" pt_clust_8="13000.00000" pt_clust_9="109.49582" pt_clust_10="13000.00000"></scales>
<clustering>
<clus scale="   89.188">  5  6 -1 -1</clus>
<clus scale="   90.718">  7  8 -1 -1</clus>
<clus scale="  109.496">  1  9  2 -1</clus>
<clus scale="   89.243">  7 10 -1 -1</clus>
<clus scale="  263.482">  2  5  1 -1</clus>
<clus scale="  109.496">  1  5  2 -1</clus>
</clustering>
</event>
<event>
10    2  0.4951045E-006  0.3606002E+03  0.7546771E-02  0.1102553E+00
          1   -1    0    0  503    0 -0.00000000000E+00  0.00000000000E+00  0.68324522925E+03  0.68324522925E+03  0.00000000000E+00 0. -1.
         21   -1    0    0  501  502  0.00000000000E+00 -0.00000000000E+00 -0.16009864975E+03  0.16009864975E+03  0.00000000000E+00 0. -1.
         23    2    1    2    0    0 -0.30350625790E+02 -0.54271898557E+02  0.72088241883E+02  0.13230945944E+03  0.91882963501E+02 0.  0.
         23    2    1    2    0    0  0.13031321898E+03  0.35390889029E+02  0.23191242889E+03  0.28177978341E+03  0.85921019542E+02 0.  0.
        -13    1    3    3    0    0 -0.12949676673E+02 -0.79098607005E+02  0.46689421428E+02  0.92758750689E+02  0.00000000000E+00 0.  1.
         13    1    3    3    0    0 -0.17400949117E+02  0.24826708448E+02  0.25398820454E+02  0.39550708755E+02  0.00000000000E+00 0. -1.
        -13    1    4    4    0    0 -0.17930637158E+01  0.24347900841E+02  0.18857486070E+02  0.30848665023E+02  0.00000000000E+00 0. -1.
         13    1    4    4    0    0  0.13210628269E+03  0.11042988188E+02  0.21305494282E+03  0.25093111839E+03  0.00000000000E+00 0.  1.
         21    1    1    2  503  502  0.10590283327E+03 -0.17123794468E+02 -0.22664965483E+02  0.10964640939E+03  0.00000000000E+00 0. -1.
          1    1    1    2  501    0 -0.20586542646E+03  0.36004803996E+02  0.24181087421E+03  0.31960822675E+03  0.00000000000E+00 0. -1.
<scales pt_clust_5="13000.00000" pt_clust_6="13000.00000" pt_clust_7="13000.00000" pt_clust_8="13000.00000" pt_clust_9="107.27830" pt_clust_10="13000.00000"></scales>
<clustering>
<clus scale="   85.921">  7  8 -1 -1</clus>
<clus scale="   91.883">  5  6 -1 -1</clus>
<clus scale="  107.278">  2  9  1 -1</clus>
<clus scale="  109.666">  1  5  2 -1</clus>
<clus scale="  160.862">  7 10 -1 -1</clus>
<clus scale="  107.278">  2  5  1 -1</clus>
</clustering>
</event>
<event>
10    2  0.4951045E-006  0.1384710E+03  0.7546771E-02  0.1229823E+00
          1   -1    0    0  503    0 -0.00000000000E+00  0.00000000000E+00  0.44000139378E+02  0.44000139378E+02  0.00000000000E+00 0. -1.
         21   -1    0    0  501  502  0.00000000000E+00 -0.00000000000E+00 -0.57183026743E+03  0.57183026743E+03  0.00000000000E+00 0.  1.
         23    2    1    2    0    0  0.37093446631E+02 -0.47409354256E+02 -0.10230801524E+03  0.14893909073E+03  0.89957501694E+02 0.  0.
         23    2    1    2    0    0 -0.60229647690E+01 -0.31914666159E+01 -0.12959171545E+03  0.15810898774E+03  0.90321524155E+02 0.  0.
        -11    1    4    4    0    0  0.13670938115E+02  0.37847011519E+02 -0.35822494770E+02  0.53875244421E+02  0.00000000000E+00 0.  1.
         11    1    4    4    0    0 -0.19693902884E+02 -0.41038478135E+02 -0.93769220680E+02  0.10423374331E+03  0.00000000000E+00 0. -1.
        -13    1    3    3    0    0  0.24154845376E+02  0.21779708135E+01 -0.93930870564E+02  0.97011383646E+02  0.00000000000E+00 0.  1.
         13    1    3    3    0    0  0.12938601255E+02 -0.49587325069E+02 -0.83771446753E+01  0.51927707083E+02  0.00000000000E+00 0. -1.
         21    1    1    2  503  502  0.28393855073E+01  0.53322932406E+02 -0.16074559717E+03  0.16938283337E+03  0.00000000000E+00 0.  1.
          1    1    1    2  501    0 -0.33909867370E+02 -0.27221115346E+01 -0.13518480019E+03  0.13939949497E+03  0.00000000000E+00 0. -1.
<scales pt_clust_5="13000.00000" pt_clust_6="13000.00000" pt_clust_7="13000.00000" pt_clust_8="13000.00000" pt_clust_9="53.39848" pt_clust_10="13000.00000"></scales>
<clustering>
<clus scale="   53.398">  2  9  1 -1</clus>
<clus scale="   89.958">  7  8 -1 -1</clus>
<clus scale="   90.322">  5  6 -1 -1</clus>
<clus scale="   36.320">  5 10 -1 -1</clus>
<clus scale="  102.428">  1  7  2 -1</clus>
<clus scale="   53.398">  2  5  1 -1</clus>
</clustering>
</event>
<event>
10    2  0.4951045E-006  0.3916867E+03  0.7546771E-02  0.1090550E+00
         -2   -1    0    0    0  501 -0.00000000000E+00  0.00000000000E+00  0.54718341344E+03  0.54718341344E+03  0.00000000000E+00 0.  1.
         21   -1    0    0  503  502  0.00000000000E+00 -0.00000000000E+00 -0.17670388605E+03  0.17670388605E+03  0.00000000000E+00 0. -1.
         23    2    1    2    0    0 -0.27920089683E+02 -0.38857917620E+02  0.95952654437E+01  0.10195176798E+03  0.89513265532E+02 0.  0.
         23    2    1    2    0    0 -0.57964276360E+02  0.15845924391E+03  0.25457290768E+03  0.31850907377E+03  0.90396213587E+02 0.  0.
        -11    1    4    4    0    0 -0.36398267642E+02  0.16752302687E+02  0.99873730666E+02  0.10761150315E+03  0.00000000000E+00 0.  1.
         11    1    4    4    0    0 -0.21566008718E+02  0.14170694123E+03  0.15469917702E+03  0.21089757062E+03  0.00000000000E+00 0. -1.
        -11    1    3    3    0    0 -0.18501633062E+02  0.28163954814E+02  0.55414341749E+01  0.34150055190E+02  0.00000000000E+00 0. -1.
         11    1    3    3    0    0 -0.94184566206E+01 -0.67021872434E+02  0.40538312688E+01  0.67801712793E+02  0.00000000000E+00 0.  1.
         21    1    1    2  503  501 -0.85812810686E+02 -0.40100670325E+02  0.41652881502E+02  0.10347398115E+03  0.00000000000E+00 0. -1.
         -2    1    1    2    0  502  0.17169717673E+03 -0.79500655968E+02  0.64658472760E+02  0.19995247659E+03  0.00000000000E+00 0.  1.
<scales pt_clust_5="13000.00000" pt_clust_6="13000.00000" pt_clust_7="13000.00000" pt_clust_8="13000.00000" pt_clust_9="94.72013" pt_clust_10="13000.00000"></scales>
<clustering>
<clus scale="   89.513">  7  8 -1 -1</clus>
<clus scale="   90.396">  5  6 -1 -1</clus>
<clus scale="   94.720">  2  9  1 -1</clus>
<clus scale="  117.077">  1  7  2 -1</clus>
<clus scale="  161.836">  5 10 -1 -1</clus>
<clus scale="   94.720">  2  5  1 -1</clus>
</clustering>
</event>
<event>
10    2  0.4951045E-006  0.1542098E+03  0.7546771E-02  0.1205453E+00
         -1   -1    0    0    0  501 -0.00000000000E+00  0.00000000000E+00  0.19145684356E+03  0.19145684356E+03  0.00000000000E+00 0.  1.
         21   -1    0    0  503  502  0.00000000000E+00 -0.00000000000E+00 -0.31795719283E+03  0.31795719283E+03  0.00000000000E+00 0.  1.
         23    2    1    2    0    0  0.82575236391E+02  0.10161575800E+02  0.13531560937E+03  0.18336436351E+03  0.91598298995E+02 0.  0.
         23    2    1    2    0    0 -0.33774433742E+02 -0.41497429613E+01 -0.94741393198E+02  0.13376723532E+03  0.88089777610E+02 0.  0.
        -11    1    3    3    0    0  0.75011445487E+02  0.43936292476E+02  0.11135123235E+03  0.14126645638E+03  0.00000000000E+00 0.  1.
         11    1    3    3    0    0  0.75637909036E+01 -0.33774716675E+02  0.23964377022E+02  0.42097907138E+02  0.00000000000E+00 0. -1.
        -13    1    4    4    0    0 -0.62158733168E+02  0.55950198510E+01 -0.50373433515E+02  0.80202837607E+02  0.00000000000E+00 0.  1.
         13    1    4    4    0    0  0.28384299425E+02 -0.97447628123E+01 -0.44367959683E+02  0.53564397715E+02  0.00000000000E+00 0. -1.
         21    1    1    2  503  501 -0.13031410169E+01  0.33300743394E+02 -0.64583075346E+02  0.72674695103E+02  0.00000000000E+00 0.  1.
         -1    1    1    2    0  502 -0.47497661632E+02 -0.39312576232E+02 -0.10249149010E+03  0.11960774245E+03  0.00000000000E+00 0.  1.
<scales pt_clust_5="13000.00000" pt_clust_6="13000.00000" pt_clust_7="13000.00000" pt_clust_8="13000.00000" pt_clust_9="33.32623" pt_clust_10="13000.00000"></scales>
<clustering>
<clus scale="   33.326">  2  9  1 -1</clus>
<clus scale="   88.090">  7  8 -1 -1</clus>
<clus scale="   53.952">  7 10 -1 -1</clus>
<clus scale="   91.598">  5  6 -1 -1</clus>
<clus scale="  123.964">  1  5  2 -1</clus>
<clus scale="   33.326">  2  5  1 -1</clus>
</clustering>
</event>
<event>
10    2  0.4951045E-006  0.1619781E+03  0.7546771E-02  0.1207424E+00
         21   -1    0    0  503  502  0.00000000000E+00  0.00000000000E+00  0.48872841144E+03  0.48872841144E+03  0.00000000000E+00 0. -1.
         -3   -1    0    0    0  501 -0.00000000000E+00 -0.00000000000E+00 -0.15665878939E+03  0.15665878939E+03  0.00000000000E+00 0.  1.
         23    2    1    2    0    0  0.24810932141E+02  0.71015370413E+02  0.51360573184E+02  0.13173604193E+03  0.95172007840E+02 0.  0.
         23    2    1    2    0    0 -0.50151944059E+02 -0.34173029526E+02 -0.28549318150E+02  0.11924966082E+03  0.98602254532E+02 0.  0.
        -11    1    3    3    0    0 -0.11059690029E+02  0.27839442254E+02 -0.23566593973E+02  0.38114769316E+02  0.00000000000E+00 0.  1.
         11    1    3    3    0    0  0.35870622170E+02  0.43175928159E+02  0.74927167156E+02  0.93621272611E+02  0.00000000000E+00 0. -1.
        -13    1    4    4    0    0 -0.32354855639E+02 -0.50731748958E+02  0.21266950448E+02  0.63818729360E+02  0.00000000000E+00 0.  1.
         13    1    4    4    0    0 -0.17797088421E+02  0.16558719431E+02 -0.49816268599E+02  0.55430931460E+02  0.00000000000E+00 0. -1.
         21    1    1    2  503  501  0.79411025345E+01 -0.76707346886E+02  0.33506516007E+03  0.34382515858E+03  0.00000000000E+00 0. -1.
         -3    1    1    2    0  502  0.17399909383E+02  0.39865005999E+02 -0.25806793052E+02  0.50576339503E+02  0.00000000000E+00 0.  1.
<scales pt_clust_5="13000.00000" pt_clust_6="13000.00000" pt_clust_7="13000.00000" pt_clust_8="13000.00000" pt_clust_9="77.11730" pt_clust_10="13000.00000"></scales>
<clustering>
<clus scale="   77.117">  1  9  2 -1</clus>
<clus scale="   95.172">  5  6 -1 -1</clus>
<clus scale="   98.602">  7  8 -1 -1</clus>
<clus scale="   38.059">  7 10 -1 -1</clus>
<clus scale="  102.535">  2  5  1 -1</clus>
<clus scale="   77.117">  1  5  2 -1</clus>
</clustering>
</event>
<event>
10    2  0.4951045E-006  0.2653645E+03  0.7546771E-02  0.1129686E+00
          1   -1    0    0  502    0 -0.00000000000E+00  0.00000000000E+00  0.39585108294E+03  0.39585108294E+03  0.00000000000E+00 0. -1.
         21   -1    0    0  503  502  0.00000000000E+00 -0.00000000000E+00 -0.25293257441E+03  0.25293257441E+03  0.00000000000E+00 0. -1.
         23    2    1    2    0    0 -0.69706824364E+02  0.64610131875E+02  0.26818188192E+03  0.30144879149E+03  0.99580829468E+02 0.  0.
         23    2    1    2    0    0  0.10861408164E+03 -0.14160773522E+03 -0.13892975335E+03  0.24288303289E+03  0.88548980191E+02 0.  0.
        -11    1    3    3    0    0  0.58547382613E+01  0.30370619586E+02  0.13775796006E+02  0.33858899122E+02  0.00000000000E+00 0.  1.
         11    1    3    3    0    0 -0.75561562625E+02  0.34239512289E+02  0.25440608591E+03  0.26758989237E+03  0.00000000000E+00 0. -1.
        -11    1    4    4    0    0  0.40808973020E+02 -0.10622807493E+02 -0.29511306561E+01  0.42272041471E+02  0.00000000000E+00 0.  1.
         11    1    4    4    0    0  0.67805108623E+02 -0.13098492773E+03 -0.13597862269E+03  0.20061099142E+03  0.00000000000E+00 0. -1.
         21    1    1    2  503  501 -0.27947232234E+02  0.93622927791E+01  0.20035669113E+02  0.35638860145E+02  0.00000000000E+00 0. -1.
          1    1    1    2  501    0 -0.10960025045E+02  0.67635310570E+02 -0.63692891547E+01  0.68812972827E+02  0.00000000000E+00 0. -1.
<scales pt_clust_5="13000.00000" pt_clust_6="13000.00000" pt_clust_7="13000.00000" pt_clust_8="13000.00000" pt_clust_9="29.47374" pt_clust_10="13000.00000"></scales>
<clustering>
<clus scale="   29.474">  2  9  1 -1</clus>
<clus scale="   88.549">  7  8 -1 -1</clus>
<clus scale="   70.734">  7 10 -1 -1</clus>
<clus scale="   99.581">  5  6 -1 -1</clus>
<clus scale="  138.926">  1  5  2 -1</clus>
<clus scale="   29.474">  2  5  1 -1</clus>
</clustering>
</event>
<event>
10    2  0.4951045E-006  0.4280949E+03  0.7546771E-02  0.1049927E+00
          1   -1    0    0  502    0 -0.00000000000E+00  0.00000000000E+00  0.14031156784E+03  0.14031156784E+03  0.00000000000E+00 0. -1.
         21   -1    0    0  503  502  0.00000000000E+00 -0.00000000000E+00 -0.13993486388E+04  0.13993486388E+04  0.00000000000E+00 0.  1.
         23    2    1    2    0    0 -0.13964432128E+03 -0.21495325147E+03 -0.24677806838E+03  0.36724227777E+03  0.90895757688E+02 0.  0.
         23    2    1    2    0    0 -0.49595073449E+02 -0.35349732730E+02 -0.90602729539E+02  0.14235175981E+03  0.91355864653E+02 0.  0.
        -11    1    4    4    0    0 -0.28412797681E+02 -0.37415339889E+02 -0.10609224718E+03  0.11602913273E+03  0.00000000000E+00 0.  1.
         11    1    4    4    0    0 -0.21182275768E+02  0.20656071590E+01  0.15489517638E+02  0.26322627079E+02  0.00000000000E+00 0. -1.
        -13    1    3    3    0    0 -0.40651309607E+02 -0.97605892954E+02 -0.15733680402E+03  0.18956347014E+03  0.00000000000E+00 0.  1.
         13    1    3    3    0    0 -0.98993011676E+02 -0.11734735852E+03 -0.89441264362E+02  0.17767880763E+03  0.00000000000E+00 0. -1.
         21    1    1    2  503  501  0.61965201730E+02 -0.41773644349E+02 -0.47831891409E+03  0.48412158304E+03  0.00000000000E+00 0.  1.
          1    1    1    2  501    0  0.12727419300E+03  0.29207662855E+03 -0.44333735893E+03  0.54594458599E+03  0.00000000000E+00 0. -1.
<scales pt_clust_5="13000.00000" pt_clust_6="13000.00000" pt_clust_7="13000.00000" pt_clust_8="13000.00000" pt_clust_9="74.73101" pt_clust_10="13000.00000"></scales>
<clustering>
<clus scale="   74.731">  2  9  1 -1</clus>
<clus scale="   90.896">  7  8 -1 -1</clus>
<clus scale="   91.356">  5  6 -1 -1</clus>
<clus scale="  273.514">  1  7  2 -1</clus>
<clus scale="  145.617">  5 10 -1 -1</clus>
<clus scale="   74.731">  2  5  1 -1</clus>
</clustering>
</event>
<event>
10    2  0.4951045E-006  0.4276340E+03  0.7546771E-02  0.1044305E+00
          2   -1    0    0  503    0 -0.00000000000E+00  0.00000000000E+00  0.51769741658E+03  0.51769741658E+03  0.00000000000E+00 0. -1.
         21   -1    0    0  501  502  0.00000000000E+00 -0.00000000000E+00 -0.36381060135E+03  0.36381060135E+03  0.00000000000E+00 0. -1.
         23    2    1    2    0    0 -0.32510078784E+03  0.13053507535E+02  0.16828793968E+01  0.33746421884E+03  0.89545243295E+02 0.  0.
         23    2    1    2    0    0  0.19838799696E+03  0.15262030444E+03  0.10630293405E+03  0.29398045530E+03  0.11168455420E+03 0.  0.
        -13    1    3    3    0    0 -0.70983344015E+02 -0.33057393383E+02 -0.99629124561E+01  0.78934694586E+02  0.00000000000E+00 0.  1.
         13    1    3    3    0    0 -0.25411744383E+03  0.46110900918E+02  0.11645791853E+02  0.25852952425E+03  0.00000000000E+00 0. -1.
        -13    1    4    4    0    0  0.37997282755E+02  0.25196993891E+02 -0.23679592727E+02  0.51375140969E+02  0.00000000000E+00 0.  1.
         13    1    4    4    0    0  0.16039071420E+03  0.12742331054E+03  0.12998252678E+03  0.24260531433E+03  0.00000000000E+00 0. -1.
         21    1    1    2  503  502  0.28756057624E+02 -0.59596366612E+02 -0.44469950893E+02  0.79725869678E+02  0.00000000000E+00 0. -1.
          2    1    1    2  501    0  0.97956733262E+02 -0.10607744536E+03  0.90370952673E+02  0.17033747413E+03  0.00000000000E+00 0. -1.
<scales pt_clust_5="13000.00000" pt_clust_6="13000.00000" pt_clust_7="13000.00000" pt_clust_8="13000.00000" pt_clust_9="66.17128" pt_clust_10="13000.00000"></scales>
<clustering>
<clus scale="   66.171">  2  9  1 -1</clus>
<clus scale="   89.545">  5  6 -1 -1</clus>
<clus scale="  111.685">  7  8 -1 -1</clus>
<clus scale="  152.797">  7 10 -1 -1</clus>
<clus scale="  322.436">  1  5  2 -1</clus>
<clus scale="   66.171">  2  5  1 -1</clus>
</clustering>
</event>
<event>
10    2  0.4951045E-006  0.3448942E+03  0.7546771E-02  0.1084805E+00
          3   -1    0    0  503    0 -0.00000000000E+00  0.00000000000E+00  0.76851313647E+03  0.76851313647E+03  0.00000000000E+00 0. -1.
         21   -1    0    0  501  502  0.00000000000E+00 -0.00000000000E+00 -0.18742159349E+03  0.18742159349E+03  0.00000000000E+00 0. -1.
         23    2    1    2    0    0  0.14303664362E+03  0.16985627153E+03  0.18570132020E+03  0.30360326380E+03  0.91538664340E+02 0.  0.
         23    2    1    2    0    0 -0.20117812964E+02  0.76998426420E+01  0.30012874444E+03  0.31416334765E+03  0.90317948332E+02 0.  0.
        -11    1    3    3    0    0  0.10587246786E+03  0.99862008006E+02  0.16823791967E+03  0.22245313598E+03  0.00000000000E+00 0. -1.
         11    1    3    3    0    0  0.37164175763E+02  0.69994263529E+02  0.17463400529E+02  0.81150127820E+02  0.00000000000E+00 0.  1.
        -13    1    4    4    0    0 -0.43945097272E+02  0.33070213583E+02  0.14266823802E+03  0.15290204950E+03  0.00000000000E+00 0. -1.
         13    1    4    4    0    0  0.23827284308E+02 -0.25370370941E+02  0.15746050642E+03  0.16126129815E+03  0.00000000000E+00 0.  1.
         21    1    1    2  503  502 -0.15587007656E+03 -0.13552648123E+02  0.34683915471E+02  0.16025644770E+03  0.00000000000E+00 0. -1.
          3    1    1    2  501    0  0.32951245898E+02 -0.16400346605E+03  0.60577562870E+02  0.17791167080E+03  0.00000000000E+00 0. -1.
<scales pt_clust_5="13000.00000" pt_clust_6="13000.00000" pt_clust_7="13000.00000" pt_clust_8="13000.00000" pt_clust_9="156.45816" pt_clust_10="13000.00000"></scales>
<clustering>
<clus scale="   90.318">  7  8 -1 -1</clus>
<clus scale="   91.539">  5  6 -1 -1</clus>
<clus scale="  156.458">  2  9  1 -1</clus>
<clus scale="  175.111">  7 10 -1 -1</clus>
<clus scale="  199.745">  1  5  2 -1</clus>
<clus scale="  156.458">  2  5  1 -1</clus>
</clustering>
</event>
<event>
10    2  0.4951045E-006  0.2290123E+03  0.7546771E-02  0.1163176E+00
          2   -1    0    0  502    0 -0.00000000000E+00  0.00000000000E+00  0.52065298284E+03  0.52065298284E+03  0.00000000000E+00 0. -1.
         21   -1    0    0  503  502  0.00000000000E+00 -0.00000000000E+00 -0.25552338953E+03  0.25552338953E+03  0.00000000000E+00 0. -1.
         23    2    1    2    0    0 -0.23453897764E+02  0.20388777458E+02  0.11658951707E+03  0.15138487399E+03  0.91424706812E+02 0.  0.
         23    2    1    2    0    0  0.22352804187E+02  0.19774926094E+02  0.37180006030E+03  0.38420467664E+03  0.92126289169E+02 0.  0.
        -11    1    4    4    0    0  0.13602553148E+02  0.54941775465E+02  0.16995258293E+03  0.17912986515E+03  0.00000000000E+00 0. -1.
         11    1    4    4    0    0  0.87502510387E+01 -0.35166849371E+02  0.20184747737E+03  0.20507481149E+03  0.00000000000E+00 0.  1.
        -13    1    3    3    0    0  0.34294419198E+02 -0.26093573643E+01  0.40524948004E+02  0.53152491425E+02  0.00000000000E+00 0.  1.
         13    1    3    3    0    0 -0.57748316962E+02  0.22998134822E+02  0.76064569066E+02  0.98232382565E+02  0.00000000000E+00 0. -1.
         21    1    1    2  503  501 -0.19465302722E+02 -0.18836265150E+02 -0.20275189448E+03  0.20455325372E+03  0.00000000000E+00 0. -1.
          2    1    1    2  501    0  0.20566396299E+02 -0.21327438402E+02 -0.20508089590E+02  0.36033568019E+02  0.00000000000E+00 0. -1.
<scales pt_clust_5="13000.00000" pt_clust_6="13000.00000" pt_clust_7="13000.00000" pt_clust_8="13000.00000" pt_clust_9="27.08695" pt_clust_10="13000.00000"></scales>
<clustering>
<clus scale="   27.087">  2  9  1 -1</clus>
<clus scale="   91.425">  7  8 -1 -1</clus>
<clus scale="   92.126">  5  6 -1 -1</clus>
<clus scale="   33.126">  5 10 -1 -1</clus>
<clus scale="   97.239">  1  7  2 -1</clus>
<clus scale="   27.087">  2  5  1 -1</clus>
</clustering>
</event>
<event>
10    2  0.4951045E-006  0.1749715E+03  0.7546771E-02  0.1191889E+00
         21   -1    0    0  503  502  0.00000000000E+00  0.00000000000E+00  0.36828866222E+03  0.36828866222E+03  0.00000000000E+00 0. -1.
          2   -1    0    0  502    0 -0.00000000000E+00 -0.00000000000E+00 -0.14210393062E+03  0.14210393062E+03  0.00000000000E+00 0. -1.
         23    2    1    2    0    0  0.71165204010E+02  0.94590587451E+01 -0.61024873390E+02  0.13056363782E+03  0.90381791828E+02 0.  0.
         23    2    1    2    0    0 -0.53803030223E+02 -0.27611424473E+02  0.33321101164E+02  0.11417034921E+03  0.90925332181E+02 0.  0.
        -11    1    3    3    0    0  0.22739629827E+02  0.41741356640E+02 -0.18572949479E+01  0.47569750507E+02  0.00000000000E+00 0.  1.
         11    1    3    3    0    0  0.48425574183E+02 -0.32282297895E+02 -0.59167578442E+02  0.82993887311E+02  0.00000000000E+00 0. -1.
        -13    1    4    4    0    0 -0.93518662839E+01  0.32160982685E+02  0.18353901529E+02  0.38192301732E+02  0.00000000000E+00 0.  1.
         13    1    4    4    0    0 -0.44451163939E+02 -0.59772407157E+02  0.14967199635E+02  0.75978047473E+02  0.00000000000E+00 0. -1.
         21    1    1    2  503  501 -0.10652256800E+02 -0.23312505406E+02  0.16914854670E+03  0.17107943867E+03  0.00000000000E+00 0. -1.
          2    1    1    2  501    0 -0.67099169866E+01  0.41464871133E+02  0.84739957126E+02  0.94579167145E+02  0.00000000000E+00 0. -1.
<scales pt_clust_5="13000.00000" pt_clust_6="13000.00000" pt_clust_7="13000.00000" pt_clust_8="13000.00000" pt_clust_9="25.63091" pt_clust_10="13000.00000"></scales>
<clustering>
<clus scale="   25.631">  1  9  2 -1</clus>
<clus scale="   90.382">  5  6 -1 -1</clus>
<clus scale="   90.925">  7  8 -1 -1</clus>
<clus scale="   32.997">  7 10 -1 -1</clus>
<clus scale="  114.016">  2  5  1 -1</clus>
<clus scale="   25.631">  1  5  2 -1</clus>
</clustering>
</event>
<event>
10    2  0.4951045E-006  0.1965793E+03  0.7546771E-02  0.1184006E+00
         21   -1    0    0  501  502  0.00000000000E+00  0.00000000000E+00  0.21789531093E+03  0.21789531093E+03  0.00000000000E+00 0.  1.
          2   -1    0    0  503    0 -0.00000000000E+00 -0.00000000000E+00 -0.50929054243E+03  0.50929054243E+03  0.00000000000E+00 0. -1.
         23    2    1    2    0    0  0.30875226089E+01  0.42251081236E+02 -0.37266850171E+03  0.38470155809E+03  0.85549926757E+02 0.  0.
         23    2    1    2    0    0  0.31353072896E+02 -0.10559648609E+03 -0.31068755339E+02  0.14619221651E+03  0.90957482125E+02 0.  0.
        -13    1    3    3    0    0 -0.34970541020E+02 -0.43663955678E+01 -0.13212972253E+03  0.13674892221E+03  0.00000000000E+00 0.  1.
         13    1    3    3    0    0  0.38058063628E+02  0.46617476804E+02 -0.24053877918E+03  0.24795263588E+03  0.00000000000E+00 0. -1.
        -13    1    4    4    0    0 -0.20842485816E+02  0.21860906502E+01  0.41526893658E+01  0.21364293489E+02  0.00000000000E+00 0. -1.
         13    1    4    4    0    0  0.52195558712E+02 -0.10778257674E+03 -0.35221444705E+02  0.12482792302E+03  0.00000000000E+00 0.  1.
         21    1    1    2  503  502 -0.17897346335E+02  0.99553803185E+01  0.13458521402E+03  0.13613450862E+03  0.00000000000E+00 0.  1.
          2    1    1    2  501    0 -0.16543249170E+02  0.53390024533E+02 -0.22243188473E+02  0.60157570148E+02  0.00000000000E+00 0. -1.
<scales pt_clust_5="13000.00000" pt_clust_6="13000.00000" pt_clust_7="13000.00000" pt_clust_8="13000.00000" pt_clust_9="20.47986" pt_clust_10="13000.00000"></scales>
<clustering>
<clus scale="   20.480">  1  9  2 -1</clus>
<clus scale="   85.550">  5  6 -1 -1</clus>
<clus scale="   90.957">  7  8 -1 -1</clus>
<clus scale="   59.384">  7 10 -1 -1</clus>
<clus scale="   95.755">  2  5  1 -1</clus>
<clus scale="   20.480">  1  5  2 -1</clus>
</clustering>
</event>
<event>
10    2  0.4951045E-006  0.1485075E+03  0.7546771E-02  0.1219115E+00
         21   -1    0    0  503  502  0.00000000000E+00  0.00000000000E+00  0.17639646818E+03  0.17639646818E+03  0.00000000000E+00 0.  1.
          1   -1    0    0  502    0 -0.00000000000E+00 -0.00000000000E+00 -0.40003008892E+03  0.40003008892E+03  0.00000000000E+00 0. -1.
         23    2    1    2    0    0 -0.73408809709E+02 -0.72894303353E+01 -0.81143163555E+02  0.14275712865E+03  0.91396912697E+02 0.  0.
         23    2    1    2    0    0 -0.11247033860E+02 -0.42274220980E+01 -0.21702322371E+03  0.23551068024E+03  0.90674329392E+02 0.  0.
        -11    1    4    4    0    0 -0.48931073032E+02 -0.12766160060E+02 -0.14809953065E+03  0.15649503420E+03  0.00000000000E+00 0.  1.
         11    1    4    4    0    0  0.37684039173E+02  0.85387379621E+01 -0.68923693058E+02  0.79015646040E+02  0.00000000000E+00 0. -1.
        -11    1    3    3    0    0 -0.83883108106E+02 -0.32595172292E+02 -0.60062098046E+02  0.10819554845E+03  0.00000000000E+00 0.  1.
         11    1    3    3    0    0  0.10474298397E+02  0.25305741957E+02 -0.21081065510E+02  0.34561580200E+02  0.00000000000E+00 0. -1.
         21    1    1    2  503  501  0.38638175024E+02  0.89508591561E+01  0.12421338891E+03  0.13039168851E+03  0.00000000000E+00 0.  1.
          1    1    1    2  501    0  0.46017668544E+02  0.25659932772E+01 -0.49680622379E+02  0.67767059695E+02  0.00000000000E+00 0. -1.
<scales pt_clust_5="13000.00000" pt_clust_6="13000.00000" pt_clust_7="13000.00000" pt_clust_8="13000.00000" pt_clust_9="39.66140" pt_clust_10="13000.00000"></scales>
<clustering>
<clus scale="   39.661">  1  9  2 -1</clus>
<clus scale="   90.674">  5  6 -1 -1</clus>
<clus scale="   53.302">  5 10 -1 -1</clus>
<clus scale="   91.397">  7  8 -1 -1</clus>
<clus scale="  103.794">  2  7  1 -1</clus>
<clus scale="   39.661">  1  5  2 -1</clus>
</clustering>
</event>
<event>
10    2  0.4951045E-006  0.1531486E+03  0.7546771E-02  0.1214273E+00
         21   -1    0    0  503  502  0.00000000000E+00  0.00000000000E+00  0.11003894905E+03  0.11003894905E+03  0.00000000000E+00 0. -1.
         -3   -1    0    0    0  501 -0.00000000000E+00 -0.00000000000E+00 -0.27663796930E+03  0.27663796930E+03  0.00000000000E+00 0.  1.
         23    2    1    2    0    0 -0.54769887251E+02  0.19330920325E+02 -0.16666013582E+03  0.19849613975E+03  0.90838822067E+02 0.  0.
         23    2    1    2    0    0  0.66436602450E+01 -0.50933114355E+02 -0.40829687403E+02  0.11229607302E+03  0.91131905950E+02 0.  0.
        -13    1    3    3    0    0 -0.72623883524E+02 -0.76952128516E+00 -0.15055261660E+03  0.16715534986E+03  0.00000000000E+00 0.  1.
         13    1    3    3    0    0  0.17853996273E+02  0.20100441610E+02 -0.16107519225E+02  0.31340789897E+02  0.00000000000E+00 0. -1.
        -13    1    4    4    0    0 -0.27025654975E+02 -0.48753229220E+02 -0.52521087920E+02  0.76588041250E+02  0.00000000000E+00 0.  1.
         13    1    4    4    0    0  0.33669315220E+02 -0.21798851350E+01  0.11691400517E+02  0.35708031766E+02  0.00000000000E+00 0. -1.
         21    1    1    2  503  501  0.33257092673E+02  0.53185750762E+01  0.20097920046E+02  0.39220502854E+02  0.00000000000E+00 0. -1.
         -3    1    1    2    0  502  0.14869134333E+02  0.26283618954E+02  0.20792882928E+02  0.36664202727E+02  0.00000000000E+00 0.  1.
<scales pt_clust_5="13000.00000" pt_clust_6="13000.00000" pt_clust_7="13000.00000" pt_clust_8="13000.00000" pt_clust_9="33.67969" pt_clust_10="13000.00000"></scales>
<clustering>
<clus scale="   33.680">  1  9  2 -1</clus>
<clus scale="   90.839">  5  6 -1 -1</clus>
<clus scale="   91.132">  7  8 -1 -1</clus>
<clus scale="   38.862">  7 10 -1 -1</clus>
<clus scale="  104.828">  2  5  1 -1</clus>
<clus scale="   33.680">  1  5  2 -1</clus>
</clustering>
</event>
<event>
10    2  0.4951045E-006  0.6408512E+03  0.7546771E-02  0.1037306E+00
          3   -1    0    0  503    0 -0.00000000000E+00  0.00000000000E+00  0.37974504126E+03  0.37974504126E+03  0.00000000000E+00 0. -1.
         21   -1    0    0  501  502  0.00000000000E+00 -0.00000000000E+00 -0.61375719922E+03  0.61375719922E+03  0.00000000000E+00 0. -1.
         23    2    1    2    0    0 -0.38263853028E+02  0.68269859401E+02  0.10169597450E+03  0.15791231051E+03  0.92028965170E+02 0.  0.
         23    2    1    2    0    0  0.19532102389E+03  0.17139371841E+03 -0.30787168259E+03  0.41284732831E+03  0.90176684731E+02 0.  0.
        -11    1    3    3    0    0 -0.62367085739E+02  0.55917019357E+02  0.10046010485E+03  0.13079984367E+03  0.00000000000E+00 0.  1.
         11    1    3    3    0    0  0.24103232712E+02  0.12352840044E+02  0.12358696451E+01  0.27112466839E+02  0.00000000000E+00 0. -1.
        -13    1    4    4    0    0  0.13806995827E+03  0.86544693773E+02 -0.13350870858E+03  0.21066056267E+03  0.00000000000E+00 0. -1.
         13    1    4    4    0    0  0.57251065621E+02  0.84849024635E+02 -0.17436297400E+03  0.20218676564E+03  0.00000000000E+00 0.  1.
         21    1    1    2  503  502  0.95017724223E+02 -0.68276542464E+02 -0.80308557662E+01  0.11727978859E+03  0.00000000000E+00 0. -1.
          3    1    1    2  501    0 -0.25207489509E+03 -0.17138703534E+03 -0.19805594102E+02  0.30546281308E+03  0.00000000000E+00 0. -1.
<scales pt_clust_5="13000.00000" pt_clust_6="13000.00000" pt_clust_7="13000.00000" pt_clust_8="13000.00000" pt_clust_9="117.00456" pt_clust_10="13000.00000"></scales>
<clustering>
<clus scale="   90.177">  7  8 -1 -1</clus>
<clus scale="   92.029">  5  6 -1 -1</clus>
<clus scale="  117.005">  2  9  1 -1</clus>
<clus scale="  117.403">  1  5  2 -1</clus>
<clus scale="  287.927">  7 10 -1 -1</clus>
<clus scale="  117.005">  2  5  1 -1</clus>
</clustering>
</event>
<event>
10    2  0.4951045E-006  0.3021381E+03  0.7546771E-02  0.1112952E+00
          1   -1    0    0  502    0 -0.00000000000E+00  0.00000000000E+00  0.68501722825E+03  0.68501722825E+03  0.00000000000E+00 0. -1.
         21   -1    0    0  503  502  0.00000000000E+00 -0.00000000000E+00 -0.23125611811E+03  0.23125611811E+03  0.00000000000E+00 0. -1.
         23    2    1    2    0    0 -0.11932574261E+03  0.54738509577E+02  0.12139640801E+02  0.16224098458E+03  0.94550668523E+02 0.  0.
         23    2    1    2    0    0  0.17057561271E+03  0.12124221514E+02  0.44055686414E+03  0.48171244822E+03  0.93346107708E+02 0.  0.
        -13    1    4    4    0    0  0.62326465072E+02  0.44890951261E+02  0.12746576137E+03  0.14881970997E+03  0.00000000000E+00 0.  1.
         13    1    4    4    0    0  0.10824914764E+03 -0.32766729747E+02  0.31309110277E+03  0.33289273825E+03  0.00000000000E+00 0. -1.
        -13    1    3    3    0    0  0.40707259067E-01 -0.20314694105E+02  0.56712995918E+01  0.21091517080E+02  0.00000000000E+00 0.  1.
         13    1    3    3    0    0 -0.11936644987E+03  0.75053203682E+02  0.64683412092E+01  0.14114946750E+03  0.00000000000E+00 0. -1.
         21    1    1    2  503  501  0.30862039839E+02 -0.19603472048E+02 -0.11605537299E+03  0.12167831039E+03  0.00000000000E+00 0. -1.
          1    1    1    2  501    0 -0.82111909943E+02 -0.47259259043E+02  0.11711997818E+03  0.15064160318E+03  0.00000000000E+00 0. -1.
<scales pt_clust_5="13000.00000" pt_clust_6="13000.00000" pt_clust_7="13000.00000" pt_clust_8="13000.00000" pt_clust_9="36.56175" pt_clust_10="13000.00000"></scales>
<clustering>
<clus scale="   36.562">  2  9  1 -1</clus>
<clus scale="   93.346">  5  6 -1 -1</clus>
<clus scale="   92.336">  5 10 -1 -1</clus>
<clus scale="   94.551">  7  8 -1 -1</clus>
<clus scale="  142.896">  1  7  2 -1</clus>
<clus scale="   36.562">  2  5  1 -1</clus>
</clustering>
</event>
<event>
10    2  0.4951045E-006  0.1923121E+03  0.7546771E-02  0.1174621E+00
          2   -1    0    0  503    0 -0.00000000000E+00  0.00000000000E+00  0.16977769409E+03  0.16977769409E+03  0.00000000000E+00 0. -1.
         21   -1    0    0  501  502  0.00000000000E+00 -0.00000000000E+00 -0.24726915847E+03  0.24726915847E+03  0.00000000000E+00 0. -1.
         23    2    1    2    0    0 -0.58766385709E+02 -0.71663893374E+02 -0.92310102972E+02  0.15965282892E+03  0.91535069602E+02 0.  0.
         23    2    1    2    0    0  0.75425581554E+02  0.13736365159E+02  0.95790098540E+02  0.15349904939E+03  0.92241580125E+02 0.  0.
        -11    1    3    3    0    0 -0.76024572823E+01 -0.78300015148E+02 -0.55822053539E+02  0.96461346612E+02  0.00000000000E+00 0. -1.
         11    1    3    3    0    0 -0.51163928427E+02  0.66361217736E+01 -0.36488049433E+02  0.63191482303E+02  0.00000000000E+00 0.  1.
        -11    1    4    4    0    0  0.41436330991E+02  0.52965795899E+02  0.45268530963E+02  0.81065312907E+02  0.00000000000E+00 0.  1.
         11    1    4    4    0    0  0.33989250563E+02 -0.39229430740E+02  0.50521567578E+02  0.72433736481E+02  0.00000000000E+00 0. -1.
         21    1    1    2  503  502 -0.93363217262E+01  0.20904992313E+02 -0.50292440091E+02  0.55258620480E+02  0.00000000000E+00 0.  1.
          2    1    1    2  501    0 -0.73228741185E+01  0.37022535903E+02 -0.30679019851E+02  0.48636353780E+02  0.00000000000E+00 0. -1.
<scales pt_clust_5="13000.00000" pt_clust_6="13000.00000" pt_clust_7="13000.00000" pt_clust_8="13000.00000" pt_clust_9="22.89510" pt_clust_10="13000.00000"></scales>
<clustering>
<clus scale="   22.895">  2  9  1 -1</clus>
<clus scale="   91.535">  5  6 -1 -1</clus>
<clus scale="   92.242">  7  8 -1 -1</clus>
<clus scale="   42.304">  7 10 -1 -1</clus>
<clus scale="  126.324">  1  5  2 -1</clus>
<clus scale="   22.895">  2  5  1 -1</clus>
</clustering>
</event>
<event>
10    2  0.4951045E-006  0.3953227E+03  0.7546771E-02  0.1089198E+00
          1   -1    0    0  503    0 -0.00000000000E+00  0.00000000000E+00  0.29069978944E+03  0.29069978944E+03  0.00000000000E+00 0. -1.
         21   -1    0    0  501  502  0.00000000000E+00 -0.00000000000E+00 -0.49508173998E+03  0.49508173998E+03  0.00000000000E+00 0. -1.
         23    2    1    2    0    0  0.77753247393E+02  0.38584503976E+02  0.30588431008E+02  0.13039811868E+03  0.92377950919E+02 0.  0.
         23    2    1    2    0    0 -0.18417637974E+03 -0.67079805842E+02  0.22457677330E+02  0.21753484535E+03  0.91631994763E+02 0.  0.
        -11    1    3    3    0    0  0.50474270025E+02  0.69026483202E+02  0.15995216477E+02  0.86995139335E+02  0.00000000000E+00 0. -1.
         11    1    3    3    0    0  0.27278977367E+02 -0.30441979226E+02  0.14593214532E+02  0.43402979342E+02  0.00000000000E+00 0.  1.
        -13    1    4    4    0    0 -0.15082804437E+03 -0.18860471146E+02  0.38400118555E+02  0.15677814084E+03  0.00000000000E+00 0. -1.
         13    1    4    4    0    0 -0.33348335366E+02 -0.48219334696E+02 -0.15942441225E+02  0.60756704506E+02  0.00000000000E+00 0.  1.
         21    1    1    2  503  502 -0.57683732028E+02 -0.24224888975E+02 -0.25800298865E+03  0.26548032006E+03  0.00000000000E+00 0. -1.
          1    1    1    2  501    0  0.16410686437E+03  0.52720190841E+02  0.57492976583E+00  0.17236824534E+03  0.00000000000E+00 0. -1.
<scales pt_clust_5="13000.00000" pt_clust_6="13000.00000" pt_clust_7="13000.00000" pt_clust_8="13000.00000" pt_clust_9="62.56403" pt_clust_10="13000.00000"></scales>
<clustering>
<clus scale="   62.564">  2  9  1 -1</clus>
<clus scale="   91.632">  7  8 -1 -1</clus>
<clus scale="   92.378">  5  6 -1 -1</clus>
<clus scale="  118.020">  1  5  2 -1</clus>
<clus scale="  172.212">  7 10 -1 -1</clus>
<clus scale="   62.564">  2  5  1 -1</clus>
</clustering>
</event>
<event>
10    2  0.4951045E-006  0.1891283E+03  0.7546771E-02  0.1185368E+00
         21   -1    0    0  501  502  0.00000000000E+00  0.00000000000E+00  0.58232172637E+03  0.58232172637E+03  0.00000000000E+00 0. -1.
         -1   -1    0    0    0  501 -0.00000000000E+00 -0.00000000000E+00 -0.12368360386E+03  0.12368360386E+03  0.00000000000E+00 0.  1.
         23    2    1    2    0    0 -0.47961317717E+02 -0.31257638558E+02 -0.50241674384E+01  0.10705828587E+03  0.90326664664E+02 0.  0.
         23    2    1    2    0    0 -0.33550334152E+02 -0.68089281081E+01  0.44886390716E+02  0.11044961134E+03  0.94933356356E+02 0.  0.
        -11    1    4    4    0    0 -0.34898781753E+02 -0.45865556747E+02  0.10891991227E+02  0.58653301156E+02  0.00000000000E+00 0.  1.
         11    1    4    4    0    0  0.13484476008E+01  0.39056628639E+02  0.33994399489E+02  0.51796310180E+02  0.00000000000E+00 0. -1.
        -11    1    3    3    0    0 -0.74445079219E+02 -0.16103108819E+02 -0.20566633822E+00  0.76167067898E+02  0.00000000000E+00 0.  1.
         11    1    3    3    0    0  0.26483761502E+02 -0.15154529739E+02 -0.48185011002E+01  0.30891217971E+02  0.00000000000E+00 0. -1.
         21    1    1    2  503  502 -0.67675729886E+01  0.58678607851E+02  0.38843612053E+03  0.39290151285E+03  0.00000000000E+00 0. -1.
         -1    1    1    2    0  503  0.88279224858E+02 -0.20612041185E+02  0.30339778698E+02  0.95595920179E+02  0.00000000000E+00 0.  1.
<scales pt_clust_5="13000.00000" pt_clust_6="13000.00000" pt_clust_7="13000.00000" pt_clust_8="13000.00000" pt_clust_9="59.06758" pt_clust_10="13000.00000"></scales>
<clustering>
<clus scale="   59.068">  1  9  2 -1</clus>
<clus scale="   90.327">  7  8 -1 -1</clus>
<clus scale="   94.933">  5  6 -1 -1</clus>
<clus scale="   86.066">  5 10 -1 -1</clus>
<clus scale="  104.306">  2  7  1 -1</clus>
<clus scale="   59.068">  1  5  2 -1</clus>
</clustering>
</event>
<event>
10    2  0.4951045E-006  0.1722140E+03  0.7546771E-02  0.1202109E+00
          1   -1    0    0  503    0 -0.00000000000E+00  0.00000000000E+00  0.56492922205E+03  0.56492922205E+03  0.00000000000E+00 0. -1.
         21   -1    0    0  501  502  0.00000000000E+00 -0.00000000000E+00 -0.13872186444E+03  0.13872186444E+03  0.00000000000E+00 0.  1.
         23    2    1    2    0    0  0.27183812279E+02  0.16102946523E+02  0.13794006512E+03  0.16854981757E+03  0.91560443975E+02 0.  0.
         23    2    1    2    0    0  0.51026476770E+02 -0.31206113543E+02  0.20289139125E+03  0.23053587022E+03  0.91675230886E+02 0.  0.
        -11    1    3    3    0    0  0.57813043809E+02  0.14344648806E+02  0.11734733342E+03  0.13159982388E+03  0.00000000000E+00 0.  1.
         11    1    3    3    0    0 -0.30629231530E+02  0.17582977173E+01  0.20592731699E+02  0.36949993692E+02  0.00000000000E+00 0. -1.
        -11    1    4    4    0    0  0.77595450535E+02 -0.20192520472E+02  0.13895807124E+03  0.16043109857E+03  0.00000000000E+00 0.  1.
         11    1    4    4    0    0 -0.26568973765E+02 -0.11013593071E+02  0.63933320014E+02  0.70104771644E+02  0.00000000000E+00 0. -1.
         21    1    1    2  503  502 -0.20822007092E+02  0.11544292333E+02 -0.10398068078E+03  0.10667149873E+03  0.00000000000E+00 0.  1.
          1    1    1    2  501    0 -0.57388281957E+02  0.35588746869E+01  0.18935658201E+03  0.19789389998E+03  0.00000000000E+00 0. -1.
<scales pt_clust_5="13000.00000" pt_clust_6="13000.00000" pt_clust_7="13000.00000" pt_clust_8="13000.00000" pt_clust_9="23.80812" pt_clust_10="13000.00000"></scales>
<clustering>
<clus scale="   23.808">  2  9  1 -1</clus>
<clus scale="   91.560">  5  6 -1 -1</clus>
<clus scale="   91.675">  7  8 -1 -1</clus>
<clus scale="   60.260">  7 10 -1 -1</clus>
<clus scale="   95.667">  1  5  2 -1</clus>
<clus scale="   23.808">  2  5  1 -1</clus>
</clustering>
</event>
<event>
10    2  0.4951045E-006  0.1594421E+03  0.7546771E-02  0.1210732E+00
         21   -1    0    0  503  502  0.00000000000E+00  0.00000000000E+00  0.57408487747E+02  0.57408487747E+02  0.00000000000E+00 0. -1.
         -2   -1    0    0    0  501 -0.00000000000E+00 -0.00000000000E+00 -0.66238355677E+03  0.66238355677E+03  0.00000000000E+00 0.  1.
         23    2    1    2    0    0  0.12721721360E+02 -0.12141987396E+02 -0.82581451850E+02  0.12467891933E+03  0.91738032923E+02 0.  0.
         23    2    1    2    0    0  0.53970553459E+01 -0.89971978953E+01 -0.34919314217E+03  0.36086036563E+03  0.90411698198E+02 0.  0.
        -11    1    4    4    0    0  0.47634776095E+02  0.83993120382E+00 -0.18038769701E+03  0.18657303827E+03  0.00000000000E+00 0.  1.
         11    1    4    4    0    0 -0.42237720749E+02 -0.98371290992E+01 -0.16880544516E+03  0.17428732736E+03  0.00000000000E+00 0. -1.
        -13    1    3    3    0    0 -0.24000228338E+02 -0.35740250314E+02 -0.64239853432E+02  0.77331334023E+02  0.00000000000E+00 0. -1.
         13    1    3    3    0    0  0.36721949697E+02  0.23598262919E+02 -0.18341598418E+02  0.47347585312E+02  0.00000000000E+00 0.  1.
         21    1    1    2  503  501 -0.63049389207E+02 -0.32219384638E+02 -0.33984385699E+02  0.78538224434E+02  0.00000000000E+00 0. -1.
         -2    1    1    2    0  502  0.44930612502E+02  0.53358569929E+02 -0.13921608930E+03  0.15571453511E+03  0.00000000000E+00 0.  1.
<scales pt_clust_5="13000.00000" pt_clust_6="13000.00000" pt_clust_7="13000.00000" pt_clust_8="13000.00000" pt_clust_9="70.80476" pt_clust_10="13000.00000"></scales>
<clustering>
<clus scale="   70.805">  1  9  2 -1</clus>
<clus scale="   90.412">  5  6 -1 -1</clus>
<clus scale="   54.814">  5 10 -1 -1</clus>
<clus scale="   91.738">  7  8 -1 -1</clus>
<clus scale="  100.162">  2  7  1 -1</clus>
<clus scale="   70.805">  1  5  2 -1</clus>
</clustering>
</event>
<event>
10    2  0.4951045E-006  0.3241892E+03  0.7546771E-02  0.1102525E+00
         21   -1    0    0  501  502  0.00000000000E+00  0.00000000000E+00  0.18597776126E+03  0.18597776126E+03  0.00000000000E+00 0. -1.
          3   -1    0    0  503    0 -0.00000000000E+00 -0.00000000000E+00 -0.64449585558E+03  0.64449585558E+03  0.00000000000E+00 0. -1.
         23    2    1    2    0    0 -0.92617401453E+02  0.30657936400E+02  0.48858845920E+02  0.14268453159E+03  0.91944530097E+02 0.  0.
         23    2    1    2    0    0  0.17244326225E+03 -0.40093778291E+02 -0.48971914916E+03  0.52958859201E+03  0.96410798030E+02 0.  0.
        -11    1    4    4    0    0  0.16673095499E+03 -0.62128998201E+02 -0.44842640503E+03  0.48243700573E+03  0.00000000000E+00 0. -1.
         11    1    4    4    0    0  0.57123072625E+01  0.22035219911E+02 -0.41292744134E+02  0.47151586282E+02  0.00000000000E+00 0.  1.
        -13    1    3    3    0    0 -0.40404658305E+02 -0.24665055524E+02 -0.76090600154E+01  0.47945794091E+02  0.00000000000E+00 0.  1.
         13    1    3    3    0    0 -0.52212743148E+02  0.55322991923E+02  0.56467905936E+02  0.94738737501E+02  0.00000000000E+00 0. -1.
         21    1    1    2  503  502 -0.80212449421E+01  0.57046469667E+02  0.24116614532E+02  0.62451990908E+02  0.00000000000E+00 0. -1.
          3    1    1    2  501    0 -0.71804615852E+02 -0.47610627775E+02 -0.41774405604E+02  0.95748502330E+02  0.00000000000E+00 0. -1.
<scales pt_clust_5="13000.00000" pt_clust_6="13000.00000" pt_clust_7="13000.00000" pt_clust_8="13000.00000" pt_clust_9="57.60764" pt_clust_10="13000.00000"></scales>
<clustering>
<clus scale="   57.608">  1  9  2 -1</clus>
<clus scale="   91.945">  7  8 -1 -1</clus>
<clus scale="   96.411">  5  6 -1 -1</clus>
<clus scale="   82.048">  5 10 -1 -1</clus>
<clus scale="  151.035">  2  7  1 -1</clus>
<clus scale="   57.608">  1  5  2 -1</clus>
</clustering>
</event>
<event>
10    2  0.4951045E-006  0.2220119E+03  0.7546771E-02  0.1149416E+00
         21   -1    0    0  501  502  0.00000000000E+00  0.00000000000E+00  0.17709337255E+03  0.17709337255E+03  0.00000000000E+00 0.  1.
          1   -1    0    0  503    0 -0.00000000000E+00 -0.00000000000E+00 -0.51221855769E+03  0.51221855769E+03  0.00000000000E+00 0. -1.
         23    2    1    2    0    0 -0.52946737884E+02  0.11157649430E+03 -0.29933098144E+03  0.33636089976E+03  0.91032671618E+02 0.  0.
         23    2    1    2    0    0  0.16119363294E+02 -0.52276389140E+02 -0.16310668990E+03  0.19662605500E+03  0.95212176122E+02 0.  0.
        -11    1    3    3    0    0 -0.43306364789E+01  0.10378413712E+03 -0.21292264967E+03  0.23690917304E+03  0.00000000000E+00 0. -1.
         11    1    3    3    0    0 -0.48616101405E+02  0.77923571742E+01 -0.86408331777E+02  0.99451726715E+02  0.00000000000E+00 0.  1.
        -11    1    4    4    0    0  0.39024791295E+02 -0.70373493072E+02 -0.11508089534E+03  0.14042426904E+03  0.00000000000E+00 0.  1.
         11    1    4    4    0    0 -0.22905428001E+02  0.18097103932E+02 -0.48025794552E+02  0.56201785959E+02  0.00000000000E+00 0. -1.
         21    1    1    2  503  502  0.73636591683E+00 -0.34917962909E+02  0.97439649607E+02  0.10350986274E+03  0.00000000000E+00 0.  1.
          1    1    1    2  501    0  0.36091008673E+02 -0.24382142250E+02  0.29872836590E+02  0.52815112739E+02  0.00000000000E+00 0. -1.
<scales pt_clust_5="13000.00000" pt_clust_6="13000.00000" pt_clust_7="13000.00000" pt_clust_8="13000.00000" pt_clust_9="34.92573" pt_clust_10="13000.00000"></scales>
<clustering>
<clus scale="   34.926">  1  9  2 -1</clus>
<clus scale="   91.033">  5  6 -1 -1</clus>
<clus scale="   95.212">  7  8 -1 -1</clus>
<clus scale="   56.566">  7 10 -1 -1</clus>
<clus scale="  147.340">  2  5  1 -1</clus>
<clus scale="   34.926">  1  5  2 -1</clus>
</clustering>
</event>
<event>
10    2  0.4951045E-006  0.5900165E+03  0.7546771E-02  0.1020569E+00
         21   -1    0    0  503  502  0.00000000000E+00  0.00000000000E+00  0.37906363298E+03  0.37906363298E+03  0.00000000000E+00 0. -1.
          2   -1    0    0  502    0 -0.00000000000E+00 -0.00000000000E+00 -0.58647508179E+03  0.58647508179E+03  0.00000000000E+00 0. -1.
         23    2    1    2    0    0 -0.76366958411E+02  0.21824703724E+03 -0.23821002045E+03  0.34291806667E+03  0.85936633647E+02 0.  0.
         23    2    1    2    0    0  0.80154293705E+02 -0.12182631777E+02 -0.23753528667E+03  0.26667975431E+03  0.90121870992E+02 0.  0.
        -11    1    3    3    0    0 -0.29669141359E+02  0.73568991446E+01 -0.32977496961E+02  0.44965511448E+02  0.00000000000E+00 0.  1.
         11    1    3    3    0    0 -0.46697817052E+02  0.21089013810E+03 -0.20523252349E+03  0.29795255522E+03  0.00000000000E+00 0. -1.
        -13    1    4    4    0    0  0.36048373388E+02  0.39160206582E+02 -0.95158515254E+02  0.10903279336E+03  0.00000000000E+00 0.  1.
         13    1    4    4    0    0  0.44105920317E+02 -0.51342838359E+02 -0.14237677142E+03  0.15764696095E+03  0.00000000000E+00 0. -1.
         21    1    1    2  503  501 -0.26228198043E+02 -0.32957081979E+01  0.14050137527E+02  0.29936373021E+02  0.00000000000E+00 0. -1.
          2    1    1    2  501    0  0.22440862749E+02 -0.20276869727E+03  0.25428372078E+03  0.32600452077E+03  0.00000000000E+00 0. -1.
<scales pt_clust_5="13000.00000" pt_clust_6="13000.00000" pt_clust_7="13000.00000" pt_clust_8="13000.00000" pt_clust_9="26.43445" pt_clust_10="13000.00000"></scales>
<clustering>
<clus scale="   26.434">  1  9  2 -1</clus>
<clus scale="   85.937">  5  6 -1 -1</clus>
<clus scale="   90.122">  7  8 -1 -1</clus>
<clus scale="  205.450">  7 10 -1 -1</clus>
<clus scale="  247.468">  2  5  1 -1</clus>
<clus scale="   26.434">  1  5  2 -1</clus>
</clustering>
</event>
<event>
10    2  0.4951045E-006  0.2937088E+03  0.7546771E-02  0.1125475E+00
         21   -1    0    0  503  502  0.00000000000E+00  0.00000000000E+00  0.15509873113E+03  0.15509873113E+03  0.00000000000E+00 0.  1.
         -3   -1    0    0    0  501 -0.00000000000E+00 -0.00000000000E+00 -0.62882102216E+03  0.62882102216E+03  0.00000000000E+00 0.  1.
         23    2    1    2    0    0  0.64398713497E+02 -0.26945166784E+01 -0.10275077124E+03  0.15686591795E+03  0.99472310234E+02 0.  0.
         23    2    1    2    0    0 -0.97131504778E+02 -0.13154143407E+03 -0.34659486505E+03  0.39287973210E+03  0.86537883707E+02 0.  0.
        -11    1    3    3    0    0  0.49590856422E+02 -0.37606597367E+02 -0.19232811789E+02  0.65141463412E+02  0.00000000000E+00 0.  1.
         11    1    3    3    0    0  0.14807857075E+02  0.34912080688E+02 -0.83517959452E+02  0.91724454537E+02  0.00000000000E+00 0. -1.
        -11    1    4    4    0    0 -0.47404389974E+02 -0.18062635794E+02 -0.49022875156E+02  0.70545568884E+02  0.00000000000E+00 0. -1.
         11    1    4    4    0    0 -0.49727114804E+02 -0.11347879828E+03 -0.29757198990E+03  0.32233416322E+03  0.00000000000E+00 0.  1.
         21    1    1    2  503  501 -0.34835976879E+02  0.59991688049E+02  0.68441824748E+02  0.97451686978E+02  0.00000000000E+00 0.  1.
         -3    1    1    2    0  502  0.67568768160E+02  0.74244262701E+02 -0.92818479487E+02  0.13672241626E+03  0.00000000000E+00 0.  1.
<scales pt_clust_5="13000.00000" pt_clust_6="13000.00000" pt_clust_7="13000.00000" pt_clust_8="13000.00000" pt_clust_9="69.37253" pt_clust_10="13000.00000"></scales>
<clustering>
<clus scale="   69.373">  1  9  2 -1</clus>
<clus scale="   86.538">  7  8 -1 -1</clus>
<clus scale="   99.472">  5  6 -1 -1</clus>
<clus scale="  108.633">  7 10 -1 -1</clus>
<clus scale="  113.676">  2  5  1 -1</clus>
<clus scale="   69.373">  1  5  2 -1</clus>
</clustering>
</event>
<event>
10    2  0.4951045E-006  0.2371016E+03  0.7546771E-02  0.1150262E+00
          1   -1    0    0  502    0 -0.00000000000E+00  0.00000000000E+00  0.39566579686E+03  0.39566579686E+03  0.00000000000E+00 0. -1.
         21   -1    0    0  503  502  0.00000000000E+00 -0.00000000000E+00 -0.19652616368E+03  0.19652616368E+03  0.00000000000E+00 0. -1.
         23    2    1    2    0    0 -0.77803608990E+02 -0.90876433382E+01  0.10866941965E+03  0.16082645146E+03  0.88995044181E+02 0.  0.
         23    2    1    2    0    0 -0.14965463690E+02 -0.92837439401E+01  0.18962483828E+02  0.95676709537E+02  0.92110281456E+02 0.  0.
        -11    1    3    3    0    0 -0.35722665393E+02 -0.48843930664E+02  0.59635323653E+02  0.84960050687E+02  0.00000000000E+00 0. -1.
         11    1    3    3    0    0 -0.42080943597E+02  0.39756287326E+02  0.49034095996E+02  0.75866400772E+02  0.00000000000E+00 0.  1.
        -11    1    4    4    0    0 -0.12116052716E+02  0.32542543561E+02  0.36368186414E+02  0.50283803136E+02  0.00000000000E+00 0.  1.
         11    1    4    4    0    0 -0.28494109742E+01 -0.41826287501E+02 -0.17405702586E+02  0.45392906401E+02  0.00000000000E+00 0. -1.
         21    1    1    2  503  501  0.16798017941E+03 -0.38630029656E+02 -0.52199227645E+02  0.18009547255E+03  0.00000000000E+00 0. -1.
          1    1    1    2  501    0 -0.75211106731E+02  0.57001416935E+02  0.12370695735E+03  0.15559332699E+03  0.00000000000E+00 0. -1.
<scales pt_clust_5="13000.00000" pt_clust_6="13000.00000" pt_clust_7="13000.00000" pt_clust_8="13000.00000" pt_clust_9="154.41475" pt_clust_10="13000.00000"></scales>
<clustering>
<clus scale="   88.995">  5  6 -1 -1</clus>
<clus scale="   92.110">  7  8 -1 -1</clus>
<clus scale="   94.371">  7 10 -1 -1</clus>
<clus scale="  118.558">  1  5  2 -1</clus>
<clus scale="  154.415">  2  9  1 -1</clus>
<clus scale="  154.415">  2  5  1 -1</clus>
</clustering>
</event>
<event>
10    2  0.4951045E-006  0.3540200E+03  0.7546771E-02  0.1091152E+00
          4   -1    0    0  503    0 -0.00000000000E+00  0.00000000000E+00  0.10528802652E+04  0.10528802652E+04  0.00000000000E+00 0. -1.
         21   -1    0    0  501  502  0.00000000000E+00 -0.00000000000E+00 -0.12545374824E+03  0.12545374824E+03  0.00000000000E+00 0. -1.
         23    2    1    2    0    0  0.12272421277E+03 -0.28607415174E+02  0.67581407090E+03  0.69352254500E+03  0.91483579933E+02 0.  0.
         23    2    1    2    0    0 -0.21863664837E+03  0.49019388394E+01  0.21142214762E+03  0.31672175259E+03  0.88245855684E+02 0.  0.
        -11    1    4    4    0    0 -0.18883753553E+03  0.15496889371E+02  0.21297372253E+03  0.28505714320E+03  0.00000000000E+00 0. -1.
         11    1    4    4    0    0 -0.29799112846E+02 -0.10594950531E+02 -0.15515749063E+01  0.31664609390E+02  0.00000000000E+00 0.  1.
        -13    1    3    3    0    0  0.54138694888E+02  0.31286307905E+02  0.33311598788E+03  0.33893375861E+03  0.00000000000E+00 0.  1.
         13    1    3    3    0    0  0.68585517884E+02 -0.59893723078E+02  0.34269808302E+03  0.35458878639E+03  0.00000000000E+00 0. -1.
         21    1    1    2  503  502 -0.40761050716E+01 -0.36224158788E+02 -0.14618623195E+02  0.39274781432E+02  0.00000000000E+00 0. -1.
          4    1    1    2  501    0  0.99988540671E+02  0.59929635122E+02  0.54808921601E+02  0.12881493438E+03  0.00000000000E+00 0. -1.
<scales pt_clust_5="13000.00000" pt_clust_6="13000.00000" pt_clust_7="13000.00000" pt_clust_8="13000.00000" pt_clust_9="36.45277" pt_clust_10="13000.00000"></scales>
<clustering>
<clus scale="   36.453">  2  9  1 -1</clus>
<clus scale="   88.246">  5  6 -1 -1</clus>
<clus scale="   91.484">  7  8 -1 -1</clus>
<clus scale="  108.810">  5 10 -1 -1</clus>
<clus scale="  156.064">  1  7  2 -1</clus>
<clus scale="   36.453">  2  5  1 -1</clus>
</clustering>
</event>
<event>
10    2  0.4951045E-006  0.1315083E+03  0.7546771E-02  0.1231519E+00
         21   -1    0    0  503  502  0.00000000000E+00  0.00000000000E+00  0.11707377593E+03  0.11707377593E+03  0.00000000000E+00 0. -1.
         -3   -1    0    0    0  501 -0.00000000000E+00 -0.00000000000E+00 -0.30748992800E+03  0.30748992800E+03  0.00000000000E+00 0.  1.
         23    2    1    2    0    0  0.67630905649E+02  0.69392840425E+01 -0.16330883019E+03  0.19778002210E+03  0.88459426075E+02 0.  0.
         23    2    1    2    0    0 -0.62704325794E+02 -0.17799321872E+02 -0.82777163710E+02  0.13986713806E+03  0.91989723046E+02 0.  0.
        -13    1    4    4    0    0 -0.60269086344E+02  0.26893090683E+02 -0.61883502218E+02  0.90471923501E+02  0.00000000000E+00 0.  1.
         13    1    4    4    0    0 -0.24352394499E+01 -0.44692412556E+02 -0.20893661492E+02  0.49395214563E+02  0.00000000000E+00 0. -1.
        -13    1    3    3    0    0  0.10403546637E+02  0.29272395193E+02 -0.11643583786E+03  0.12050896747E+03  0.00000000000E+00 0.  1.
         13    1    3    3    0    0  0.57227359012E+02 -0.22333111150E+02 -0.46872992330E+02  0.77271054627E+02  0.00000000000E+00 0. -1.
         21    1    1    2  503  501  0.19296168552E+02  0.10445162193E+02  0.58543622511E+02  0.62520390840E+02  0.00000000000E+00 0. -1.
         -3    1    1    2    0  502 -0.24222748407E+02  0.41487563624E+00 -0.28737806804E+01  0.24396152926E+02  0.00000000000E+00 0.  1.
<scales pt_clust_5="13000.00000" pt_clust_6="13000.00000" pt_clust_7="13000.00000" pt_clust_8="13000.00000" pt_clust_9="21.94182" pt_clust_10="13000.00000"></scales>
<clustering>
<clus scale="   21.942">  1  9  2 -1</clus>
<clus scale="   88.459">  7  8 -1 -1</clus>
<clus scale="   91.990">  5  6 -1 -1</clus>
<clus scale="   20.690">  5 10 -1 -1</clus>
<clus scale="  115.463">  2  7  1 -1</clus>
<clus scale="   21.942">  1  5  2 -1</clus>
</clustering>
</event>
<event>
10    2  0.4951045E-006  0.2058440E+03  0.7546771E-02  0.1166779E+00
          2   -1    0    0  503    0 -0.00000000000E+00  0.00000000000E+00  0.60223547895E+03  0.60223547895E+03  0.00000000000E+00 0. -1.
         21   -1    0    0  501  502  0.00000000000E+00 -0.00000000000E+00 -0.97826051887E+02  0.97826051887E+02  0.00000000000E+00 0.  1.
         23    2    1    2    0    0  0.56949260036E+01 -0.52335659807E+02  0.71199067136E+02  0.13086112067E+03  0.96352852956E+02 0.  0.
         23    2    1    2    0    0  0.88597594080E+01  0.18310922376E+02  0.38984740753E+03  0.40092035983E+03  0.91336457979E+02 0.  0.
        -11    1    4    4    0    0 -0.34475296293E+02  0.32345070785E+02  0.17315450063E+03  0.17949158963E+03  0.00000000000E+00 0.  1.
         11    1    4    4    0    0  0.43335055701E+02 -0.14034148409E+02  0.21669290690E+03  0.22142877020E+03  0.00000000000E+00 0. -1.
        -13    1    3    3    0    0 -0.11737181379E+02  0.22341876739E+02  0.41610301995E+02  0.48665574229E+02  0.00000000000E+00 0.  1.
         13    1    3    3    0    0  0.17432107383E+02 -0.74677536546E+02  0.29588765141E+02  0.82195546442E+02  0.00000000000E+00 0. -1.
         21    1    1    2  503  502 -0.44138513998E+02 -0.40136815932E+02 -0.23516394984E+02  0.64126384929E+02  0.00000000000E+00 0.  1.
          2    1    1    2  501    0  0.29583828586E+02  0.74161553363E+02  0.66879347385E+02  0.10415366541E+03  0.00000000000E+00 0. -1.
<scales pt_clust_5="13000.00000" pt_clust_6="13000.00000" pt_clust_7="13000.00000" pt_clust_8="13000.00000" pt_clust_9="59.65880" pt_clust_10="13000.00000"></scales>
<clustering>
<clus scale="   59.659">  2  9  1 -1</clus>
<clus scale="   91.336">  5  6 -1 -1</clus>
<clus scale="   61.994">  5 10 -1 -1</clus>
<clus scale="   96.353">  7  8 -1 -1</clus>
<clus scale="  123.224">  1  7  2 -1</clus>
<clus scale="   59.659">  2  5  1 -1</clus>
</clustering>
</event>
<event>
10    2  0.4951045E-006  0.3700960E+03  0.7546771E-02  0.1092345E+00
         21   -1    0    0  503  502  0.00000000000E+00  0.00000000000E+00  0.97128412651E+02  0.97128412651E+02  0.00000000000E+00 0. -1.
          1   -1    0    0  502    0 -0.00000000000E+00 -0.00000000000E+00 -0.12629960421E+04  0.12629960421E+04  0.00000000000E+00 0. -1.
         23    2    1    2    0    0 -0.41105825665E+02 -0.95627704579E+02 -0.75013324358E+02  0.16492503299E+03  0.10362876477E+03 0.  0.
         23    2    1    2    0    0  0.16087740316E+03  0.12305029273E+03 -0.53013985714E+03  0.57438629196E+03  0.88591370235E+02 0.  0.
        -11    1    3    3    0    0 -0.19403105378E+02  0.20778402738E+02 -0.13067718174E+02  0.31288780368E+02  0.00000000000E+00 0.  1.
         11    1    3    3    0    0 -0.21702720288E+02 -0.11640610732E+03 -0.61945606184E+02  0.13363625262E+03  0.00000000000E+00 0. -1.
        -13    1    4    4    0    0  0.14368161416E+03  0.10403928987E+03 -0.51481399514E+03  0.54451999934E+03  0.00000000000E+00 0. -1.
         13    1    4    4    0    0  0.17195788999E+02  0.19011002868E+02 -0.15325861995E+02  0.29866292626E+02  0.00000000000E+00 0.  1.
         21    1    1    2  503  501 -0.52192904203E+01  0.43672191596E+02  0.13855573370E+00  0.43983184389E+02  0.00000000000E+00 0.  1.
          1    1    1    2  501    0 -0.11455228707E+03 -0.71094779751E+02 -0.56085300371E+03  0.57682994543E+03  0.00000000000E+00 0. -1.
<scales pt_clust_5="13000.00000" pt_clust_6="13000.00000" pt_clust_7="13000.00000" pt_clust_8="13000.00000" pt_clust_9="43.98297" pt_clust_10="13000.00000"></scales>
<clustering>
<clus scale="   43.983">  1  9  2 -1</clus>
<clus scale="   88.591">  7  8 -1 -1</clus>
<clus scale="  103.629">  5  6 -1 -1</clus>
<clus scale="  132.371">  2  5  1 -1</clus>
<clus scale="  169.405">  7 10 -1 -1</clus>
<clus scale="   43.983">  1  5  2 -1</clus>
</clustering>
</event>
<event>
10    2  0.4951045E-006  0.3579800E+03  0.7546771E-02  0.1087460E+00
         21   -1    0    0  501  502  0.00000000000E+00  0.00000000000E+00  0.23991529628E+03  0.23991529628E+03  0.00000000000E+00 0.  1.
          1   -1    0    0  503    0 -0.00000000000E+00 -0.00000000000E+00 -0.38116684327E+03  0.38116684327E+03  0.00000000000E+00 0. -1.
         23    2    1    2    0    0 -0.10781687625E+03  0.66647582246E+02 -0.13126259208E+03  0.21288456408E+03  0.10965213412E+03 0.  0.
         23    2    1    2    0    0 -0.57006835210E+02 -0.11389992214E+03 -0.87335387675E+01  0.15869838497E+03  0.94265217176E+02 0.  0.
        -13    1    3    3    0    0 -0.12265671063E+03  0.35487158299E+02 -0.12321991995E+03  0.17744620520E+03  0.00000000000E+00 0.  1.
         13    1    3    3    0    0  0.14839834380E+02  0.31160423948E+02 -0.80426721347E+01  0.35438358880E+02  0.00000000000E+00 0. -1.
        -13    1    4    4    0    0  0.19617672161E+02 -0.32260334959E+02 -0.25390865727E+02  0.45500311373E+02  0.00000000000E+00 0. -1.
         13    1    4    4    0    0 -0.76624507371E+02 -0.81639587176E+02  0.16657326960E+02  0.11319807360E+03  0.00000000000E+00 0.  1.
         21    1    1    2  503  502 -0.14139798552E+02 -0.40138318540E+02  0.23815069647E+02  0.48766546531E+02  0.00000000000E+00 0.  1.
          1    1    1    2  501    0  0.17896351001E+03  0.87390658429E+02 -0.25070485786E+02  0.20073264397E+03  0.00000000000E+00 0. -1.
<scales pt_clust_5="13000.00000" pt_clust_6="13000.00000" pt_clust_7="13000.00000" pt_clust_8="13000.00000" pt_clust_9="42.55606" pt_clust_10="13000.00000"></scales>
<clustering>
<clus scale="   42.556">  1  9  2 -1</clus>
<clus scale="   94.265">  7  8 -1 -1</clus>
<clus scale="  109.652">  5  6 -1 -1</clus>
<clus scale="  166.438">  2  5  1 -1</clus>
<clus scale="  153.953">  7 10 -1 -1</clus>
<clus scale="   42.556">  1  5  2 -1</clus>
</clustering>
</event>
<event>
10    2  0.4951045E-006  0.3146253E+03  0.7546771E-02  0.1109617E+00
         21   -1    0    0  501  502  0.00000000000E+00  0.00000000000E+00  0.27056152857E+03  0.27056152857E+03  0.00000000000E+00 0. -1.
          2   -1    0    0  503    0 -0.00000000000E+00 -0.00000000000E+00 -0.24221336260E+03  0.24221336260E+03  0.00000000000E+00 0. -1.
         23    2    1    2    0    0 -0.23195227136E+02  0.80703104518E+02 -0.14812261008E+02  0.13718078856E+03  0.10746234705E+03 0.  0.
         23    2    1    2    0    0  0.56201775876E+02  0.70032093092E+02 -0.39026277308E+02  0.14446889974E+03  0.10623125244E+03 0.  0.
        -11    1    3    3    0    0  0.14473586081E+01  0.10145858356E+03 -0.22773248360E+02  0.10399307605E+03  0.00000000000E+00 0. -1.
         11    1    3    3    0    0 -0.24642585745E+02 -0.20755479042E+02  0.79609873518E+01  0.33187712516E+02  0.00000000000E+00 0.  1.
        -13    1    4    4    0    0 -0.11955555093E+02  0.44821504887E+02 -0.53035538414E+02  0.70460421037E+02  0.00000000000E+00 0. -1.
         13    1    4    4    0    0  0.68157330969E+02  0.25210588205E+02  0.14009261105E+02  0.74008478698E+02  0.00000000000E+00 0.  1.
         21    1    1    2  503  502  0.16539653839E+02  0.12082395131E+02  0.55112711782E+02  0.58795879287E+02  0.00000000000E+00 0. -1.
          2    1    1    2  501    0 -0.49546202579E+02 -0.16281759274E+03  0.27073992514E+02  0.17232932358E+03  0.00000000000E+00 0. -1.
<scales pt_clust_5="13000.00000" pt_clust_6="13000.00000" pt_clust_7="13000.00000" pt_clust_8="13000.00000" pt_clust_9="20.48278" pt_clust_10="13000.00000"></scales>
<clustering>
<clus scale="   20.483">  1  9  2 -1</clus>
<clus scale="  106.231">  7  8 -1 -1</clus>
<clus scale="  107.462">  5  6 -1 -1</clus>
<clus scale="  137.740">  2  5  1 -1</clus>
<clus scale="  132.303">  7 10 -1 -1</clus>
<clus scale="   20.483">  1  5  2 -1</clus>
</clustering>
</event>
<event>
10    2  0.4951045E-006  0.2318890E+03  0.7546771E-02  0.1139046E+00
          1   -1    0    0  502    0 -0.00000000000E+00  0.00000000000E+00  0.90301025214E+03  0.90301025214E+03  0.00000000000E+00 0. -1.
         21   -1    0    0  503  502  0.00000000000E+00 -0.00000000000E+00 -0.29195272320E+03  0.29195272320E+03  0.00000000000E+00 0. -1.
         23    2    1    2    0    0  0.12958073602E+03 -0.86125243122E+02  0.65008083181E+03  0.67828537186E+03  0.11514005881E+03 0.  0.
         23    2    1    2    0    0  0.34351552179E+02 -0.12667572126E+02  0.19092803100E+03  0.21510760118E+03  0.92072094259E+02 0.  0.
        -11    1    4    4    0    0  0.62695665880E+02 -0.99577539287E+01  0.16424291880E+03  0.17608418373E+03  0.00000000000E+00 0. -1.
         11    1    4    4    0    0 -0.28344113701E+02 -0.27098181972E+01  0.26685112202E+02  0.39023417449E+02  0.00000000000E+00 0.  1.
        -13    1    3    3    0    0 -0.11890590945E+02 -0.23613190951E+02  0.33904665370E+02  0.42994130689E+02  0.00000000000E+00 0.  1.
         13    1    3    3    0    0  0.14147132696E+03 -0.62512052171E+02  0.61617616644E+03  0.63529124117E+03  0.00000000000E+00 0. -1.
         21    1    1    2  503  501 -0.14172350155E+03  0.72941079306E+02 -0.20312624660E+03  0.25819803252E+03  0.00000000000E+00 0. -1.
          1    1    1    2  501    0 -0.22208786646E+02  0.25851735942E+02 -0.26825087277E+02  0.43371969783E+02  0.00000000000E+00 0. -1.
<scales pt_clust_5="13000.00000" pt_clust_6="13000.00000" pt_clust_7="13000.00000" pt_clust_8="13000.00000" pt_clust_9="159.39245" pt_clust_10="13000.00000"></scales>
<clustering>
<clus scale="   92.072">  5  6 -1 -1</clus>
<clus scale="   34.081">  5 10 -1 -1</clus>
<clus scale="  115.140">  7  8 -1 -1</clus>
<clus scale="  159.392">  2  9  1 -1</clus>
<clus scale="  165.738">  1  7  2 -1</clus>
<clus scale="  159.392">  2  5  1 -1</clus>
</clustering>
</event>
<event>
10    2  0.4951045E-006  0.1194224E+04  0.7546771E-02  0.9632462E-01
         21   -1    0    0  501  502  0.00000000000E+00  0.00000000000E+00  0.44691107682E+03  0.44691107682E+03  0.00000000000E+00 0. -1.
          1   -1    0    0  503    0 -0.00000000000E+00 -0.00000000000E+00 -0.13775541163E+04  0.13775541163E+04  0.00000000000E+00 0. -1.
         23    2    1    2    0    0 -0.98283228833E+02  0.12335350105E+03  0.11798623655E+03  0.21724676302E+03  0.91650012187E+02 0.  0.
         23    2    1    2    0    0 -0.16803293051E+03  0.24592821111E+03 -0.10700196159E+04  0.11145658772E+04  0.92732763995E+02 0.  0.
        -11    1    3    3    0    0 -0.83513898322E+02  0.71402929352E+02  0.12063327836E+03  0.16317272254E+03  0.00000000000E+00 0. -1.
         11    1    3    3    0    0 -0.14769330512E+02  0.51950571696E+02 -0.26470418041E+01  0.54074040478E+02  0.00000000000E+00 0.  1.
        -13    1    4    4    0    0 -0.11062020010E+03  0.15689397759E+03 -0.83482544511E+03  0.85661314062E+03  0.00000000000E+00 0. -1.
         13    1    4    4    0    0 -0.57412730409E+02  0.89034233520E+02 -0.23519417076E+03  0.25795273658E+03  0.00000000000E+00 0.  1.
         21    1    1    2  503  502 -0.19923620267E+02  0.39186186971E+01 -0.69661672934E+01  0.21467037611E+02  0.00000000000E+00 0. -1.
          1    1    1    2  501    0  0.28623977961E+03 -0.37320033085E+03  0.28356507087E+02  0.47118551534E+03  0.00000000000E+00 0. -1.
<scales pt_clust_5="13000.00000" pt_clust_6="13000.00000" pt_clust_7="13000.00000" pt_clust_8="13000.00000" pt_clust_9="20.30532" pt_clust_10="13000.00000"></scales>
<clustering>
<clus scale="   20.305">  1  9  2 -1</clus>
<clus scale="   91.650">  5  6 -1 -1</clus>
<clus scale="   92.733">  7  8 -1 -1</clus>
<clus scale="  187.609">  2  5  1 -1</clus>
<clus scale="  434.420">  7 10 -1 -1</clus>
<clus scale="   20.305">  1  5  2 -1</clus>
</clustering>
</event>
<event>
10    2  0.4951045E-006  0.3808699E+03  0.7546771E-02  0.1099845E+00
         -1   -1    0    0    0  501 -0.00000000000E+00  0.00000000000E+00  0.17244543246E+03  0.17244543246E+03  0.00000000000E+00 0.  1.
         21   -1    0    0  501  502  0.00000000000E+00 -0.00000000000E+00 -0.40150877754E+03  0.40150877754E+03  0.00000000000E+00 0.  1.
         23    2    1    2    0    0 -0.32116031476E+02  0.19741099736E+01 -0.43044366985E+02  0.10667282136E+03  0.92146278813E+02 0.  0.
         23    2    1    2    0    0 -0.11719391555E+03 -0.43842715336E+02 -0.16212593557E+03  0.22252229171E+03  0.87033061484E+02 0.  0.
        -11    1    4    4    0    0 -0.85994361803E+02 -0.43505077184E+02 -0.16511054528E+03  0.19117848771E+03  0.00000000000E+00 0.  1.
         11    1    4    4    0    0 -0.31199553748E+02 -0.33763815250E+00  0.29846097072E+01  0.31343803992E+02  0.00000000000E+00 0. -1.
        -13    1    3    3    0    0 -0.43525272417E+02 -0.36742809986E+02 -0.21198355487E+02  0.60777082029E+02  0.00000000000E+00 0. -1.
         13    1    3    3    0    0  0.11409240942E+02  0.38716919960E+02 -0.21846011498E+02  0.45895739327E+02  0.00000000000E+00 0.  1.
         21    1    1    2  503  502 -0.29083420829E+02 -0.30781458089E+02 -0.30237786143E+02  0.52035249976E+02  0.00000000000E+00 0.  1.
         -1    1    1    2    0  503  0.17839336786E+03  0.72650063452E+02  0.63447436157E+01  0.19272384696E+03  0.00000000000E+00 0.  1.
<scales pt_clust_5="13000.00000" pt_clust_6="13000.00000" pt_clust_7="13000.00000" pt_clust_8="13000.00000" pt_clust_9="42.34789" pt_clust_10="13000.00000"></scales>
<clustering>
<clus scale="   42.348">  2  9  1 -1</clus>
<clus scale="   87.033">  5  6 -1 -1</clus>
<clus scale="   92.146">  7  8 -1 -1</clus>
<clus scale="   99.832">  1  7  2 -1</clus>
<clus scale="  157.760">  5 10 -1 -1</clus>
<clus scale="   42.348">  2  5  1 -1</clus>
</clustering>
</event>
<event>
10    2  0.4951045E-006  0.2803102E+03  0.7546771E-02  0.1113083E+00
          1   -1    0    0  502    0 -0.00000000000E+00  0.00000000000E+00  0.84072989566E+03  0.84072989566E+03  0.00000000000E+00 0. -1.
         21   -1    0    0  503  502  0.00000000000E+00 -0.00000000000E+00 -0.13138580660E+03  0.13138580660E+03  0.00000000000E+00 0. -1.
         23    2    1    2    0    0  0.76434412435E+02  0.12470643968E+03  0.19767262330E+03  0.26219553549E+03  0.90984159752E+02 0.  0.
         23    2    1    2    0    0  0.13193714332E+02 -0.21506156653E+03  0.45819735928E+03  0.51462527009E+03  0.92026067323E+02 0.  0.
        -11    1    3    3    0    0  0.73844615346E+02  0.41418835088E+02  0.12856212185E+03  0.15393754022E+03  0.00000000000E+00 0. -1.
         11    1    3    3    0    0  0.25897970882E+01  0.83287604596E+02  0.69110501448E+02  0.10825799526E+03  0.00000000000E+00 0.  1.
        -13    1    4    4    0    0 -0.23469053304E+02 -0.47460581258E+02  0.54497508798E+02  0.75982114353E+02  0.00000000000E+00 0.  1.
         13    1    4    4    0    0  0.36662767636E+02 -0.16760098527E+03  0.40369985048E+03  0.43864315573E+03  0.00000000000E+00 0. -1.
         21    1    1    2  503  501 -0.59820153308E+02  0.44148418762E+02 -0.41799478468E+02  0.85292027888E+02  0.00000000000E+00 0. -1.
          1    1    1    2  501    0 -0.29807973458E+02  0.46206708079E+02  0.95273584953E+02  0.11000286879E+03  0.00000000000E+00 0. -1.
<scales pt_clust_5="13000.00000" pt_clust_6="13000.00000" pt_clust_7="13000.00000" pt_clust_8="13000.00000" pt_clust_9="74.34738" pt_clust_10="13000.00000"></scales>
<clustering>
<clus scale="   74.347">  2  9  1 -1</clus>
<clus scale="   90.984">  5  6 -1 -1</clus>
<clus scale="   92.026">  7  8 -1 -1</clus>
<clus scale="   62.600">  7 10 -1 -1</clus>
<clus scale="  178.353">  1  5  2 -1</clus>
<clus scale="   74.347">  2  5  1 -1</clus>
</clustering>
</event>
<event>
10    2  0.4951045E-006  0.2950920E+03  0.7546771E-02  0.1134235E+00
         21   -1    0    0  503  502  0.00000000000E+00  0.00000000000E+00  0.38817541923E+03  0.38817541923E+03  0.00000000000E+00 0.  1.
         -3   -1    0    0    0  501 -0.00000000000E+00 -0.00000000000E+00 -0.13467793857E+03  0.13467793857E+03  0.00000000000E+00 0.  1.
         23    2    1    2    0    0 -0.12798252776E+02  0.17897129570E+02 -0.23532873352E+02  0.92903023424E+02  0.87138241388E+02 0.  0.
         23    2    1    2    0    0 -0.57377982313E+02  0.95887665729E+02  0.11996853603E+03  0.18754705567E+03  0.91075634280E+02 0.  0.
        -11    1    3    3    0    0 -0.37366974895E+02 -0.60280212141E+01  0.15539368567E+02  0.40915765031E+02  0.00000000000E+00 0. -1.
         11    1    3    3    0    0  0.24568722120E+02  0.23925150784E+02 -0.39072241919E+02  0.51987258393E+02  0.00000000000E+00 0.  1.
        -11    1    4    4    0    0 -0.41538992026E+02  0.79467631384E+01  0.59850961034E+01  0.42713701294E+02  0.00000000000E+00 0. -1.
         11    1    4    4    0    0 -0.15838990287E+02  0.87940902590E+02  0.11398343993E+03  0.14483335437E+03  0.00000000000E+00 0.  1.
         21    1    1    2  503  501 -0.18698609035E+02  0.98928263939E+01  0.55372977458E+02  0.59276239983E+02  0.00000000000E+00 0.  1.
         -3    1    1    2    0  502  0.88874844124E+02 -0.12367762169E+03  0.10168884052E+03  0.18312703872E+03  0.00000000000E+00 0.  1.
<scales pt_clust_5="13000.00000" pt_clust_6="13000.00000" pt_clust_7="13000.00000" pt_clust_8="13000.00000" pt_clust_9="21.15434" pt_clust_10="13000.00000"></scales>
<clustering>
<clus scale="   21.154">  1  9  2 -1</clus>
<clus scale="   87.138">  5  6 -1 -1</clus>
<clus scale="   90.385">  2  5  1 -1</clus>
<clus scale="   91.076">  7  8 -1 -1</clus>
<clus scale="  132.364">  7 10 -1 -1</clus>
<clus scale="   21.154">  1  5  2 -1</clus>
</clustering>
</event>
<event>
10    2  0.4951045E-006  0.2885941E+03  0.7546771E-02  0.1130744E+00
         21   -1    0    0  501  502  0.00000000000E+00  0.00000000000E+00  0.70430723009E+02  0.70430723009E+02  0.00000000000E+00 0. -1.
          1   -1    0    0  503    0 -0.00000000000E+00 -0.00000000000E+00 -0.77517706790E+03  0.77517706790E+03  0.00000000000E+00 0. -1.
         23    2    1    2    0    0  0.65505745163E+02 -0.18157366554E+02 -0.15460519214E+03  0.19189121073E+03  0.91097632850E+02 0.  0.
         23    2    1    2    0    0 -0.96649887278E+02  0.13218829521E+02 -0.45930625911E+03  0.47815183219E+03  0.90282871034E+02 0.  0.
        -13    1    4    4    0    0  0.63396064776E+01  0.23830347447E+02 -0.47373504013E+02  0.53407161994E+02  0.00000000000E+00 0.  1.
         13    1    4    4    0    0 -0.10298949376E+03 -0.10611517926E+02 -0.41193275510E+03  0.42474467020E+03  0.00000000000E+00 0. -1.
        -13    1    3    3    0    0  0.19278997225E+02 -0.41409680437E+02 -0.24411964341E+02  0.51791750027E+02  0.00000000000E+00 0. -1.
         13    1    3    3    0    0  0.46226747939E+02  0.23252313882E+02 -0.13019322780E+03  0.14009946071E+03  0.00000000000E+00 0.  1.
         21    1    1    2  503  502 -0.56137900756E+02 -0.17163828722E+02 -0.48139512196E+02  0.75917544429E+02  0.00000000000E+00 0. -1.
          1    1    1    2  501    0  0.87282042870E+02  0.22102365755E+02 -0.42695381439E+02  0.99647203552E+02  0.00000000000E+00 0. -1.
<scales pt_clust_5="13000.00000" pt_clust_6="13000.00000" pt_clust_7="13000.00000" pt_clust_8="13000.00000" pt_clust_9="58.70316" pt_clust_10="13000.00000"></scales>
<clustering>
<clus scale="   58.703">  1  9  2 -1</clus>
<clus scale="   90.283">  5  6 -1 -1</clus>
<clus scale="   60.525">  5 10 -1 -1</clus>
<clus scale="   91.098">  7  8 -1 -1</clus>
<clus scale="  105.236">  2  7  1 -1</clus>
<clus scale="   58.703">  1  5  2 -1</clus>
</clustering>
</event>
<event>
10    2  0.4951045E-006  0.2082494E+03  0.7546771E-02  0.1158001E+00
         -3   -1    0    0    0  501 -0.00000000000E+00  0.00000000000E+00  0.39260382391E+03  0.39260382391E+03  0.00000000000E+00 0.  1.
         21   -1    0    0  503  502  0.00000000000E+00 -0.00000000000E+00 -0.26278711836E+03  0.26278711836E+03  0.00000000000E+00 0. -1.
         23    2    1    2    0    0 -0.18832849591E+03  0.67745899053E+02  0.45422873009E+02  0.22231546355E+03  0.85462264956E+02 0.  0.
         23    2    1    2    0    0  0.10031897240E+03 -0.66583545189E+02  0.15851220323E+03  0.21882502111E+03  0.90890079639E+02 0.  0.
        -13    1    3    3    0    0 -0.11038677285E+03 -0.55557782419E+01  0.19650518803E+02  0.11225973981E+03  0.00000000000E+00 0. -1.
         13    1    3    3    0    0 -0.77941723062E+02  0.73301677295E+02  0.25772354206E+02  0.11005572375E+03  0.00000000000E+00 0.  1.
        -13    1    4    4    0    0  0.54478938304E+02 -0.82825142888E+02  0.84485201245E+02  0.13025247883E+03  0.00000000000E+00 0. -1.
         13    1    4    4    0    0  0.45840034094E+02  0.16241597700E+02  0.74027001990E+02  0.88572542276E+02  0.00000000000E+00 0.  1.
         21    1    1    2  503  501  0.12692324764E+03 -0.91083002329E+01 -0.10416635936E+03  0.16444787122E+03  0.00000000000E+00 0. -1.
         -3    1    1    2    0  502 -0.38913724124E+02  0.79459463685E+01  0.30047988669E+02  0.49802586398E+02  0.00000000000E+00 0.  1.
<scales pt_clust_5="13000.00000" pt_clust_6="13000.00000" pt_clust_7="13000.00000" pt_clust_8="13000.00000" pt_clust_9="127.24964" pt_clust_10="13000.00000"></scales>
<clustering>
<clus scale="   85.462">  5  6 -1 -1</clus>
<clus scale="   90.890">  7  8 -1 -1</clus>
<clus scale="   39.717">  7 10 -1 -1</clus>
<clus scale="  127.250">  2  9  1 -1</clus>
<clus scale="  145.859">  1  5  2 -1</clus>
<clus scale="  127.250">  2  5  1 -1</clus>
</clustering>
</event>
<event>
10    2  0.4951045E-006  0.2370069E+03  0.7546771E-02  0.1128361E+00
          2   -1    0    0  502    0 -0.00000000000E+00  0.00000000000E+00  0.98836541360E+03  0.98836541360E+03  0.00000000000E+00 0. -1.
         21   -1    0    0  503  502  0.00000000000E+00 -0.00000000000E+00 -0.34513809332E+03  0.34513809332E+03  0.00000000000E+00 0. -1.
         23    2    1    2    0    0 -0.20202979614E+03  0.21328389224E+02  0.65959263912E+03  0.69682828409E+03  0.96105510819E+02 0.  0.
         23    2    1    2    0    0  0.87016698048E+02 -0.47854551225E+02  0.26748815503E+03  0.30038411523E+03  0.93908145495E+02 0.  0.
        -11    1    3    3    0    0 -0.72774872787E+02 -0.28282224361E+02  0.33433429653E+03  0.34332999892E+03  0.00000000000E+00 0.  1.
         11    1    3    3    0    0 -0.12925492335E+03  0.49610613585E+02  0.32525834259E+03  0.35349828517E+03  0.00000000000E+00 0. -1.
        -13    1    4    4    0    0  0.30656848464E+02  0.25145312668E+02  0.12053266297E+03  0.12688676822E+03  0.00000000000E+00 0. -1.
         13    1    4    4    0    0  0.56359849584E+02 -0.72999863893E+02  0.14695549206E+03  0.17349734702E+03  0.00000000000E+00 0.  1.
         21    1    1    2  503  501  0.85375612500E+02  0.49233913218E+02 -0.28220390111E+03  0.29891807444E+03  0.00000000000E+00 0. -1.
          2    1    1    2  501    0  0.29637485591E+02 -0.22707751218E+02 -0.16495727577E+01  0.37373033163E+02  0.00000000000E+00 0. -1.
<scales pt_clust_5="13000.00000" pt_clust_6="13000.00000" pt_clust_7="13000.00000" pt_clust_8="13000.00000" pt_clust_9="98.55442" pt_clust_10="13000.00000"></scales>
<clustering>
<clus scale="   93.908">  7  8 -1 -1</clus>
<clus scale="   37.337">  7 10 -1 -1</clus>
<clus scale="   96.106">  5  6 -1 -1</clus>
<clus scale="   98.554">  2  9  1 -1</clus>
<clus scale="  201.460">  1  5  2 -1</clus>
<clus scale="   98.554">  2  5  1 -1</clus>
</clustering>
</event>
<event>
10    2  0.4951045E-006  0.1378214E+03  0.7546771E-02  0.1234473E+00
          1   -1    0    0  502    0 -0.00000000000E+00  0.00000000000E+00  0.46016915881E+03  0.46016915881E+03  0.00000000000E+00 0. -1.
         21   -1    0    0  503  502  0.00000000000E+00 -0.00000000000E+00 -0.49611876663E+02  0.49611876663E+02  0.00000000000E+00 0.  1.
         23    2    1    2    0    0  0.16195481286E+02  0.11524570905E+02  0.19535106969E+03  0.21658708319E+03  0.91393735162E+02 0.  0.
         23    2    1    2    0    0 -0.14537932748E+01 -0.29264373635E+02  0.17384501741E+03  0.19858675738E+03  0.91411668020E+02 0.  0.
        -13    1    3    3    0    0 -0.10183252853E+02 -0.36235487692E+02  0.62354602879E+02  0.72834097147E+02  0.00000000000E+00 0.  1.
         13    1    3    3    0    0  0.26378734139E+02  0.47760058598E+02  0.13299646682E+03  0.14375298605E+03  0.00000000000E+00 0. -1.
        -13    1    4    4    0    0 -0.37230849314E+02 -0.36000659597E+02  0.13841453997E+03  0.14778622570E+03  0.00000000000E+00 0. -1.
         13    1    4    4    0    0  0.35777056039E+02  0.67362859616E+01  0.35430477437E+02  0.50800531679E+02  0.00000000000E+00 0.  1.
         21    1    1    2  503  501  0.17413272614E+02 -0.10396979091E+02 -0.14023061662E+02  0.24656956336E+02  0.00000000000E+00 0.  1.
          1    1    1    2  501    0 -0.32154960625E+02  0.28136781821E+02  0.55384256704E+02  0.69950238560E+02  0.00000000000E+00 0. -1.
<scales pt_clust_5="13000.00000" pt_clust_6="13000.00000" pt_clust_7="13000.00000" pt_clust_8="13000.00000" pt_clust_9="20.28101" pt_clust_10="13000.00000"></scales>
<clustering>
<clus scale="   20.281">  2  9  1 -1</clus>
<clus scale="   91.394">  5  6 -1 -1</clus>
<clus scale="   91.412">  7  8 -1 -1</clus>
<clus scale="   37.937">  7 10 -1 -1</clus>
<clus scale="   94.405">  1  5  2 -1</clus>
<clus scale="   20.281">  2  5  1 -1</clus>
</clustering>
</event>
<event>
10    2  0.4951045E-006  0.2514258E+03  0.7546771E-02  0.1148630E+00
         21   -1    0    0  501  502  0.00000000000E+00  0.00000000000E+00  0.97111443128E+03  0.97111443128E+03  0.00000000000E+00 0. -1.
          1   -1    0    0  503    0 -0.00000000000E+00 -0.00000000000E+00 -0.64185070755E+02  0.64185070755E+02  0.00000000000E+00 0. -1.
         23    2    1    2    0    0  0.49538132582E+02  0.43884206319E+01  0.11874736340E+03  0.15742468915E+03  0.90599733018E+02 0.  0.
         23    2    1    2    0    0 -0.26013285051E+01 -0.32458354778E+02  0.17234897300E+03  0.19811291115E+03  0.92109963460E+02 0.  0.
        -13    1    3    3    0    0 -0.22160752859E+02 -0.97058833955E+01  0.56399065542E+02  0.61369029109E+02  0.00000000000E+00 0.  1.
         13    1    3    3    0    0  0.71698885441E+02  0.14094304027E+02  0.62348297861E+02  0.96055660040E+02  0.00000000000E+00 0. -1.
        -13    1    4    4    0    0 -0.24891732894E+02 -0.35671519508E+01  0.35268977938E+01  0.25392163113E+02  0.00000000000E+00 0.  1.
         13    1    4    4    0    0  0.22290404389E+02 -0.28891202827E+02  0.16882207520E+03  0.17272074804E+03  0.00000000000E+00 0. -1.
         21    1    1    2  503  502  0.81788332447E+01 -0.11988999867E+03  0.35581410108E+03  0.37555849028E+03  0.00000000000E+00 0. -1.
          1    1    1    2  501    0 -0.55115637322E+02  0.14795993282E+03  0.26001892305E+03  0.30420341145E+03  0.00000000000E+00 0. -1.
<scales pt_clust_5="13000.00000" pt_clust_6="13000.00000" pt_clust_7="13000.00000" pt_clust_8="13000.00000" pt_clust_9="120.44543" pt_clust_10="13000.00000"></scales>
<clustering>
<clus scale="   90.600">  5  6 -1 -1</clus>
<clus scale="   92.110">  7  8 -1 -1</clus>
<clus scale="  103.352">  2  5  1 -1</clus>
<clus scale="  120.445">  1  9  2 -1</clus>
<clus scale="   88.345">  7 10 -1 -1</clus>
<clus scale="  120.445">  1  5  2 -1</clus>
</clustering>
</event>
<event>
10    2  0.4951045E-006  0.2464456E+03  0.7546771E-02  0.1124945E+00
         -1   -1    0    0    0  501 -0.00000000000E+00  0.00000000000E+00  0.60182428936E+03  0.60182428936E+03  0.00000000000E+00 0.  1.
         21   -1    0    0  501  502  0.00000000000E+00 -0.00000000000E+00 -0.19374596193E+03  0.19374596193E+03  0.00000000000E+00 0. -1.
         23    2    1    2    0    0  0.21174991197E+03 -0.52577721286E+02  0.65978403529E+01  0.23743367164E+03  0.93427913050E+02 0.  0.
         23    2    1    2    0    0 -0.59949018760E+02  0.50701140148E+02  0.32531165356E+03  0.34680604875E+03  0.91006994499E+02 0.  0.
        -11    1    3    3    0    0  0.40852776889E+02  0.74371448749E+01  0.34729752174E+02  0.54133318664E+02  0.00000000000E+00 0.  1.
         11    1    3    3    0    0  0.17089713508E+03 -0.60014866161E+02 -0.28131911821E+02  0.18330035297E+03  0.00000000000E+00 0. -1.
        -13    1    4    4    0    0 -0.78627568067E+02  0.15609261781E+02  0.22834055600E+03  0.24200279549E+03  0.00000000000E+00 0.  1.
         13    1    4    4    0    0  0.18678549306E+02  0.35091878366E+02  0.96971097560E+02  0.10480325326E+03  0.00000000000E+00 0. -1.
         21    1    1    2  503  502 -0.55201058597E+02  0.26492320408E+02 -0.27842076214E+02  0.67262033263E+02  0.00000000000E+00 0.  1.
         -1    1    1    2    0  503 -0.96599834610E+02 -0.24615739270E+02  0.10401090974E+03  0.14406849763E+03  0.00000000000E+00 0.  1.
<scales pt_clust_5="13000.00000" pt_clust_6="13000.00000" pt_clust_7="13000.00000" pt_clust_8="13000.00000" pt_clust_9="61.22908" pt_clust_10="13000.00000"></scales>
<clustering>
<clus scale="   61.229">  2  9  1 -1</clus>
<clus scale="   91.007">  7  8 -1 -1</clus>
<clus scale="   93.428">  5  6 -1 -1</clus>
<clus scale="  106.256">  7 10 -1 -1</clus>
<clus scale="  194.967">  1  5  2 -1</clus>
<clus scale="   61.229">  2  5  1 -1</clus>
</clustering>
</event>
<event>
10    2  0.4951045E-006  0.2561248E+03  0.7546771E-02  0.1147886E+00
         -1   -1    0    0    0  501 -0.00000000000E+00  0.00000000000E+00  0.17634637634E+03  0.17634637634E+03  0.00000000000E+00 0.  1.
         21   -1    0    0  501  502  0.00000000000E+00 -0.00000000000E+00 -0.37600493963E+03  0.37600493963E+03  0.00000000000E+00 0.  1.
         23    2    1    2    0    0  0.36263028236E+02 -0.42646365305E+02 -0.86694136402E+02  0.13685298962E+03  0.89884079745E+02 0.  0.
         23    2    1    2    0    0 -0.38742085417E+02 -0.35299860136E+02  0.12452750943E+03  0.16240376161E+03  0.90115769276E+02 0.  0.
        -13    1    3    3    0    0 -0.99807403970E+01  0.23179877470E+02 -0.24443837158E+02  0.35134357449E+02  0.00000000000E+00 0. -1.
         13    1    3    3    0    0  0.46243768633E+02 -0.65826242775E+02 -0.62250299245E+02  0.10171863217E+03  0.00000000000E+00 0.  1.
        -13    1    4    4    0    0 -0.59626159740E+02 -0.23796286748E+02  0.12271313226E+03  0.13849207565E+03  0.00000000000E+00 0.  1.
         13    1    4    4    0    0  0.20884074323E+02 -0.11503573388E+02  0.18143771702E+01  0.23911685962E+02  0.00000000000E+00 0. -1.
         21    1    1    2  503  502 -0.54766005344E+01  0.31793963910E+02 -0.15420118213E+03  0.15754000718E+03  0.00000000000E+00 0.  1.
         -1    1    1    2    0  503  0.79556577150E+01  0.46152261532E+02 -0.83290754193E+02  0.95554557548E+02  0.00000000000E+00 0.  1.
<scales pt_clust_5="13000.00000" pt_clust_6="13000.00000" pt_clust_7="13000.00000" pt_clust_8="13000.00000" pt_clust_9="32.26220" pt_clust_10="13000.00000"></scales>
<clustering>
<clus scale="   32.262">  2  9  1 -1</clus>
<clus scale="   89.884">  5  6 -1 -1</clus>
<clus scale="   90.116">  7  8 -1 -1</clus>
<clus scale="   59.345">  7 10 -1 -1</clus>
<clus scale="   99.512">  1  5  2 -1</clus>
<clus scale="   32.262">  2  5  1 -1</clus>
</clustering>
</event>
<event>
10    2  0.4951045E-006  0.2566818E+03  0.7546771E-02  0.1133041E+00
          1   -1    0    0  502    0 -0.00000000000E+00  0.00000000000E+00  0.83214587853E+03  0.83214587853E+03  0.00000000000E+00 0. -1.
         21   -1    0    0  503  502  0.00000000000E+00 -0.00000000000E+00 -0.21148425447E+03  0.21148425447E+03  0.00000000000E+00 0. -1.
         23    2    1    2    0    0 -0.12345131386E+03 -0.48194760769E+02  0.12278339808E+03  0.19930770682E+03  0.84171475541E+02 0.  0.
         23    2    1    2    0    0  0.16372681150E+03 -0.16168083841E+02  0.50682073613E+03  0.54053700448E+03  0.90802637106E+02 0.  0.
        -11    1    4    4    0    0  0.96808997795E+02 -0.50571394060E+02  0.34910499527E+03  0.36579194315E+03  0.00000000000E+00 0. -1.
         11    1    4    4    0    0  0.66917813706E+02  0.34403310220E+02  0.15771574086E+03  0.17474506133E+03  0.00000000000E+00 0.  1.
        -13    1    3    3    0    0 -0.21205826717E+02  0.23148227577E+02  0.16429530119E+02  0.35432428461E+02  0.00000000000E+00 0.  1.
         13    1    3    3    0    0 -0.10224548714E+03 -0.71342988346E+02  0.10635386796E+03  0.16387527836E+03  0.00000000000E+00 0. -1.
         21    1    1    2  503  501  0.19495537749E+02  0.42477285818E+02 -0.14566120300E+03  0.15297575580E+03  0.00000000000E+00 0. -1.
          1    1    1    2  501    0 -0.59771035394E+02  0.21885558792E+02  0.13671869285E+03  0.15080966591E+03  0.00000000000E+00 0. -1.
<scales pt_clust_5="13000.00000" pt_clust_6="13000.00000" pt_clust_7="13000.00000" pt_clust_8="13000.00000" pt_clust_9="46.73752" pt_clust_10="13000.00000"></scales>
<clustering>
<clus scale="   46.738">  2  9  1 -1</clus>
<clus scale="   84.171">  7  8 -1 -1</clus>
<clus scale="   90.803">  5  6 -1 -1</clus>
<clus scale="   63.452">  5 10 -1 -1</clus>
<clus scale="  141.395">  1  7  2 -1</clus>
<clus scale="   46.738">  2  5  1 -1</clus>
</clustering>
</event>
<event>
10    2  0.4951045E-006  0.1948385E+03  0.7546771E-02  0.1175000E+00
         21   -1    0    0  503  502  0.00000000000E+00  0.00000000000E+00  0.54437851087E+02  0.54437851087E+02  0.00000000000E+00 0.  1.
          2   -1    0    0  502    0 -0.00000000000E+00 -0.00000000000E+00 -0.69706124070E+03  0.69706124070E+03  0.00000000000E+00 0. -1.
         23    2    1    2    0    0 -0.71493132387E+02 -0.35234006866E+02 -0.37709932136E+03  0.39611565547E+03  0.91383866866E+02 0.  0.
         23    2    1    2    0    0 -0.19429578147E+02 -0.71990835391E+01 -0.66035471162E+02  0.10711879861E+03  0.81758291643E+02 0.  0.
        -11    1    4    4    0    0 -0.29991382055E+01  0.33136917478E+02 -0.74138468113E+01  0.34088344847E+02  0.00000000000E+00 0.  1.
         11    1    4    4    0    0 -0.16430439941E+02 -0.40336001017E+02 -0.58621624351E+02  0.73030453759E+02  0.00000000000E+00 0. -1.
        -13    1    3    3    0    0 -0.80536726331E+02 -0.56302483993E+02 -0.30051987150E+03  0.31617768289E+03  0.00000000000E+00 0. -1.
         13    1    3    3    0    0  0.90435939441E+01  0.21068477127E+02 -0.76579449864E+02  0.79937972587E+02  0.00000000000E+00 0.  1.
         21    1    1    2  503  501 -0.61272273308E+01  0.27401175085E+02 -0.25447077604E+01  0.28192957425E+02  0.00000000000E+00 0.  1.
          2    1    1    2  501    0  0.97049937864E+02  0.15031915320E+02 -0.19694388933E+03  0.22007168028E+03  0.00000000000E+00 0. -1.
<scales pt_clust_5="13000.00000" pt_clust_6="13000.00000" pt_clust_7="13000.00000" pt_clust_8="13000.00000" pt_clust_9="28.07788" pt_clust_10="13000.00000"></scales>
<clustering>
<clus scale="   28.078">  1  9  2 -1</clus>
<clus scale="   81.758">  5  6 -1 -1</clus>
<clus scale="   91.384">  7  8 -1 -1</clus>
<clus scale="   98.000">  5 10 -1 -1</clus>
<clus scale="  120.432">  2  7  1 -1</clus>
<clus scale="   28.078">  1  5  2 -1</clus>
</clustering>
</event>
<event>
10    2  0.4951045E-006  0.1873530E+03  0.7546771E-02  0.1191097E+00
          2   -1    0    0  503    0 -0.00000000000E+00  0.00000000000E+00  0.58331428705E+03  0.58331428705E+03  0.00000000000E+00 0. -1.
         21   -1    0    0  501  502  0.00000000000E+00 -0.00000000000E+00 -0.49830918453E+02  0.49830918453E+02  0.00000000000E+00 0.  1.
         23    2    1    2    0    0  0.39632679272E+01 -0.14674678626E+02  0.19624427619E+03  0.21800382401E+03  0.93716581557E+02 0.  0.
         23    2    1    2    0    0 -0.13756948339E+02 -0.28833227799E+02  0.24415878084E+03  0.26274203783E+03  0.91647474230E+02 0.  0.
        -11    1    3    3    0    0  0.71199454441E+01 -0.46933281064E+02  0.53054318093E+02  0.71191201443E+02  0.00000000000E+00 0.  1.
         11    1    3    3    0    0 -0.31566775169E+01  0.32258602438E+02  0.14318995810E+03  0.14681262257E+03  0.00000000000E+00 0. -1.
        -13    1    4    4    0    0  0.18170678023E+02  0.22538911005E+02  0.13378424416E+03  0.13688097032E+03  0.00000000000E+00 0. -1.
         13    1    4    4    0    0 -0.31927626362E+02 -0.51372138803E+02  0.11037453668E+03  0.12586106752E+03  0.00000000000E+00 0.  1.
         21    1    1    2  503  502 -0.45858116793E+02  0.20807283187E+02  0.73674971359E+02  0.89240749180E+02  0.00000000000E+00 0. -1.
          2    1    1    2  501    0  0.55651797205E+02  0.22700623238E+02  0.19405340202E+02  0.63158594474E+02  0.00000000000E+00 0. -1.
<scales pt_clust_5="13000.00000" pt_clust_6="13000.00000" pt_clust_7="13000.00000" pt_clust_8="13000.00000" pt_clust_9="50.35782" pt_clust_10="13000.00000"></scales>
<clustering>
<clus scale="   50.358">  2  9  1 -1</clus>
<clus scale="   91.647">  7  8 -1 -1</clus>
<clus scale="   46.204">  7 10 -1 -1</clus>
<clus scale="   93.717">  5  6 -1 -1</clus>
<clus scale="   94.507">  1  5  2 -1</clus>
<clus scale="   50.358">  2  5  1 -1</clus>
</clustering>
</event>
<event>
10    2  0.4951045E-006  0.4015172E+03  0.7546771E-02  0.1073606E+00
         21   -1    0    0  503  502  0.00000000000E+00  0.00000000000E+00  0.47912326940E+03  0.47912326940E+03  0.00000000000E+00 0.  1.
         -2   -1    0    0    0  501 -0.00000000000E+00 -0.00000000000E+00 -0.33916643746E+03  0.33916643746E+03  0.00000000000E+00 0.  1.
         23    2    1    2    0    0 -0.13204380590E+03 -0.77749377242E+02  0.55267513305E+02  0.18659919103E+03  0.91017733053E+02 0.  0.
         23    2    1    2    0    0  0.16530415126E+03 -0.43473097937E+02 -0.21109714072E+03  0.28683319178E+03  0.92173230490E+02 0.  0.
        -11    1    4    4    0    0  0.31903651316E+02 -0.51050876346E+02 -0.74007995436E+02  0.95400305720E+02  0.00000000000E+00 0.  1.
         11    1    4    4    0    0  0.13340049995E+03  0.75777784086E+01 -0.13708914528E+03  0.19143288606E+03  0.00000000000E+00 0. -1.
        -13    1    3    3    0    0 -0.33963192266E+02 -0.43176780644E+01  0.54156262470E+02  0.64070598073E+02  0.00000000000E+00 0. -1.
         13    1    3    3    0    0 -0.98080613630E+02 -0.73431699177E+02  0.11112508348E+01  0.12252859296E+03  0.00000000000E+00 0.  1.
         21    1    1    2  503  501  0.52154436080E+01  0.28057316754E+02  0.21163389785E+03  0.21354933995E+03  0.00000000000E+00 0.  1.
         -2    1    1    2    0  502 -0.38475788973E+02  0.93165158424E+02  0.84152561492E+02  0.13130798409E+03  0.00000000000E+00 0.  1.
<scales pt_clust_5="13000.00000" pt_clust_6="13000.00000" pt_clust_7="13000.00000" pt_clust_8="13000.00000" pt_clust_9="28.53794" pt_clust_10="13000.00000"></scales>
<clustering>
<clus scale="   28.538">  1  9  2 -1</clus>
<clus scale="   91.018">  7  8 -1 -1</clus>
<clus scale="   92.173">  5  6 -1 -1</clus>
<clus scale="  110.653">  5 10 -1 -1</clus>
<clus scale="  171.254">  2  7  1 -1</clus>
<clus scale="   28.538">  1  5  2 -1</clus>
</clustering>
</event>
<event>
10    2  0.4951045E-006  0.6499713E+03  0.7546771E-02  0.1043924E+00
          1   -1    0    0  503    0 -0.00000000000E+00  0.00000000000E+00  0.61981862739E+03  0.61981862739E+03  0.00000000000E+00 0. -1.
         21   -1    0    0  501  502  0.00000000000E+00 -0.00000000000E+00 -0.37742726836E+03  0.37742726836E+03  0.00000000000E+00 0. -1.
         23    2    1    2    0    0 -0.33162232087E+01  0.31377275753E+01  0.24677217882E+03  0.26366200871E+03  0.92737823623E+02 0.  0.
         23    2    1    2    0    0  0.10190826521E+03  0.10635835737E+03  0.29129048069E+03  0.33631300354E+03  0.80987020604E+02 0.  0.
        -11    1    4    4    0    0  0.50190764303E+02  0.43427023366E+01  0.12214758019E+03  0.13212873734E+03  0.00000000000E+00 0.  1.
         11    1    4    4    0    0  0.51717500903E+02  0.10201565504E+03  0.16914290050E+03  0.20418426619E+03  0.00000000000E+00 0. -1.
        -13    1    3    3    0    0  0.35440797333E+02 -0.26333715184E+02  0.11900594788E+03  0.12693277867E+03  0.00000000000E+00 0. -1.
         13    1    3    3    0    0 -0.38757020542E+02  0.29471442759E+02  0.12776623094E+03  0.13672923004E+03  0.00000000000E+00 0.  1.
         21    1    1    2  503  502  0.50696722873E+02  0.30905605601E+02 -0.52481384650E+02  0.79243989693E+02  0.00000000000E+00 0. -1.
          1    1    1    2  501    0 -0.14928876487E+03 -0.14040169055E+03 -0.24318991582E+03  0.31802689380E+03  0.00000000000E+00 0. -1.
<scales pt_clust_5="13000.00000" pt_clust_6="13000.00000" pt_clust_7="13000.00000" pt_clust_8="13000.00000" pt_clust_9="59.37436" pt_clust_10="13000.00000"></scales>
<clustering>
<clus scale="   59.374">  2  9  1 -1</clus>
<clus scale="   80.987">  5  6 -1 -1</clus>
<clus scale="   92.738">  7  8 -1 -1</clus>
<clus scale="   92.843">  1  7  2 -1</clus>
<clus scale="  152.848">  5 10 -1 -1</clus>
<clus scale="   59.374">  2  5  1 -1</clus>
</clustering>
</event>
<event>
10    2  0.4951045E-006  0.1657858E+03  0.7546771E-02  0.1202454E+00
          1   -1    0    0  502    0 -0.00000000000E+00  0.00000000000E+00  0.36494505138E+03  0.36494505138E+03  0.00000000000E+00 0. -1.
         21   -1    0    0  503  502  0.00000000000E+00 -0.00000000000E+00 -0.12599150755E+03  0.12599150755E+03  0.00000000000E+00 0.  1.
         23    2    1    2    0    0  0.39648986340E+02 -0.35465011964E+02 -0.19139371542E+02  0.10964538991E+03  0.93946723173E+02 0.  0.
         23    2    1    2    0    0 -0.32050909713E+02  0.26388026188E+02  0.29210927190E+03  0.30792962831E+03  0.88143295392E+02 0.  0.
        -11    1    4    4    0    0 -0.61385871606E+02  0.28795690450E+02  0.21237042003E+03  0.22293185579E+03  0.00000000000E+00 0. -1.
         11    1    4    4    0    0  0.29334961893E+02 -0.24076642621E+01  0.79738851863E+02  0.84997772517E+02  0.00000000000E+00 0.  1.
        -11    1    3    3    0    0  0.68534297877E+02 -0.10679461169E+02 -0.70936934548E+01  0.69723176657E+02  0.00000000000E+00 0.  1.
         11    1    3    3    0    0 -0.28885311536E+02 -0.24785550795E+02 -0.12045678087E+02  0.39922213257E+02  0.00000000000E+00 0. -1.
         21    1    1    2  503  501 -0.25188190221E+02 -0.13406975752E+02 -0.34549814484E+02  0.44809391943E+02  0.00000000000E+00 0.  1.
          1    1    1    2  501    0  0.17590113594E+02  0.22483961527E+02  0.53345796279E+00  0.28552148774E+02  0.00000000000E+00 0. -1.
<scales pt_clust_5="13000.00000" pt_clust_6="13000.00000" pt_clust_7="13000.00000" pt_clust_8="13000.00000" pt_clust_9="28.53405" pt_clust_10="13000.00000"></scales>
<clustering>
<clus scale="   28.534">  2  9  1 -1</clus>
<clus scale="   88.143">  5  6 -1 -1</clus>
<clus scale="   24.387">  5 10 -1 -1</clus>
<clus scale="   93.947">  7  8 -1 -1</clus>
<clus scale="  106.434">  1  7  2 -1</clus>
<clus scale="   28.534">  2  5  1 -1</clus>
</clustering>
</event>
<event>
10    2  0.4951045E-006  0.3006655E+03  0.7546771E-02  0.1107829E+00
          2   -1    0    0  503    0 -0.00000000000E+00  0.00000000000E+00  0.42587947552E+03  0.42587947552E+03  0.00000000000E+00 0. -1.
         21   -1    0    0  501  502  0.00000000000E+00 -0.00000000000E+00 -0.14122544613E+03  0.14122544613E+03  0.00000000000E+00 0. -1.
         23    2    1    2    0    0  0.13385236912E+03 -0.17806478514E+02  0.78964372749E+02  0.18124407002E+03  0.91545143822E+02 0.  0.
         23    2    1    2    0    0  0.24396094794E+01  0.29690807310E+02  0.19319729435E+03  0.21593056771E+03  0.91724150559E+02 0.  0.
        -13    1    3    3    0    0  0.89217971513E+02 -0.54971203874E+02  0.55699419464E+02  0.11867647208E+03  0.00000000000E+00 0. -1.
         13    1    3    3    0    0  0.44634397610E+02  0.37164725360E+02  0.23264953285E+02  0.62567597944E+02  0.00000000000E+00 0.  1.
        -13    1    4    4    0    0 -0.43192911742E+02  0.19749422179E+02  0.12052642053E+03  0.12954646019E+03  0.00000000000E+00 0. -1.
         13    1    4    4    0    0  0.45632521222E+02  0.99413851309E+01  0.72670873819E+02  0.86384107526E+02  0.00000000000E+00 0.  1.
         21    1    1    2  503  502  0.84892865420E+01  0.19491026012E+02  0.31788887042E+01  0.21495892966E+02  0.00000000000E+00 0.  1.
          2    1    1    2  501    0 -0.14478126514E+03 -0.31375354809E+02  0.93134735850E+01  0.14843439095E+03  0.00000000000E+00 0. -1.
<scales pt_clust_5="13000.00000" pt_clust_6="13000.00000" pt_clust_7="13000.00000" pt_clust_8="13000.00000" pt_clust_9="21.25954" pt_clust_10="13000.00000"></scales>
<clustering>
<clus scale="   21.260">  2  9  1 -1</clus>
<clus scale="   91.545">  5  6 -1 -1</clus>
<clus scale="   91.724">  7  8 -1 -1</clus>
<clus scale="  141.889">  7 10 -1 -1</clus>
<clus scale="  165.206">  1  5  2 -1</clus>
<clus scale="   21.260">  2  5  1 -1</clus>
</clustering>
</event>
<event>
10    2  0.4951045E-006  0.2732444E+03  0.7546771E-02  0.1141278E+00
         -1   -1    0    0    0  501 -0.00000000000E+00  0.00000000000E+00  0.56013660048E+03  0.56013660048E+03  0.00000000000E+00 0.  1.
         21   -1    0    0  501  502  0.00000000000E+00 -0.00000000000E+00 -0.12308175211E+03  0.12308175211E+03  0.00000000000E+00 0. -1.
         23    2    1    2    0    0 -0.79078401277E+01 -0.28700419341E+02  0.16489566047E+03  0.19080039555E+03  0.91257679636E+02 0.  0.
         23    2    1    2    0    0 -0.66279840119E+02  0.51671797872E+02  0.62145817663E+02  0.13935267096E+03  0.92163291770E+02 0.  0.
        -11    1    3    3    0    0  0.41217702369E+02 -0.99180289609E+01  0.87454751822E+02  0.97188476186E+02  0.00000000000E+00 0.  1.
         11    1    3    3    0    0 -0.49125542496E+02 -0.18782390380E+02  0.77440908648E+02  0.93611919360E+02  0.00000000000E+00 0. -1.
        -13    1    4    4    0    0  0.41839695660E+01  0.54054752204E+02  0.26261269546E+02  0.60241813679E+02  0.00000000000E+00 0. -1.
         13    1    4    4    0    0 -0.70463809685E+02 -0.23829543314E+01  0.35884548117E+02  0.79110857284E+02  0.00000000000E+00 0.  1.
         21    1    1    2  503  502  0.89380629055E+02  0.10640246733E+03  0.52217803503E+02  0.14844891683E+03  0.00000000000E+00 0. -1.
         -1    1    1    2    0  503 -0.15192948808E+02 -0.12937384586E+03  0.15779556673E+03  0.20461636925E+03  0.00000000000E+00 0.  1.
<scales pt_clust_5="13000.00000" pt_clust_6="13000.00000" pt_clust_7="13000.00000" pt_clust_8="13000.00000" pt_clust_9="131.89941" pt_clust_10="13000.00000"></scales>
<clustering>
<clus scale="   91.258">  5  6 -1 -1</clus>
<clus scale="   92.163">  7  8 -1 -1</clus>
<clus scale="   95.991">  1  5  2 -1</clus>
<clus scale="  131.899">  2  9  1 -1</clus>
<clus scale="  101.754">  7 10 -1 -1</clus>
<clus scale="  131.899">  2  5  1 -1</clus>
</clustering>
</event>
<event>
10    2  0.4951045E-006  0.4459543E+03  0.7546771E-02  0.1051159E+00
          3   -1    0    0  502    0 -0.00000000000E+00  0.00000000000E+00  0.63152878055E+03  0.63152878055E+03  0.00000000000E+00 0. -1.
         21   -1    0    0  503  502  0.00000000000E+00 -0.00000000000E+00 -0.73631681690E+03  0.73631681690E+03  0.00000000000E+00 0. -1.
         23    2    1    2    0    0  0.22363209114E+03  0.49973971326E+02  0.36216760076E+03  0.43671999525E+03  0.83965905054E+02 0.  0.
         23    2    1    2    0    0  0.29844028138E+02  0.39083872224E+02 -0.12754820224E+03  0.16311577666E+03  0.88994368458E+02 0.  0.
        -11    1    4    4    0    0 -0.21422444984E+02  0.35017987671E+02 -0.24133146865E+02  0.47619212375E+02  0.00000000000E+00 0.  1.
         11    1    4    4    0    0  0.51266473122E+02  0.40658845535E+01 -0.10341505537E+03  0.11549656428E+03  0.00000000000E+00 0. -1.
        -13    1    3    3    0    0  0.92112482409E+02  0.48682624653E+02  0.10526559594E+03  0.14810655977E+03  0.00000000000E+00 0. -1.
         13    1    3    3    0    0  0.13151960873E+03  0.12913466726E+01  0.25690200482E+03  0.28861343548E+03  0.00000000000E+00 0.  1.
         21    1    1    2  503  501 -0.13990745908E+03  0.17258178461E+03 -0.41693756431E+03  0.47243571205E+03  0.00000000000E+00 0. -1.
          3    1    1    2  501    0 -0.11356866020E+03 -0.26163962816E+03  0.77530129436E+02  0.29557411350E+03  0.00000000000E+00 0. -1.
<scales pt_clust_5="13000.00000" pt_clust_6="13000.00000" pt_clust_7="13000.00000" pt_clust_8="13000.00000" pt_clust_9="222.16789" pt_clust_10="13000.00000"></scales>
<clustering>
<clus scale="   83.966">  7  8 -1 -1</clus>
<clus scale="   88.994">  5  6 -1 -1</clus>
<clus scale="  222.168">  2  9  1 -1</clus>
<clus scale="  233.606">  1  7  2 -1</clus>
<clus scale="  152.229">  5 10 -1 -1</clus>
<clus scale="  222.168">  2  5  1 -1</clus>
</clustering>
</event>
<event>
10    2  0.4951045E-006  0.2067719E+03  0.7546771E-02  0.1147039E+00
          2   -1    0    0  503    0 -0.00000000000E+00  0.00000000000E+00  0.21842988127E+03  0.21842988127E+03  0.00000000000E+00 0. -1.
         21   -1    0    0  501  502  0.00000000000E+00 -0.00000000000E+00 -0.23665123306E+03  0.23665123306E+03  0.00000000000E+00 0. -1.
         23    2    1    2    0    0  0.11440787098E+03 -0.68948270889E+02  0.12593908183E+02  0.18224805208E+03  0.12333985959E+03 0.  0.
         23    2    1    2    0    0 -0.84472647372E+02  0.11397204774E+03 -0.89835390391E+01  0.16962575354E+03  0.92557746673E+02 0.  0.
        -13    1    4    4    0    0 -0.44851405024E+02  0.11081249886E+03 -0.31922944133E+02  0.12373412140E+03  0.00000000000E+00 0. -1.
         13    1    4    4    0    0 -0.39621242347E+02  0.31595488818E+01  0.22939405094E+02  0.45891632139E+02  0.00000000000E+00 0.  1.
        -13    1    3    3    0    0  0.23485676302E+02  0.35647168333E+02  0.89171446715E+01  0.43609781823E+02  0.00000000000E+00 0.  1.
         13    1    3    3    0    0  0.90922194677E+02 -0.10459543922E+03  0.36767635115E+01  0.13863827026E+03  0.00000000000E+00 0. -1.
         21    1    1    2  503  502  0.18788255287E+02 -0.33433401591E+02 -0.34457966512E+02  0.51557175396E+02  0.00000000000E+00 0. -1.
          2    1    1    2  501    0 -0.48723478896E+02 -0.11590375262E+02  0.12626245574E+02  0.51650133317E+02  0.00000000000E+00 0. -1.
<scales pt_clust_5="13000.00000" pt_clust_6="13000.00000" pt_clust_7="13000.00000" pt_clust_8="13000.00000" pt_clust_9="38.35089" pt_clust_10="13000.00000"></scales>
<clustering>
<clus scale="   38.351">  2  9  1 -1</clus>
<clus scale="   92.558">  5  6 -1 -1</clus>
<clus scale="   49.162">  5 10 -1 -1</clus>
<clus scale="  123.340">  7  8 -1 -1</clus>
<clus scale="  192.979">  1  7  2 -1</clus>
<clus scale="   38.351">  2  5  1 -1</clus>
</clustering>
</event>
<event>
10    2  0.4951045E-006  0.2007162E+03  0.7546771E-02  0.1177243E+00
         21   -1    0    0  501  502  0.00000000000E+00  0.00000000000E+00  0.49091471011E+03  0.49091471011E+03  0.00000000000E+00 0.  1.
         -1   -1    0    0    0  501 -0.00000000000E+00 -0.00000000000E+00 -0.18485165306E+03  0.18485165306E+03  0.00000000000E+00 0.  1.
         23    2    1    2    0    0 -0.32335562038E+02  0.61858383408E+02 -0.69513713258E+02  0.13491334398E+03  0.92181374922E+02 0.  0.
         23    2    1    2    0    0 -0.27845198976E+01 -0.60102229635E+02  0.52617113518E+02  0.12058478090E+03  0.90288964951E+02 0.  0.
        -11    1    3    3    0    0 -0.39099900002E+02 -0.99431866580E+01 -0.40532129176E+02  0.57188483426E+02  0.00000000000E+00 0.  1.
         11    1    3    3    0    0  0.67643379644E+01  0.71801570066E+02 -0.28981584082E+02  0.77724860553E+02  0.00000000000E+00 0. -1.
        -13    1    4    4    0    0  0.34134346876E+02 -0.35729632813E+02  0.57800578340E+02  0.76043850205E+02  0.00000000000E+00 0. -1.
         13    1    4    4    0    0 -0.36918866774E+02 -0.24372596822E+02 -0.51834648227E+01  0.44540930696E+02  0.00000000000E+00 0.  1.
         21    1    1    2  503  502  0.59861115621E+02 -0.82682634215E+02  0.31967897017E+03  0.33558071329E+03  0.00000000000E+00 0.  1.
         -1    1    1    2    0  503 -0.24741033685E+02  0.80926480442E+02  0.32806866190E+01  0.84687524992E+02  0.00000000000E+00 0.  1.
<scales pt_clust_5="13000.00000" pt_clust_6="13000.00000" pt_clust_7="13000.00000" pt_clust_8="13000.00000" pt_clust_9="102.07728" pt_clust_10="13000.00000"></scales>
<clustering>
<clus scale="   90.289">  7  8 -1 -1</clus>
<clus scale="   84.624">  7 10 -1 -1</clus>
<clus scale="   92.181">  5  6 -1 -1</clus>
<clus scale="  102.077">  1  9  2 -1</clus>
<clus scale="  104.707">  2  5  1 -1</clus>
<clus scale="  102.077">  1  5  2 -1</clus>
</clustering>
</event>
<event>
10    2  0.4951045E-006  0.1360586E+03  0.7546771E-02  0.1235667E+00
         21   -1    0    0  503  502  0.00000000000E+00  0.00000000000E+00  0.10186254756E+03  0.10186254756E+03  0.00000000000E+00 0.  1.
         -1   -1    0    0    0  501 -0.00000000000E+00 -0.00000000000E+00 -0.23516186480E+03  0.23516186480E+03  0.00000000000E+00 0.  1.
         23    2    1    2    0    0 -0.17790137223E+02  0.16065715902E+02 -0.73085648447E+02  0.12097246683E+03  0.93371459837E+02 0.  0.
         23    2    1    2    0    0  0.14259689424E+02 -0.34793642538E+02 -0.10372342719E+03  0.14376028648E+03  0.92165797980E+02 0.  0.
        -13    1    3    3    0    0 -0.20501247682E+01  0.39273254000E+02  0.34341151889E+01  0.39476380767E+02  0.00000000000E+00 0. -1.
         13    1    3    3    0    0 -0.15740012455E+02 -0.23207538099E+02 -0.76519763636E+02  0.81496086063E+02  0.00000000000E+00 0.  1.
        -13    1    4    4    0    0  0.16913028029E+02 -0.11447503034E+02  0.13319317390E+02  0.24382371881E+02  0.00000000000E+00 0. -1.
         13    1    4    4    0    0 -0.26533386046E+01 -0.23346139505E+02 -0.11704274458E+03  0.11937791460E+03  0.00000000000E+00 0.  1.
         21    1    1    2  503  501  0.26193469815E+02  0.96431352804E+01  0.38189744952E+02  0.47302690605E+02  0.00000000000E+00 0.  1.
         -1    1    1    2    0  502 -0.22663022016E+02  0.90847913566E+01  0.53200134395E+01  0.24988968444E+02  0.00000000000E+00 0.  1.
<scales pt_clust_5="13000.00000" pt_clust_6="13000.00000" pt_clust_7="13000.00000" pt_clust_8="13000.00000" pt_clust_9="27.91215" pt_clust_10="13000.00000"></scales>
<clustering>
<clus scale="   27.912">  1  9  2 -1</clus>
<clus scale="   92.166">  7  8 -1 -1</clus>
<clus scale="   19.695">  7 10 -1 -1</clus>
<clus scale="   93.371">  5  6 -1 -1</clus>
<clus scale="   95.753">  2  5  1 -1</clus>
<clus scale="   27.912">  1  5  2 -1</clus>
</clustering>
</event>
<event>
10    2  0.4951045E-006  0.1093634E+03  0.7546771E-02  0.1271848E+00
          3   -1    0    0  503    0 -0.00000000000E+00  0.00000000000E+00  0.70958911560E+03  0.70958911560E+03  0.00000000000E+00 0. -1.
         21   -1    0    0  501  502  0.00000000000E+00 -0.00000000000E+00 -0.27289664453E+02  0.27289664453E+02  0.00000000000E+00 0.  1.
         23    2    1    2    0    0  0.25128557757E+02 -0.34814878672E+00  0.37041293934E+03  0.38171004012E+03  0.88686207897E+02 0.  0.
         23    2    1    2    0    0 -0.21489109999E+02 -0.60772033682E+01  0.21847339330E+03  0.23344853091E+03  0.79176251200E+02 0.  0.
        -11    1    3    3    0    0 -0.15484635749E+01 -0.42341408173E+02  0.16363443742E+03  0.16903083061E+03  0.00000000000E+00 0.  1.
         11    1    3    3    0    0  0.26677021332E+02  0.41993259386E+02  0.20677850192E+03  0.21267920951E+03  0.00000000000E+00 0. -1.
        -13    1    4    4    0    0  0.20747131092E+02 -0.18769817239E+02  0.35310068964E+02  0.45050532272E+02  0.00000000000E+00 0.  1.
         13    1    4    4    0    0 -0.42236241092E+02  0.12692613871E+02  0.18316332434E+03  0.18839799864E+03  0.00000000000E+00 0. -1.
         21    1    1    2  503  502 -0.27871070877E+02 -0.13202142229E+01  0.33138753260E+01  0.28098422146E+02  0.00000000000E+00 0.  1.
          3    1    1    2  501    0  0.24231623119E+02  0.77455663778E+01  0.90099243180E+02  0.93621786883E+02  0.00000000000E+00 0. -1.
<scales pt_clust_5="13000.00000" pt_clust_6="13000.00000" pt_clust_7="13000.00000" pt_clust_8="13000.00000" pt_clust_9="27.90232" pt_clust_10="13000.00000"></scales>
<clustering>
<clus scale="   27.902">  2  9  1 -1</clus>
<clus scale="   79.176">  7  8 -1 -1</clus>
<clus scale="   22.270">  7 10 -1 -1</clus>
<clus scale="   88.686">  5  6 -1 -1</clus>
<clus scale="   89.878">  1  5  2 -1</clus>
<clus scale="   27.902">  2  5  1 -1</clus>
</clustering>
</event>
<event>
10    2  0.4951045E-006  0.4988527E+03  0.7546771E-02  0.1064910E+00
         -1   -1    0    0    0  501 -0.00000000000E+00  0.00000000000E+00  0.39886848369E+03  0.39886848369E+03  0.00000000000E+00 0.  1.
         21   -1    0    0  501  502  0.00000000000E+00 -0.00000000000E+00 -0.26324406512E+03  0.26324406512E+03  0.00000000000E+00 0.  1.
         23    2    1    2    0    0 -0.45959786650E+01 -0.66241082367E+02  0.49267656069E+02  0.12369072948E+03  0.91995057545E+02 0.  0.
         23    2    1    2    0    0  0.17356533920E+03 -0.11477164482E+03  0.14911842441E+03  0.27429212634E+03  0.98500805298E+02 0.  0.
        -13    1    4    4    0    0  0.14862075007E+03 -0.11307495553E+03  0.16104039243E+03  0.24659294579E+03  0.00000000000E+00 0.  1.
         13    1    4    4    0    0  0.24944589133E+02 -0.16966892881E+01 -0.11921968017E+02  0.27699180547E+02  0.00000000000E+00 0. -1.
        -13    1    3    3    0    0 -0.20720901048E+02 -0.10152414271E+02  0.60060656910E+02  0.64340576343E+02  0.00000000000E+00 0. -1.
         13    1    3    3    0    0  0.16124922383E+02 -0.56088668096E+02 -0.10793000841E+02  0.59350153140E+02  0.00000000000E+00 0.  1.
         21    1    1    2  503  502 -0.21499715613E+02  0.25095204209E+01 -0.18332469098E+02  0.28365734388E+02  0.00000000000E+00 0.  1.
         -1    1    1    2    0  503 -0.14746964492E+03  0.17850320677E+03 -0.44429192819E+02  0.23576395860E+03  0.00000000000E+00 0.  1.
<scales pt_clust_5="13000.00000" pt_clust_6="13000.00000" pt_clust_7="13000.00000" pt_clust_8="13000.00000" pt_clust_9="21.64568" pt_clust_10="13000.00000"></scales>
<clustering>
<clus scale="   21.646">  2  9  1 -1</clus>
<clus scale="   91.995">  7  8 -1 -1</clus>
<clus scale="   98.501">  5  6 -1 -1</clus>
<clus scale="  113.413">  1  7  2 -1</clus>
<clus scale="  226.461">  5 10 -1 -1</clus>
<clus scale="   21.646">  2  5  1 -1</clus>
</clustering>
</event>
<event>
10    2  0.4951045E-006  0.2201463E+03  0.7546771E-02  0.1167947E+00
          2   -1    0    0  502    0 -0.00000000000E+00  0.00000000000E+00  0.29619633481E+03  0.29619633481E+03  0.00000000000E+00 0. -1.
         21   -1    0    0  503  502  0.00000000000E+00 -0.00000000000E+00 -0.17945356567E+03  0.17945356567E+03  0.00000000000E+00 0.  1.
         23    2    1    2    0    0  0.43055824386E+02  0.82033152017E+01  0.31261147006E+01  0.99648067453E+02  0.89436381636E+02 0.  0.
         23    2    1    2    0    0  0.36175016007E+01 -0.31993191827E+02  0.22705400867E+03  0.24615145963E+03  0.89444773937E+02 0.  0.
        -11    1    4    4    0    0  0.27048740983E+02 -0.50526074799E+02  0.96607570664E+02  0.11232782974E+03  0.00000000000E+00 0. -1.
         11    1    4    4    0    0 -0.23431239383E+02  0.18532882972E+02  0.13044643801E+03  0.13382362990E+03  0.00000000000E+00 0.  1.
        -11    1    3    3    0    0  0.47124117648E+02 -0.30124773482E+02  0.17356888477E+02  0.58561472139E+02  0.00000000000E+00 0. -1.
         11    1    3    3    0    0 -0.40682932620E+01  0.38328088684E+02 -0.14230773777E+02  0.41086595314E+02  0.00000000000E+00 0.  1.
         21    1    1    2  503  501 -0.16310916824E+02  0.23509609101E+02 -0.78554424671E+02  0.83603500903E+02  0.00000000000E+00 0.  1.
          2    1    1    2  501    0 -0.30362409163E+02  0.28026752471E+00 -0.34882929563E+02  0.46246872488E+02  0.00000000000E+00 0. -1.
<scales pt_clust_5="13000.00000" pt_clust_6="13000.00000" pt_clust_7="13000.00000" pt_clust_8="13000.00000" pt_clust_9="28.61377" pt_clust_10="13000.00000"></scales>
<clustering>
<clus scale="   28.614">  2  9  1 -1</clus>
<clus scale="   89.436">  7  8 -1 -1</clus>
<clus scale="   89.445">  5  6 -1 -1</clus>
<clus scale="   38.406">  5 10 -1 -1</clus>
<clus scale="   98.067">  1  7  2 -1</clus>
<clus scale="   28.614">  2  5  1 -1</clus>
</clustering>
</event>
<event>
10    2  0.4951045E-006  0.4635990E+03  0.7546771E-02  0.1072228E+00
         21   -1    0    0  503  502  0.00000000000E+00  0.00000000000E+00  0.17610741590E+03  0.17610741590E+03  0.00000000000E+00 0. -1.
          2   -1    0    0  502    0 -0.00000000000E+00 -0.00000000000E+00 -0.10555977572E+04  0.10555977572E+04  0.00000000000E+00 0. -1.
         23    2    1    2    0    0  0.68687721349E+02  0.56096036247E+01 -0.42214010329E+03  0.43761560445E+03  0.92496917414E+02 0.  0.
         23    2    1    2    0    0  0.90051942878E+02 -0.43321439483E+02 -0.52762477026E+03  0.54380164973E+03  0.85710189186E+02 0.  0.
        -13    1    3    3    0    0  0.90527562756E+02 -0.50912969244E+01 -0.34617280858E+03  0.35785021213E+03  0.00000000000E+00 0. -1.
         13    1    3    3    0    0 -0.21839841407E+02  0.10700900549E+02 -0.75967294710E+02  0.79765392313E+02  0.00000000000E+00 0.  1.
        -13    1    4    4    0    0  0.39286283389E+02 -0.56647894861E+02 -0.39847555526E+03  0.40439481227E+03  0.00000000000E+00 0. -1.
         13    1    4    4    0    0  0.50765659489E+02  0.13326455378E+02 -0.12914921500E+03  0.13940683746E+03  0.00000000000E+00 0.  1.
         21    1    1    2  503  501 -0.44713950718E+01  0.67385980444E+02  0.64037144228E+02  0.93067822448E+02  0.00000000000E+00 0. -1.
          2    1    1    2  501    0 -0.15426826916E+03 -0.29674144586E+02  0.62373880157E+01  0.15722009647E+03  0.00000000000E+00 0. -1.
<scales pt_clust_5="13000.00000" pt_clust_6="13000.00000" pt_clust_7="13000.00000" pt_clust_8="13000.00000" pt_clust_9="67.53417" pt_clust_10="13000.00000"></scales>
<clustering>
<clus scale="   67.534">  1  9  2 -1</clus>
<clus scale="   85.710">  7  8 -1 -1</clus>
<clus scale="   92.497">  5  6 -1 -1</clus>
<clus scale="  115.521">  2  5  1 -1</clus>
<clus scale="  149.944">  7 10 -1 -1</clus>
<clus scale="   67.534">  1  5  2 -1</clus>
</clustering>
</event>
<event>
10    2  0.4951045E-006  0.1967683E+03  0.7546771E-02  0.1160556E+00
         21   -1    0    0  503  502  0.00000000000E+00  0.00000000000E+00  0.24836228249E+03  0.24836228249E+03  0.00000000000E+00 0.  1.
          1   -1    0    0  502    0 -0.00000000000E+00 -0.00000000000E+00 -0.38832955781E+03  0.38832955781E+03  0.00000000000E+00 0. -1.
         23    2    1    2    0    0  0.43410220161E+02  0.12300128117E+03 -0.87294410497E+02  0.18226118784E+03  0.92655621002E+02 0.  0.
         23    2    1    2    0    0 -0.10186584545E+02 -0.90772417879E+02 -0.16983401149E+03  0.21486595847E+03  0.94764921253E+02 0.  0.
        -13    1    4    4    0    0  0.33036762526E+02 -0.38840535446E+02 -0.28993294445E+02  0.58656849512E+02  0.00000000000E+00 0.  1.
         13    1    4    4    0    0 -0.43223347071E+02 -0.51931882433E+02 -0.14084071704E+03  0.15620910896E+03  0.00000000000E+00 0. -1.
        -13    1    3    3    0    0  0.50543095808E+01  0.12149047076E+03 -0.65274854622E+02  0.13800828663E+03  0.00000000000E+00 0.  1.
         13    1    3    3    0    0  0.38355910580E+02  0.15108104075E+01 -0.22019555875E+02  0.44252901209E+02  0.00000000000E+00 0. -1.
         21    1    1    2  503  501  0.22993967353E+02 -0.23016196100E+01  0.16074146535E+03  0.16239408446E+03  0.00000000000E+00 0.  1.
          1    1    1    2  501    0 -0.56217602969E+02 -0.29927243683E+02 -0.43580318686E+02  0.77170609527E+02  0.00000000000E+00 0. -1.
<scales pt_clust_5="13000.00000" pt_clust_6="13000.00000" pt_clust_7="13000.00000" pt_clust_8="13000.00000" pt_clust_9="23.10887" pt_clust_10="13000.00000"></scales>
<clustering>
<clus scale="   23.109">  1  9  2 -1</clus>
<clus scale="   92.656">  7  8 -1 -1</clus>
<clus scale="   94.765">  5  6 -1 -1</clus>
<clus scale="   60.020">  5 10 -1 -1</clus>
<clus scale="  162.914">  2  7  1 -1</clus>
<clus scale="   23.109">  1  5  2 -1</clus>
</clustering>
</event>
<event>
10    2  0.4951045E-006  0.1587492E+03  0.7546771E-02  0.1214183E+00
          1   -1    0    0  503    0 -0.00000000000E+00  0.00000000000E+00  0.51472176727E+03  0.51472176727E+03  0.00000000000E+00 0. -1.
         21   -1    0    0  501  502  0.00000000000E+00 -0.00000000000E+00 -0.53291724728E+02  0.53291724728E+02  0.00000000000E+00 0. -1.
         23    2    1    2    0    0 -0.88729079234E+01  0.55514191280E+01  0.24739383447E+03  0.26435347332E+03  0.92571608899E+02 0.  0.
         23    2    1    2    0    0  0.51510570193E+02  0.40376542348E+01  0.10541679639E+03  0.14911364368E+03  0.91937676050E+02 0.  0.
        -11    1    3    3    0    0  0.24780319557E+01  0.48153681408E+02  0.14698287978E+03  0.15468963967E+03  0.00000000000E+00 0.  1.
         11    1    3    3    0    0 -0.11350939879E+02 -0.42602262280E+02  0.10041095470E+03  0.10966383365E+03  0.00000000000E+00 0. -1.
        -11    1    4    4    0    0  0.31283211968E+02 -0.39341057592E+02  0.26510572260E+02  0.56825774127E+02  0.00000000000E+00 0.  1.
         11    1    4    4    0    0  0.20227358225E+02  0.43378711827E+02  0.78906224127E+02  0.92287869552E+02  0.00000000000E+00 0. -1.
         21    1    1    2  503  502 -0.14407874676E+02  0.44264739468E+02  0.63946536008E+02  0.79095597098E+02  0.00000000000E+00 0. -1.
          1    1    1    2  501    0 -0.28229787594E+02 -0.53853812831E+02  0.44672875675E+02  0.75450777896E+02  0.00000000000E+00 0. -1.
<scales pt_clust_5="13000.00000" pt_clust_6="13000.00000" pt_clust_7="13000.00000" pt_clust_8="13000.00000" pt_clust_9="46.55055" pt_clust_10="13000.00000"></scales>
<clustering>
<clus scale="   46.551">  2  9  1 -1</clus>
<clus scale="   91.938">  7  8 -1 -1</clus>
<clus scale="   51.104">  7 10 -1 -1</clus>
<clus scale="   92.572">  5  6 -1 -1</clus>
<clus scale="   94.298">  1  5  2 -1</clus>
<clus scale="   46.551">  2  5  1 -1</clus>
</clustering>
</event>
<event>
10    2  0.4951045E-006  0.3734202E+03  0.7546771E-02  0.1101889E+00
         21   -1    0    0  501  502  0.00000000000E+00  0.00000000000E+00  0.13448327668E+03  0.13448327668E+03  0.00000000000E+00 0. -1.
          2   -1    0    0  503    0 -0.00000000000E+00 -0.00000000000E+00 -0.18351509080E+04  0.18351509080E+04  0.00000000000E+00 0. -1.
         23    2    1    2    0    0 -0.81904949280E+02  0.19660539705E+02 -0.19998682556E+03  0.23466970289E+03  0.89331861741E+02 0.  0.
         23    2    1    2    0    0  0.16214768627E+03 -0.37785633505E+02 -0.63814308178E+03  0.66579769995E+03  0.91325561402E+02 0.  0.
        -13    1    4    4    0    0  0.35231642317E+02  0.46173760620E+01 -0.42925504978E+02  0.55724211611E+02  0.00000000000E+00 0.  1.
         13    1    4    4    0    0  0.12691604395E+03 -0.42403009567E+02 -0.59521757681E+03  0.61007348834E+03  0.00000000000E+00 0. -1.
        -13    1    3    3    0    0 -0.47400186812E+02 -0.34443876413E+02 -0.93495896858E+02  0.11033875594E+03  0.00000000000E+00 0. -1.
         13    1    3    3    0    0 -0.34504762468E+02  0.54104416118E+02 -0.10649092870E+03  0.12433094696E+03  0.00000000000E+00 0.  1.
         21    1    1    2  503  502  0.89427996944E+02 -0.23843753015E+01  0.74655289111E+02  0.11651808476E+03  0.00000000000E+00 0. -1.
          2    1    1    2  501    0 -0.16967073393E+03  0.20509469102E+02 -0.93719301309E+03  0.95264869708E+03  0.00000000000E+00 0. -1.
<scales pt_clust_5="13000.00000" pt_clust_6="13000.00000" pt_clust_7="13000.00000" pt_clust_8="13000.00000" pt_clust_9="89.45978" pt_clust_10="13000.00000"></scales>
<clustering>
<clus scale="   89.332">  7  8 -1 -1</clus>
<clus scale="   89.460">  1  9  2 -1</clus>
<clus scale="   91.326">  5  6 -1 -1</clus>
<clus scale="  100.464">  2  7  1 -1</clus>
<clus scale="  174.034">  5 10 -1 -1</clus>
<clus scale="   89.460">  1  5  2 -1</clus>
</clustering>
</event>
<event>
10    2  0.4951045E-006  0.2677236E+03  0.7546771E-02  0.1105343E+00
         21   -1    0    0  501  502  0.00000000000E+00  0.00000000000E+00  0.37186773440E+03  0.37186773440E+03  0.00000000000E+00 0. -1.
          1   -1    0    0  503    0 -0.00000000000E+00 -0.00000000000E+00 -0.94224943701E+03  0.94224943701E+03  0.00000000000E+00 0. -1.
         23    2    1    2    0    0  0.21431227248E+03  0.60598818532E+02 -0.62838689121E+03  0.67288649917E+03  0.91127321813E+02 0.  0.
         23    2    1    2    0    0 -0.15011532625E+03 -0.11698038466E+02 -0.14116268973E+03  0.22550371125E+03  0.90849125105E+02 0.  0.
        -13    1    4    4    0    0 -0.14375693260E+03  0.15317159083E+02 -0.99721282836E+02  0.17562746165E+03  0.00000000000E+00 0.  1.
         13    1    4    4    0    0 -0.63583936511E+01 -0.27015197549E+02 -0.41441406897E+02  0.49876249599E+02  0.00000000000E+00 0. -1.
        -13    1    3    3    0    0  0.84386043666E+02 -0.14499607552E+02 -0.29715862885E+03  0.30924827192E+03  0.00000000000E+00 0.  1.
         13    1    3    3    0    0  0.12992622881E+03  0.75098426084E+02 -0.33122826236E+03  0.36363822725E+03  0.00000000000E+00 0. -1.
         21    1    1    2  503  502  0.41025457053E+02  0.72126878017E+01  0.27254530905E+03  0.27571009499E+03  0.00000000000E+00 0. -1.
          1    1    1    2  501    0 -0.10522240328E+03 -0.56113467868E+02 -0.73377430722E+02  0.14001686601E+03  0.00000000000E+00 0. -1.
<scales pt_clust_5="13000.00000" pt_clust_6="13000.00000" pt_clust_7="13000.00000" pt_clust_8="13000.00000" pt_clust_9="41.65466" pt_clust_10="13000.00000"></scales>
<clustering>
<clus scale="   41.655">  1  9  2 -1</clus>
<clus scale="   90.849">  5  6 -1 -1</clus>
<clus scale="   91.127">  7  8 -1 -1</clus>
<clus scale="  105.844">  5 10 -1 -1</clus>
<clus scale="  249.395">  2  7  1 -1</clus>
<clus scale="   41.655">  1  5  2 -1</clus>
</clustering>
</event>
<event>
10    2  0.4951045E-006  0.1328014E+03  0.7546771E-02  0.1238153E+00
         21   -1    0    0  503  502  0.00000000000E+00  0.00000000000E+00  0.21568684758E+02  0.21568684758E+02  0.00000000000E+00 0. -1.
         -4   -1    0    0    0  501 -0.00000000000E+00 -0.00000000000E+00 -0.83838559961E+03  0.83838559961E+03  0.00000000000E+00 0.  1.
         23    2    1    2    0    0  0.32523333649E+02  0.72610524988E+01 -0.37011500548E+03  0.38296908480E+03  0.92572741738E+02 0.  0.
         23    2    1    2    0    0 -0.10477199705E+02  0.84239018981E+01 -0.21497257970E+03  0.23331759681E+03  0.89683650250E+02 0.  0.
        -11    1    4    4    0    0  0.37034225755E+02 -0.73389137967E+01 -0.12222903685E+03  0.12792705337E+03  0.00000000000E+00 0.  1.
         11    1    4    4    0    0 -0.47511425460E+02  0.15762815695E+02 -0.92743542847E+02  0.10539054344E+03  0.00000000000E+00 0. -1.
        -13    1    3    3    0    0 -0.14820579819E+02  0.38771887421E+02 -0.15864630131E+03  0.16398645603E+03  0.00000000000E+00 0. -1.
         13    1    3    3    0    0  0.47343913469E+02 -0.31510834922E+02 -0.21146870417E+03  0.21898262877E+03  0.00000000000E+00 0.  1.
         21    1    1    2  503  501 -0.15837301058E+02  0.27314967978E+02 -0.10867935814E+03  0.11317301120E+03  0.00000000000E+00 0. -1.
         -4    1    1    2    0  502 -0.62088328856E+01 -0.42999922375E+02 -0.12304997153E+03  0.13049459155E+03  0.00000000000E+00 0.  1.
<scales pt_clust_5="13000.00000" pt_clust_6="13000.00000" pt_clust_7="13000.00000" pt_clust_8="13000.00000" pt_clust_9="31.57418" pt_clust_10="13000.00000"></scales>
<clustering>
<clus scale="   31.574">  1  9  2 -1</clus>
<clus scale="   89.684">  5  6 -1 -1</clus>
<clus scale="   38.857">  5 10 -1 -1</clus>
<clus scale="   92.573">  7  8 -1 -1</clus>
<clus scale="   97.876">  2  7  1 -1</clus>
<clus scale="   31.574">  1  5  2 -1</clus>
</clustering>
</event>
<event>
10    2  0.4951045E-006  0.3009037E+03  0.7546771E-02  0.1109772E+00
          2   -1    0    0  503    0 -0.00000000000E+00  0.00000000000E+00  0.16340277987E+04  0.16340277987E+04  0.00000000000E+00 0. -1.
         21   -1    0    0  501  502  0.00000000000E+00 -0.00000000000E+00 -0.54879870449E+02  0.54879870449E+02  0.00000000000E+00 0. -1.
         23    2    1    2    0    0  0.90541004175E+02 -0.91293720493E+02  0.21154480497E+03  0.26350146020E+03  0.90275124923E+02 0.  0.
         23    2    1    2    0    0 -0.28399248921E+02  0.18979144069E+03  0.81759275883E+03  0.84465163655E+03  0.90283772323E+02 0.  0.
        -11    1    3    3    0    0 -0.17675904463E+02 -0.14954631232E+02  0.46035367243E+02  0.51529929469E+02  0.00000000000E+00 0.  1.
         11    1    3    3    0    0  0.10821690864E+03 -0.76339089261E+02  0.16550943773E+03  0.21197153073E+03  0.00000000000E+00 0. -1.
        -13    1    4    4    0    0 -0.47567701482E+02  0.17681959189E+03  0.77322357250E+03  0.79460842392E+03  0.00000000000E+00 0. -1.
         13    1    4    4    0    0  0.19168452561E+02  0.12971848801E+02  0.44369186329E+02  0.50043212630E+02  0.00000000000E+00 0.  1.
         21    1    1    2  503  502 -0.29356777654E+02 -0.23617642154E+02  0.16694619227E+02  0.41210723438E+02  0.00000000000E+00 0.  1.
          2    1    1    2  501    0 -0.32784977600E+02 -0.74880078040E+02  0.53331574518E+03  0.53954384892E+03  0.00000000000E+00 0. -1.
<scales pt_clust_5="13000.00000" pt_clust_6="13000.00000" pt_clust_7="13000.00000" pt_clust_8="13000.00000" pt_clust_9="37.67776" pt_clust_10="13000.00000"></scales>
<clustering>
<clus scale="   37.678">  2  9  1 -1</clus>
<clus scale="   90.275">  5  6 -1 -1</clus>
<clus scale="   90.284">  7  8 -1 -1</clus>
<clus scale="   84.193">  7 10 -1 -1</clus>
<clus scale="  156.836">  1  5  2 -1</clus>
<clus scale="   37.678">  2  5  1 -1</clus>
</clustering>
</event>
<event>
10    2  0.4951045E-006  0.1140087E+03  0.7546771E-02  0.1261957E+00
         21   -1    0    0  501  502  0.00000000000E+00  0.00000000000E+00  0.87118806356E+02  0.87118806356E+02  0.00000000000E+00 0.  1.
          2   -1    0    0  503    0 -0.00000000000E+00 -0.00000000000E+00 -0.56186052697E+03  0.56186052697E+03  0.00000000000E+00 0. -1.
         23    2    1    2    0    0  0.14917823690E+02  0.10424023939E+02 -0.23629620735E+03  0.25368279062E+03  0.90486788598E+02 0.  0.
         23    2    1    2    0    0 -0.33256024009E+02 -0.70454848985E+00 -0.25712606704E+03  0.27494579638E+03  0.91514573019E+02 0.  0.
        -11    1    4    4    0    0  0.26762341888E+02  0.11524988953E+02 -0.40944391468E+02  0.50254268539E+02  0.00000000000E+00 0. -1.
         11    1    4    4    0    0 -0.60018365897E+02 -0.12229537443E+02 -0.21618167557E+03  0.22469152784E+03  0.00000000000E+00 0.  1.
        -13    1    3    3    0    0 -0.22262558305E+02 -0.12388073880E+02 -0.18308077855E+02  0.31373102994E+02  0.00000000000E+00 0.  1.
         13    1    3    3    0    0  0.37180381995E+02  0.22812097820E+02 -0.21798812950E+03  0.22230968763E+03  0.00000000000E+00 0. -1.
         21    1    1    2  503  502  0.41799725842E+02 -0.15363197881E+02  0.58662337374E+02  0.73651305187E+02  0.00000000000E+00 0.  1.
          2    1    1    2  501    0 -0.23461525523E+02  0.56437224316E+01 -0.39981783590E+02  0.46699441129E+02  0.00000000000E+00 0. -1.
<scales pt_clust_5="13000.00000" pt_clust_6="13000.00000" pt_clust_7="13000.00000" pt_clust_8="13000.00000" pt_clust_9="44.53364" pt_clust_10="13000.00000"></scales>
<clustering>
<clus scale="   44.534">  1  9  2 -1</clus>
<clus scale="   90.487">  7  8 -1 -1</clus>
<clus scale="   91.515">  5  6 -1 -1</clus>
<clus scale="   17.063">  5 10 -1 -1</clus>
<clus scale="   96.148">  2  7  1 -1</clus>
<clus scale="   44.534">  1  5  2 -1</clus>
</clustering>
</event>
<event>
10    2  0.4951045E-006  0.2797361E+03  0.7546771E-02  0.1139758E+00
         21   -1    0    0  501  502  0.00000000000E+00  0.00000000000E+00  0.18833532699E+03  0.18833532699E+03  0.00000000000E+00 0.  1.
         -3   -1    0    0    0  501 -0.00000000000E+00 -0.00000000000E+00 -0.48737522512E+03  0.48737522512E+03  0.00000000000E+00 0.  1.
         23    2    1    2    0    0  0.81214561096E+01 -0.13844035596E+02  0.75542590646E+01  0.93904536009E+02  0.92213771651E+02 0.  0.
         23    2    1    2    0    0 -0.20112952767E+02 -0.13559503863E+02 -0.41952401728E+03  0.43008056995E+03  0.91545095807E+02 0.  0.
        -11    1    4    4    0    0  0.19217354131E+02 -0.39751920330E+02 -0.25935159409E+03  0.26308320210E+03  0.00000000000E+00 0.  1.
         11    1    4    4    0    0 -0.39330306898E+02  0.26192416467E+02 -0.16017242319E+03  0.16699736786E+03  0.00000000000E+00 0. -1.
        -13    1    3    3    0    0  0.40863724582E+02 -0.19704464897E+02  0.29445472086E+02  0.54084616574E+02  0.00000000000E+00 0. -1.
         13    1    3    3    0    0 -0.32742268472E+02  0.58604293014E+01 -0.21891213021E+02  0.39819919435E+02  0.00000000000E+00 0.  1.
         21    1    1    2  503  502 -0.34262296311E+02  0.31579642921E+02  0.86597588403E+02  0.98337790867E+02  0.00000000000E+00 0.  1.
         -3    1    1    2    0  503  0.46253792968E+02 -0.41761034623E+01  0.26332271680E+02  0.53387655277E+02  0.00000000000E+00 0.  1.
<scales pt_clust_5="13000.00000" pt_clust_6="13000.00000" pt_clust_7="13000.00000" pt_clust_8="13000.00000" pt_clust_9="46.59591" pt_clust_10="13000.00000"></scales>
<clustering>
<clus scale="   46.596">  1  9  2 -1</clus>
<clus scale="   91.545">  5  6 -1 -1</clus>
<clus scale="   33.237">  5 10 -1 -1</clus>
<clus scale="   92.214">  7  8 -1 -1</clus>
<clus scale="   92.800">  2  7  1 -1</clus>
<clus scale="   46.596">  1  5  2 -1</clus>
</clustering>
</event>
<event>
10    2  0.4951045E-006  0.3862878E+03  0.7546771E-02  0.1055432E+00
          3   -1    0    0  503    0 -0.00000000000E+00  0.00000000000E+00  0.16598000945E+04  0.16598000945E+04  0.00000000000E+00 0. -1.
         21   -1    0    0  501  502  0.00000000000E+00 -0.00000000000E+00 -0.80587243248E+02  0.80587243248E+02  0.00000000000E+00 0. -1.
         23    2    1    2    0    0 -0.28434317344E+03 -0.76041844718E+02  0.74130541652E+03  0.80391384987E+03  0.10055026120E+03 0.  0.
         23    2    1    2    0    0  0.65430026018E+02  0.45182659021E+02  0.46102445487E+03  0.47800288044E+03  0.98084885384E+02 0.  0.
        -13    1    4    4    0    0  0.88975152413E+01 -0.27472231842E+02  0.60544661201E+02  0.67078650104E+02  0.00000000000E+00 0.  1.
         13    1    4    4    0    0  0.56532510777E+02  0.72654890862E+02  0.40047979367E+03  0.41092423033E+03  0.00000000000E+00 0. -1.
        -13    1    3    3    0    0 -0.15125947193E+03 -0.20604309404E+02  0.50037391712E+03  0.52314244938E+03  0.00000000000E+00 0. -1.
         13    1    3    3    0    0 -0.13308370151E+03 -0.55437535314E+02  0.24093149940E+03  0.28077140049E+03  0.00000000000E+00 0.  1.
         21    1    1    2  503  502 -0.15742493020E+02 -0.15253873611E+02  0.31751373386E+02  0.38583111053E+02  0.00000000000E+00 0.  1.
          3    1    1    2  501    0  0.23465564044E+03  0.46113059308E+02  0.34513160649E+03  0.41988749639E+03  0.00000000000E+00 0. -1.
<scales pt_clust_5="13000.00000" pt_clust_6="13000.00000" pt_clust_7="13000.00000" pt_clust_8="13000.00000" pt_clust_9="21.92046" pt_clust_10="13000.00000"></scales>
<clustering>
<clus scale="   21.920">  2  9  1 -1</clus>
<clus scale="   98.085">  5  6 -1 -1</clus>
<clus scale="  100.550">  7  8 -1 -1</clus>
<clus scale="  230.310">  5 10 -1 -1</clus>
<clus scale="  318.426">  1  7  2 -1</clus>
<clus scale="   21.920">  2  5  1 -1</clus>
</clustering>
</event>
<event>
10    2  0.4951045E-006  0.1343337E+03  0.7546771E-02  0.1229844E+00
         21   -1    0    0  503  502  0.00000000000E+00  0.00000000000E+00  0.74305491450E+02  0.74305491450E+02  0.00000000000E+00 0.  1.
          2   -1    0    0  502    0 -0.00000000000E+00 -0.00000000000E+00 -0.10548191122E+04  0.10548191122E+04  0.00000000000E+00 0. -1.
         23    2    1    2    0    0  0.11535440737E+02  0.81156510312E+02 -0.42242337680E+03  0.43981241953E+03  0.90961582788E+02 0.  0.
         23    2    1    2    0    0 -0.74593323269E+01 -0.31580967940E+02 -0.56015216963E+03  0.56869581031E+03  0.92690195574E+02 0.  0.
        -11    1    4    4    0    0 -0.49002688441E+02 -0.58905385362E+01 -0.27847965419E+03  0.28281951792E+03  0.00000000000E+00 0.  1.
         11    1    4    4    0    0  0.41543356114E+02 -0.25690429404E+02 -0.28167251544E+03  0.28587629239E+03  0.00000000000E+00 0. -1.
        -11    1    3    3    0    0 -0.31781459463E+02  0.59587009719E+02 -0.31242825276E+03  0.31964368602E+03  0.00000000000E+00 0.  1.
         11    1    3    3    0    0  0.43316900200E+02  0.21569500593E+02 -0.10999512404E+03  0.12016873350E+03  0.00000000000E+00 0. -1.
         21    1    1    2  503  501  0.10958052840E+02 -0.31965187272E+02  0.54028018866E+02  0.63725026026E+02  0.00000000000E+00 0.  1.
          2    1    1    2  501    0 -0.15034161250E+02 -0.17610355099E+02 -0.51966093170E+02  0.56891347765E+02  0.00000000000E+00 0. -1.
<scales pt_clust_5="13000.00000" pt_clust_6="13000.00000" pt_clust_7="13000.00000" pt_clust_8="13000.00000" pt_clust_9="33.79130" pt_clust_10="13000.00000"></scales>
<clustering>
<clus scale="   33.791">  1  9  2 -1</clus>
<clus scale="   90.962">  7  8 -1 -1</clus>
<clus scale="   92.690">  5  6 -1 -1</clus>
<clus scale="   26.312">  5 10 -1 -1</clus>
<clus scale="  112.137">  2  7  1 -1</clus>
<clus scale="   33.791">  1  5  2 -1</clus>
</clustering>
</event>
<event>
10    2  0.4951045E-006  0.4426745E+03  0.7546771E-02  0.1058341E+00
          1   -1    0    0  502    0 -0.00000000000E+00  0.00000000000E+00  0.44343501985E+03  0.44343501985E+03  0.00000000000E+00 0. -1.
         21   -1    0    0  503  502  0.00000000000E+00 -0.00000000000E+00 -0.56898501656E+03  0.56898501656E+03  0.00000000000E+00 0.  1.
         23    2    1    2    0    0  0.53359323627E+02 -0.14204370486E+03 -0.82009372217E+02  0.19472391758E+03  0.90378290729E+02 0.  0.
         23    2    1    2    0    0 -0.10614153076E+03  0.16740455123E+03  0.33537292904E+03  0.39968688263E+03  0.89354878343E+02 0.  0.
        -11    1    3    3    0    0  0.51740845827E+02 -0.37915793477E+02 -0.33833844771E+01  0.64235269225E+02  0.00000000000E+00 0. -1.
         11    1    3    3    0    0  0.16184778000E+01 -0.10412791139E+03 -0.78625987740E+02  0.13048864835E+03  0.00000000000E+00 0.  1.
        -13    1    4    4    0    0 -0.71479656468E+02  0.16128080775E+03  0.30859611937E+03  0.35546083487E+03  0.00000000000E+00 0. -1.
         13    1    4    4    0    0 -0.34661874292E+02  0.61237434787E+01  0.26776809671E+02  0.44226047752E+02  0.00000000000E+00 0.  1.
         21    1    1    2  503  501 -0.25503803292E+02 -0.50771364653E+02 -0.29517364381E+03  0.30059217463E+03  0.00000000000E+00 0.  1.
          1    1    1    2  501    0  0.78286010425E+02  0.25410518287E+02 -0.83739909728E+02  0.11741706158E+03  0.00000000000E+00 0. -1.
<scales pt_clust_5="13000.00000" pt_clust_6="13000.00000" pt_clust_7="13000.00000" pt_clust_8="13000.00000" pt_clust_9="56.81703" pt_clust_10="13000.00000"></scales>
<clustering>
<clus scale="   56.817">  2  9  1 -1</clus>
<clus scale="   89.355">  7  8 -1 -1</clus>
<clus scale="   69.137">  7 10 -1 -1</clus>
<clus scale="   90.378">  5  6 -1 -1</clus>
<clus scale="  194.949">  1  5  2 -1</clus>
<clus scale="   56.817">  2  5  1 -1</clus>
</clustering>
</event>
<event>
10    2  0.4951045E-006  0.3744158E+03  0.7546771E-02  0.1088103E+00
          2   -1    0    0  502    0 -0.00000000000E+00  0.00000000000E+00  0.61536878285E+03  0.61536878285E+03  0.00000000000E+00 0. -1.
         21   -1    0    0  503  502  0.00000000000E+00 -0.00000000000E+00 -0.20964324050E+03  0.20964324050E+03  0.00000000000E+00 0. -1.
         23    2    1    2    0    0 -0.29628259257E+02  0.65063791189E+02 -0.24708517735E+02  0.11908211962E+03  0.91972331139E+02 0.  0.
         23    2    1    2    0    0 -0.23246584828E+02  0.94746237725E+02  0.25307252691E+03  0.28579561272E+03  0.90089816854E+02 0.  0.
        -11    1    4    4    0    0  0.31358568455E+02  0.56325283086E+02  0.14618586604E+03  0.15976922344E+03  0.00000000000E+00 0. -1.
         11    1    4    4    0    0 -0.54605153283E+02  0.38420954640E+02  0.10688666088E+03  0.12602638928E+03  0.00000000000E+00 0.  1.
        -13    1    3    3    0    0  0.25585672026E+02  0.21894163214E+02  0.16792640665E+02  0.37629427000E+02  0.00000000000E+00 0.  1.
         13    1    3    3    0    0 -0.55213931283E+02  0.43169627975E+02 -0.41501158400E+02  0.81452692625E+02  0.00000000000E+00 0. -1.
         21    1    1    2  503  501 -0.51310834216E+02  0.56728134289E+02 -0.48319671429E+02  0.90474712350E+02  0.00000000000E+00 0. -1.
          2    1    1    2  501    0  0.10418567830E+03 -0.21653816320E+03  0.22568120461E+03  0.32965957866E+03  0.00000000000E+00 0. -1.
<scales pt_clust_5="13000.00000" pt_clust_6="13000.00000" pt_clust_7="13000.00000" pt_clust_8="13000.00000" pt_clust_9="76.49106" pt_clust_10="13000.00000"></scales>
<clustering>
<clus scale="   76.491">  2  9  1 -1</clus>
<clus scale="   90.090">  5  6 -1 -1</clus>
<clus scale="   91.972">  7  8 -1 -1</clus>
<clus scale="  143.005">  1  7  2 -1</clus>
<clus scale="  166.754">  5 10 -1 -1</clus>
<clus scale="   76.491">  2  5  1 -1</clus>
</clustering>
</event>
<event>
10    2  0.4951045E-006  0.2006255E+03  0.7546771E-02  0.1178227E+00
          2   -1    0    0  503    0 -0.00000000000E+00  0.00000000000E+00  0.42644706732E+03  0.42644706732E+03  0.00000000000E+00 0. -1.
         21   -1    0    0  501  502  0.00000000000E+00 -0.00000000000E+00 -0.13400150330E+03  0.13400150330E+03  0.00000000000E+00 0.  1.
         23    2    1    2    0    0 -0.51524166718E+02  0.27250622624E+02  0.17728897161E+03  0.20750512248E+03  0.90717474675E+02 0.  0.
         23    2    1    2    0    0  0.45549577505E+02 -0.34314061516E+02  0.18572857523E+03  0.21445359447E+03  0.90791088196E+02 0.  0.
        -11    1    4    4    0    0  0.71302258273E+02 -0.12130563134E+02  0.11284872927E+03  0.13403730188E+03  0.00000000000E+00 0.  1.
         11    1    4    4    0    0 -0.25752680769E+02 -0.22183498382E+02  0.72879845963E+02  0.80416292596E+02  0.00000000000E+00 0. -1.
        -13    1    3    3    0    0 -0.67730379626E+01  0.34241416542E+02  0.13262010643E+02  0.37339383717E+02  0.00000000000E+00 0.  1.
         13    1    3    3    0    0 -0.44751128756E+02 -0.69907939180E+01  0.16402696097E+03  0.17016573876E+03  0.00000000000E+00 0. -1.
         21    1    1    2  503  502  0.24755945192E+02 -0.43866570654E+02 -0.67362971781E+02  0.84112441473E+02  0.00000000000E+00 0.  1.
          2    1    1    2  501    0 -0.18781355978E+02  0.50930009546E+02 -0.32090110405E+01  0.54377412191E+02  0.00000000000E+00 0. -1.
<scales pt_clust_5="13000.00000" pt_clust_6="13000.00000" pt_clust_7="13000.00000" pt_clust_8="13000.00000" pt_clust_9="50.36996" pt_clust_10="13000.00000"></scales>
<clustering>
<clus scale="   50.370">  2  9  1 -1</clus>
<clus scale="   90.717">  7  8 -1 -1</clus>
<clus scale="   90.791">  5  6 -1 -1</clus>
<clus scale="   29.976">  5 10 -1 -1</clus>
<clus scale="  102.548">  1  7  2 -1</clus>
<clus scale="   50.370">  2  5  1 -1</clus>
</clustering>
</event>
<event>
10    2  0.4951045E-006  0.4146520E+03  0.7546771E-02  0.1049691E+00
         21   -1    0    0  501  502  0.00000000000E+00  0.00000000000E+00  0.67849871253E+03  0.67849871253E+03  0.00000000000E+00 0.  1.
         -1   -1    0    0    0  501 -0.00000000000E+00 -0.00000000000E+00 -0.32137677836E+03  0.32137677836E+03  0.00000000000E+00 0.  1.
         23    2    1    2    0    0 -0.29793133727E+03  0.52532145770E+02 -0.19489290819E+02  0.31657668126E+03  0.91204465872E+02 0.  0.
         23    2    1    2    0    0  0.19156769175E+03  0.12998994050E+02  0.44476772150E+02  0.21688726922E+03  0.90524858022E+02 0.  0.
        -11    1    3    3    0    0 -0.14700774082E+03 -0.10249708590E+02 -0.37682885569E+02  0.15210631891E+03  0.00000000000E+00 0.  1.
         11    1    3    3    0    0 -0.15092359645E+03  0.62781854360E+02  0.18193594750E+02  0.16447036235E+03  0.00000000000E+00 0. -1.
        -11    1    4    4    0    0  0.13815900233E+03  0.43696751361E+02  0.76279804418E+01  0.14510514150E+03  0.00000000000E+00 0.  1.
         11    1    4    4    0    0  0.53408689419E+02 -0.30697757311E+02  0.36848791708E+02  0.71782127719E+02  0.00000000000E+00 0. -1.
         21    1    1    2  503  502  0.72660716152E+02  0.11554857192E+03  0.18904999533E+03  0.23317579823E+03  0.00000000000E+00 0.  1.
         -1    1    1    2    0  503  0.33702929371E+02 -0.18107971174E+03  0.14308445751E+03  0.23323574218E+03  0.00000000000E+00 0.  1.
<scales pt_clust_5="13000.00000" pt_clust_6="13000.00000" pt_clust_7="13000.00000" pt_clust_8="13000.00000" pt_clust_9="136.49561" pt_clust_10="13000.00000"></scales>
<clustering>
<clus scale="   90.525">  7  8 -1 -1</clus>
<clus scale="   91.204">  5  6 -1 -1</clus>
<clus scale="  136.496">  1  9  2 -1</clus>
<clus scale="  148.561">  7 10 -1 -1</clus>
<clus scale="  303.020">  2  5  1 -1</clus>
<clus scale="  136.496">  1  5  2 -1</clus>
</clustering>
</event>
<event>
10    2  0.4951045E-006  0.4109475E+03  0.7546771E-02  0.1094707E+00
          3   -1    0    0  502    0 -0.00000000000E+00  0.00000000000E+00  0.57764317596E+03  0.57764317596E+03  0.00000000000E+00 0. -1.
         21   -1    0    0  503  502  0.00000000000E+00 -0.00000000000E+00 -0.33910557983E+03  0.33910557983E+03  0.00000000000E+00 0. -1.
         23    2    1    2    0    0 -0.21108828918E+01 -0.37978988562E+02 -0.14288382418E+02  0.99069580956E+02  0.90353553333E+02 0.  0.
         23    2    1    2    0    0  0.10813584553E+03 -0.88776438678E+02  0.22468726771E+02  0.17138820724E+03  0.96407762896E+02 0.  0.
        -11    1    4    4    0    0  0.98401694440E+02 -0.26175143817E+02 -0.58544114597E+01  0.10199169454E+03  0.00000000000E+00 0.  1.
         11    1    4    4    0    0  0.97341510919E+01 -0.62601294862E+02  0.28323138230E+02  0.69396512701E+02  0.00000000000E+00 0. -1.
        -11    1    3    3    0    0 -0.39535182807E+02 -0.90030503834E+01 -0.28604132772E+02  0.49621386593E+02  0.00000000000E+00 0. -1.
         11    1    3    3    0    0  0.37424299915E+02 -0.28975938179E+02  0.14315750354E+02  0.49448194362E+02  0.00000000000E+00 0.  1.
         21    1    1    2  503  501 -0.13394873255E+02  0.77624528042E+02 -0.19388894534E+03  0.20927950953E+03  0.00000000000E+00 0. -1.
          3    1    1    2  501    0 -0.92630089384E+02  0.49130899199E+02  0.42424619711E+03  0.43701145806E+03  0.00000000000E+00 0. -1.
<scales pt_clust_5="13000.00000" pt_clust_6="13000.00000" pt_clust_7="13000.00000" pt_clust_8="13000.00000" pt_clust_9="78.77176" pt_clust_10="13000.00000"></scales>
<clustering>
<clus scale="   78.772">  2  9  1 -1</clus>
<clus scale="   90.354">  7  8 -1 -1</clus>
<clus scale="   90.873">  1  7  2 -1</clus>
<clus scale="   96.408">  5  6 -1 -1</clus>
<clus scale="  110.511">  5 10 -1 -1</clus>
<clus scale="   78.772">  2  5  1 -1</clus>
</clustering>
</event>
<event>
10    2  0.4951045E-006  0.1494962E+03  0.7546771E-02  0.1218708E+00
          1   -1    0    0  503    0 -0.00000000000E+00  0.00000000000E+00  0.34266318301E+03  0.34266318301E+03  0.00000000000E+00 0. -1.
         21   -1    0    0  501  502  0.00000000000E+00 -0.00000000000E+00 -0.10113191537E+03  0.10113191537E+03  0.00000000000E+00 0.  1.
         23    2    1    2    0    0  0.20319158485E+02 -0.35848936438E+02  0.22796786283E+03  0.24929658336E+03  0.92094655354E+02 0.  0.
         23    2    1    2    0    0 -0.25296547437E+02  0.35135366730E+02  0.55868292872E+02  0.11499481843E+03  0.90709055831E+02 0.  0.
        -13    1    3    3    0    0 -0.21715077081E+02 -0.51541526202E+02  0.12106314836E+03  0.13335801208E+03  0.00000000000E+00 0.  1.
         13    1    3    3    0    0  0.42034235566E+02  0.15692589763E+02  0.10690471447E+03  0.11593857128E+03  0.00000000000E+00 0. -1.
        -13    1    4    4    0    0 -0.51044453347E+01 -0.30831748569E+02  0.21390405048E+02  0.37870853042E+02  0.00000000000E+00 0.  1.
         13    1    4    4    0    0 -0.20192102102E+02  0.65967115299E+02  0.34477887824E+02  0.77123965387E+02  0.00000000000E+00 0. -1.
         21    1    1    2  503  502  0.64314487804E+01 -0.31311468324E+02 -0.88480841185E+01  0.33167155057E+02  0.00000000000E+00 0.  1.
          1    1    1    2  501    0 -0.14540598285E+01  0.32025038033E+02 -0.33456803943E+02  0.46336541531E+02  0.00000000000E+00 0. -1.
<scales pt_clust_5="13000.00000" pt_clust_6="13000.00000" pt_clust_7="13000.00000" pt_clust_8="13000.00000" pt_clust_9="31.96516" pt_clust_10="13000.00000"></scales>
<clustering>
<clus scale="   31.965">  2  9  1 -1</clus>
<clus scale="   90.709">  7  8 -1 -1</clus>
<clus scale="   16.527">  7 10 -1 -1</clus>
<clus scale="   92.095">  5  6 -1 -1</clus>
<clus scale="  102.621">  1  5  2 -1</clus>
<clus scale="   31.965">  2  5  1 -1</clus>
</clustering>
</event>
<event>
10    2  0.4951045E-006  0.1819011E+03  0.7546771E-02  0.1178979E+00
         -1   -1    0    0    0  501 -0.00000000000E+00  0.00000000000E+00  0.65425825429E+03  0.65425825429E+03  0.00000000000E+00 0.  1.
         21   -1    0    0  503  502  0.00000000000E+00 -0.00000000000E+00 -0.84339095054E+02  0.84339095054E+02  0.00000000000E+00 0.  1.
         23    2    1    2    0    0 -0.54750716355E+02  0.90961881127E+02  0.19640118796E+03  0.24158818702E+03  0.92302333214E+02 0.  0.
         23    2    1    2    0    0  0.23527245242E+01 -0.31441392957E+02  0.33752006564E+03  0.35135218228E+03  0.92382167006E+02 0.  0.
        -11    1    4    4    0    0  0.45847536455E+02 -0.25536830327E+02  0.15560186417E+03  0.16421347823E+03  0.00000000000E+00 0.  1.
         11    1    4    4    0    0 -0.43494811930E+02 -0.59045626298E+01  0.18191820147E+03  0.18713870404E+03  0.00000000000E+00 0. -1.
        -13    1    3    3    0    0  0.24355207411E+02  0.31491970187E+02  0.75437888556E+02  0.85298272808E+02  0.00000000000E+00 0. -1.
         13    1    3    3    0    0 -0.79105923767E+02  0.59469910940E+02  0.12096329941E+03  0.15628991422E+03  0.00000000000E+00 0.  1.
         21    1    1    2  503  501  0.23543577285E+02 -0.24696394429E+01 -0.39916301215E+02  0.46408083919E+02  0.00000000000E+00 0.  1.
         -1    1    1    2    0  502  0.28854414546E+02 -0.57050848728E+02  0.75914206848E+02  0.99248896118E+02  0.00000000000E+00 0.  1.
<scales pt_clust_5="13000.00000" pt_clust_6="13000.00000" pt_clust_7="13000.00000" pt_clust_8="13000.00000" pt_clust_9="23.67275" pt_clust_10="13000.00000"></scales>
<clustering>
<clus scale="   23.673">  2  9  1 -1</clus>
<clus scale="   92.302">  7  8 -1 -1</clus>
<clus scale="   92.382">  5  6 -1 -1</clus>
<clus scale="   67.803">  5 10 -1 -1</clus>
<clus scale="  135.274">  1  7  2 -1</clus>
<clus scale="   23.673">  2  5  1 -1</clus>
</clustering>
</event>
<event>
10    2  0.4951045E-006  0.2614134E+03  0.7546771E-02  0.1120585E+00
          2   -1    0    0  502    0 -0.00000000000E+00  0.00000000000E+00  0.46760335394E+03  0.46760335394E+03  0.00000000000E+00 0. -1.
         21   -1    0    0  503  502  0.00000000000E+00 -0.00000000000E+00 -0.24068456008E+03  0.24068456008E+03  0.00000000000E+00 0.  1.
         23    2    1    2    0    0  0.83000975818E+02 -0.13497426568E+03  0.26405369301E+03  0.32145688532E+03  0.92211506581E+02 0.  0.
         23    2    1    2    0    0 -0.56768328323E+02  0.17582244362E+03  0.39698726078E+02  0.22637615079E+03  0.12463546049E+03 0.  0.
        -11    1    4    4    0    0 -0.76091704207E+02  0.12143629403E+03  0.71848774710E+02  0.16030897474E+03  0.00000000000E+00 0. -1.
         11    1    4    4    0    0  0.19323375884E+02  0.54386149597E+02 -0.32150048632E+02  0.66067176045E+02  0.00000000000E+00 0.  1.
        -13    1    3    3    0    0  0.23963887540E+02 -0.11190046156E+03  0.13013502342E+03  0.17329485141E+03  0.00000000000E+00 0. -1.
         13    1    3    3    0    0  0.59037088278E+02 -0.23073804117E+02  0.13391866959E+03  0.14816203391E+03  0.00000000000E+00 0.  1.
         21    1    1    2  503  501 -0.35666647229E+02 -0.13195069509E+02 -0.10992090789E+03  0.11631347976E+03  0.00000000000E+00 0.  1.
          2    1    1    2  501    0  0.94339997335E+01 -0.27653108435E+02  0.33087282663E+02  0.44141398155E+02  0.00000000000E+00 0. -1.
<scales pt_clust_5="13000.00000" pt_clust_6="13000.00000" pt_clust_7="13000.00000" pt_clust_8="13000.00000" pt_clust_9="38.02919" pt_clust_10="13000.00000"></scales>
<clustering>
<clus scale="   38.029">  2  9  1 -1</clus>
<clus scale="   92.212">  7  8 -1 -1</clus>
<clus scale="  124.635">  5  6 -1 -1</clus>
<clus scale="   29.307">  5 10 -1 -1</clus>
<clus scale="  182.079">  1  7  2 -1</clus>
<clus scale="   38.029">  2  5  1 -1</clus>
</clustering>
</event>
<event>
10    2  0.4951045E-006  0.3882244E+03  0.7546771E-02  0.1075520E+00
          2   -1    0    0  503    0 -0.00000000000E+00  0.00000000000E+00  0.64670134178E+03  0.64670134178E+03  0.00000000000E+00 0. -1.
         21   -1    0    0  501  502  0.00000000000E+00 -0.00000000000E+00 -0.36587341951E+03  0.36587341951E+03  0.00000000000E+00 0. -1.
         23    2    1    2    0    0  0.10617076186E+03 -0.71395287718E+02  0.41276732860E+03  0.44954480498E+03  0.12387149126E+03 0.  0.
         23    2    1    2    0    0  0.23197462950E+02 -0.80737073403E+02  0.99903170558E+02  0.16668389167E+03  0.10366426069E+03 0.  0.
        -11    1    4    4    0    0 -0.28043896456E+02 -0.51564206091E+02  0.89164223015E+02  0.10675011075E+03  0.00000000000E+00 0. -1.
         11    1    4    4    0    0  0.51241359406E+02 -0.29172867312E+02  0.10738947543E+02  0.59933780920E+02  0.00000000000E+00 0.  1.
        -13    1    3    3    0    0  0.74784832043E+02 -0.34935437488E+02  0.38551774229E+03  0.39425522890E+03  0.00000000000E+00 0. -1.
         13    1    3    3    0    0  0.31385929816E+02 -0.36459850231E+02  0.27249586311E+02  0.55289576083E+02  0.00000000000E+00 0.  1.
         21    1    1    2  503  502  0.36450128130E+02  0.64167878096E+01 -0.15996814184E+03  0.16419376788E+03  0.00000000000E+00 0. -1.
          2    1    1    2  501    0 -0.16581835294E+03  0.14571557331E+03 -0.71874435052E+02  0.23215229676E+03  0.00000000000E+00 0. -1.
<scales pt_clust_5="13000.00000" pt_clust_6="13000.00000" pt_clust_7="13000.00000" pt_clust_8="13000.00000" pt_clust_9="37.01063" pt_clust_10="13000.00000"></scales>
<clustering>
<clus scale="   37.011">  2  9  1 -1</clus>
<clus scale="  103.664">  5  6 -1 -1</clus>
<clus scale="  123.871">  7  8 -1 -1</clus>
<clus scale="  179.835">  1  7  2 -1</clus>
<clus scale="  161.767">  5 10 -1 -1</clus>
<clus scale="   37.011">  2  5  1 -1</clus>
</clustering>
</event>
<event>
10    2  0.4951045E-006  0.2941121E+03  0.7546771E-02  0.1120460E+00
         21   -1    0    0  501  502  0.00000000000E+00  0.00000000000E+00  0.13883800725E+04  0.13883800725E+04  0.00000000000E+00 0. -1.
          4   -1    0    0  503    0 -0.00000000000E+00 -0.00000000000E+00 -0.49423542773E+03  0.49423542773E+03  0.00000000000E+00 0. -1.
         23    2    1    2    0    0 -0.65370468972E+02  0.62915841871E+02 -0.12958067181E+03  0.18231760885E+03  0.90646889728E+02 0.  0.
         23    2    1    2    0    0  0.10315785744E+03  0.50974123944E+02 -0.23588600136E+03  0.27780879999E+03  0.91080287925E+02 0.  0.
        -11    1    3    3    0    0 -0.66180294915E+02  0.24238463517E+01 -0.81673203463E+02  0.10514855505E+03  0.00000000000E+00 0.  1.
         11    1    3    3    0    0  0.80982594340E+00  0.60491995519E+02 -0.47907468351E+02  0.77169053796E+02  0.00000000000E+00 0. -1.
        -11    1    4    4    0    0  0.10443048647E+02  0.34811590284E+02 -0.13514422310E+03  0.13994593642E+03  0.00000000000E+00 0. -1.
         11    1    4    4    0    0  0.92714808795E+02  0.16162533660E+02 -0.10074177827E+03  0.13786286357E+03  0.00000000000E+00 0.  1.
         21    1    1    2  503  502 -0.15686998370E+03 -0.14624624789E+03  0.12796280403E+04  0.12974760415E+04  0.00000000000E+00 0. -1.
          4    1    1    2  501    0  0.11908259523E+03  0.32356282071E+02 -0.20016722304E+02  0.12501304991E+03  0.00000000000E+00 0. -1.
<scales pt_clust_5="13000.00000" pt_clust_6="13000.00000" pt_clust_7="13000.00000" pt_clust_8="13000.00000" pt_clust_9="214.61003" pt_clust_10="13000.00000"></scales>
<clustering>
<clus scale="   90.647">  5  6 -1 -1</clus>
<clus scale="   91.080">  7  8 -1 -1</clus>
<clus scale="  123.400">  7 10 -1 -1</clus>
<clus scale="  128.252">  2  5  1 -1</clus>
<clus scale="  214.610">  1  9  2 -1</clus>
<clus scale="  214.610">  1  5  2 -1</clus>
</clustering>
</event>
<event>
10    2  0.4951045E-006  0.4243440E+03  0.7546771E-02  0.1062941E+00
         -1   -1    0    0    0  501 -0.00000000000E+00  0.00000000000E+00  0.24627709168E+03  0.24627709168E+03  0.00000000000E+00 0.  1.
         21   -1    0    0  503  502  0.00000000000E+00 -0.00000000000E+00 -0.48189714291E+03  0.48189714291E+03  0.00000000000E+00 0.  1.
         23    2    1    2    0    0  0.13450526254E+03 -0.10515544824E+03  0.34695063397E+02  0.19581576821E+03  0.89390903966E+02 0.  0.
         23    2    1    2    0    0 -0.11099620182E+03  0.11816339396E+02  0.63336939338E+02  0.15833210405E+03  0.92723808120E+02 0.  0.
        -11    1    3    3    0    0  0.56739772773E+02 -0.98759230316E+02  0.29271834104E+02  0.11759943732E+03  0.00000000000E+00 0.  1.
         11    1    3    3    0    0  0.77765489764E+02 -0.63962179268E+01  0.54232292927E+01  0.78216330891E+02  0.00000000000E+00 0. -1.
        -11    1    4    4    0    0 -0.20370827071E+02 -0.34077182412E+02  0.21832790024E+01  0.39761685879E+02  0.00000000000E+00 0.  1.
         11    1    4    4    0    0 -0.90625374749E+02  0.45893521808E+02  0.61153660335E+02  0.11857041817E+03  0.00000000000E+00 0. -1.
         21    1    1    2  503  501  0.21868214924E+02  0.79688537972E+01  0.32734109552E+01  0.23503971453E+02  0.00000000000E+00 0. -1.
         -1    1    1    2    0  502 -0.45377275641E+02  0.85370255050E+02 -0.33692546492E+03  0.35052239087E+03  0.00000000000E+00 0.  1.
<scales pt_clust_5="13000.00000" pt_clust_6="13000.00000" pt_clust_7="13000.00000" pt_clust_8="13000.00000" pt_clust_9="23.27492" pt_clust_10="13000.00000"></scales>
<clustering>
<clus scale="   23.275">  2  9  1 -1</clus>
<clus scale="   89.391">  5  6 -1 -1</clus>
<clus scale="   92.724">  7  8 -1 -1</clus>
<clus scale="   95.813">  7 10 -1 -1</clus>
<clus scale="  194.613">  1  5  2 -1</clus>
<clus scale="   23.275">  2  5  1 -1</clus>
</clustering>
</event>
<event>
10    2  0.4951045E-006  0.2479859E+03  0.7546771E-02  0.1127217E+00
         21   -1    0    0  503  502  0.00000000000E+00  0.00000000000E+00  0.44022391959E+03  0.44022391959E+03  0.00000000000E+00 0. -1.
          1   -1    0    0  502    0 -0.00000000000E+00 -0.00000000000E+00 -0.23805417984E+03  0.23805417984E+03  0.00000000000E+00 0. -1.
         23    2    1    2    0    0  0.12911127808E+02  0.10432382355E+03  0.29708802455E+02  0.14402485476E+03  0.93863669565E+02 0.  0.
         23    2    1    2    0    0  0.14709097652E+02 -0.23715792108E+03 -0.28012560683E+02  0.25755893666E+03  0.95350223967E+02 0.  0.
        -11    1    4    4    0    0 -0.23560654035E+02 -0.99293196784E+01 -0.15267863855E+01  0.25613021776E+02  0.00000000000E+00 0.  1.
         11    1    4    4    0    0  0.38269751687E+02 -0.22722860140E+03 -0.26485774297E+02  0.23194591488E+03  0.00000000000E+00 0. -1.
        -11    1    3    3    0    0 -0.40271145920E+02  0.34495273701E+02  0.14162787059E+02  0.54884183867E+02  0.00000000000E+00 0.  1.
         11    1    3    3    0    0  0.53182273728E+02  0.69828549847E+02  0.15546015396E+02  0.89140670893E+02  0.00000000000E+00 0. -1.
         21    1    1    2  503  501  0.19576371130E+02  0.13421695341E+03  0.17961488004E+03  0.22507538742E+03  0.00000000000E+00 0. -1.
          1    1    1    2  501    0 -0.47196596590E+02 -0.13828558780E+01  0.20858617935E+02  0.51618920584E+02  0.00000000000E+00 0. -1.
<scales pt_clust_5="13000.00000" pt_clust_6="13000.00000" pt_clust_7="13000.00000" pt_clust_8="13000.00000" pt_clust_9="135.63711" pt_clust_10="13000.00000"></scales>
<clustering>
<clus scale="   93.864">  7  8 -1 -1</clus>
<clus scale="   95.350">  5  6 -1 -1</clus>
<clus scale="   47.217">  5 10 -1 -1</clus>
<clus scale="  135.637">  1  9  2 -1</clus>
<clus scale="  180.900">  2  7  1 -1</clus>
<clus scale="  135.637">  1  5  2 -1</clus>
</clustering>
</event>
<event>
10    2  0.4951045E-006  0.3017260E+03  0.7546771E-02  0.1092061E+00
         21   -1    0    0  501  502  0.00000000000E+00  0.00000000000E+00  0.17231191635E+03  0.17231191635E+03  0.00000000000E+00 0.  1.
          2   -1    0    0  503    0 -0.00000000000E+00 -0.00000000000E+00 -0.17218493603E+04  0.17218493603E+04  0.00000000000E+00 0. -1.
         23    2    1    2    0    0  0.20030646717E+03  0.12905872797E+03 -0.11027639494E+04  0.11322694200E+04  0.95743800410E+02 0.  0.
         23    2    1    2    0    0 -0.21600932847E+03 -0.77182707304E+02 -0.54780525995E+03  0.60093457138E+03  0.91730888758E+02 0.  0.
        -13    1    3    3    0    0  0.75014842859E+02  0.98817266183E+02 -0.63875535910E+03  0.65069231402E+03  0.00000000000E+00 0. -1.
         13    1    3    3    0    0  0.12529162431E+03  0.30241461792E+02 -0.46400859030E+03  0.48157710598E+03  0.00000000000E+00 0.  1.
        -13    1    4    4    0    0 -0.12658448558E+03 -0.20529791591E+02 -0.39301419061E+03  0.41340689200E+03  0.00000000000E+00 0.  1.
         13    1    4    4    0    0 -0.89424842882E+02 -0.56652915714E+02 -0.15479106934E+03  0.18752767937E+03  0.00000000000E+00 0. -1.
         21    1    1    2  503  502 -0.97357856249E+01 -0.57529074668E+02  0.11675473582E+03  0.13052221378E+03  0.00000000000E+00 0.  1.
          2    1    1    2  501    0  0.25438646923E+02  0.56530539983E+01 -0.15722970399E+02  0.30435071463E+02  0.00000000000E+00 0. -1.
<scales pt_clust_5="13000.00000" pt_clust_6="13000.00000" pt_clust_7="13000.00000" pt_clust_8="13000.00000" pt_clust_9="58.34706" pt_clust_10="13000.00000"></scales>
<clustering>
<clus scale="   58.347">  1  9  2 -1</clus>
<clus scale="   91.731">  7  8 -1 -1</clus>
<clus scale="   24.159">  7 10 -1 -1</clus>
<clus scale="   95.744">  5  6 -1 -1</clus>
<clus scale="  246.121">  2  5  1 -1</clus>
<clus scale="   58.347">  1  5  2 -1</clus>
</clustering>
</event>
<event>
10    2  0.4951045E-006  0.3096642E+03  0.7546771E-02  0.1102496E+00
         21   -1    0    0  503  502  0.00000000000E+00  0.00000000000E+00  0.42828785145E+03  0.42828785145E+03  0.00000000000E+00 0. -1.
          2   -1    0    0  502    0 -0.00000000000E+00 -0.00000000000E+00 -0.24104318493E+03  0.24104318493E+03  0.00000000000E+00 0. -1.
         23    2    1    2    0    0  0.92318877550E+02  0.11209049672E+03 -0.10715351342E+03  0.20224212946E+03  0.91284987171E+02 0.  0.
         23    2    1    2    0    0  0.63476518819E+02 -0.54498372976E+02  0.24856750692E+02  0.12756850972E+03  0.93040450983E+02 0.  0.
        -11    1    4    4    0    0  0.39210109202E+02  0.80094565021E+01 -0.22092691668E+02  0.45712920299E+02  0.00000000000E+00 0. -1.
         11    1    4    4    0    0  0.24266409616E+02 -0.62507829479E+02  0.46949442360E+02  0.81855589422E+02  0.00000000000E+00 0.  1.
        -13    1    3    3    0    0  0.30763467293E+02 -0.55045229946E+01  0.63221445118E+00  0.31258445073E+02  0.00000000000E+00 0.  1.
         13    1    3    3    0    0  0.61555410258E+02  0.11759501971E+03 -0.10778572787E+03  0.17098368439E+03  0.00000000000E+00 0. -1.
         21    1    1    2  503  501 -0.78262755107E+01  0.27412329297E+02  0.77697924950E+02  0.82762636059E+02  0.00000000000E+00 0. -1.
          2    1    1    2  501    0 -0.14796912086E+03 -0.85004453038E+02  0.19184350429E+03  0.25675776114E+03  0.00000000000E+00 0. -1.
<scales pt_clust_5="13000.00000" pt_clust_6="13000.00000" pt_clust_7="13000.00000" pt_clust_8="13000.00000" pt_clust_9="28.50765" pt_clust_10="13000.00000"></scales>
<clustering>
<clus scale="   28.508">  1  9  2 -1</clus>
<clus scale="   91.285">  7  8 -1 -1</clus>
<clus scale="   93.040">  5  6 -1 -1</clus>
<clus scale="  167.175">  5 10 -1 -1</clus>
<clus scale="  173.428">  2  7  1 -1</clus>
<clus scale="   28.508">  1  5  2 -1</clus>
</clustering>
</event>
<event>
10    2  0.4951045E-006  0.1716099E+03  0.7546771E-02  0.1199928E+00
          4   -1    0    0  503    0 -0.00000000000E+00  0.00000000000E+00  0.31378693096E+03  0.31378693096E+03  0.00000000000E+00 0. -1.
         21   -1    0    0  501  502  0.00000000000E+00 -0.00000000000E+00 -0.31217629727E+03  0.31217629727E+03  0.00000000000E+00 0. -1.
         23    2    1    2    0    0  0.10080595064E+02 -0.25777098750E+02  0.16705860947E+01  0.95647185122E+02  0.91539696018E+02 0.  0.
         23    2    1    2    0    0  0.95886582204E+02 -0.10530507621E+02  0.11869658628E+03  0.17786128186E+03  0.90777903451E+02 0.  0.
        -11    1    4    4    0    0 -0.15563707001E+02 -0.12834936132E+02  0.11565192099E+02  0.23253348778E+02  0.00000000000E+00 0. -1.
         11    1    4    4    0    0  0.11145028920E+03  0.23044285103E+01  0.10713139418E+03  0.15460793309E+03  0.00000000000E+00 0.  1.
        -11    1    3    3    0    0 -0.21821893944E+02  0.20307788201E+02  0.20882512073E+02  0.36396162262E+02  0.00000000000E+00 0.  1.
         11    1    3    3    0    0  0.31902489008E+02 -0.46084886951E+02 -0.19211925978E+02  0.59251022860E+02  0.00000000000E+00 0. -1.
         21    1    1    2  503  502 -0.83192955300E+02  0.12005384497E+02 -0.22548929027E+03  0.24064624887E+03  0.00000000000E+00 0. -1.
          4    1    1    2  501    0 -0.22774221967E+02  0.24302221874E+02  0.10673275160E+03  0.11180851237E+03  0.00000000000E+00 0. -1.
<scales pt_clust_5="13000.00000" pt_clust_6="13000.00000" pt_clust_7="13000.00000" pt_clust_8="13000.00000" pt_clust_9="84.05473" pt_clust_10="13000.00000"></scales>
<clustering>
<clus scale="   84.055">  2  9  1 -1</clus>
<clus scale="   90.778">  5  6 -1 -1</clus>
<clus scale="   35.452">  5 10 -1 -1</clus>
<clus scale="   91.540">  7  8 -1 -1</clus>
<clus scale="  101.362">  1  7  2 -1</clus>
<clus scale="   84.055">  2  5  1 -1</clus>
</clustering>
</event>
<event>
10    2  0.4951045E-006  0.2632052E+03  0.7546771E-02  0.1142461E+00
         21   -1    0    0  503  502  0.00000000000E+00  0.00000000000E+00  0.58525162437E+03  0.58525162437E+03  0.00000000000E+00 0.  1.
         -3   -1    0    0    0  501 -0.00000000000E+00 -0.00000000000E+00 -0.73395160343E+02  0.73395160343E+02  0.00000000000E+00 0.  1.
         23    2    1    2    0    0  0.56035525793E+02 -0.74854411386E+01  0.67736591164E+02  0.12676541912E+03  0.91023149377E+02 0.  0.
         23    2    1    2    0    0 -0.97299304295E+02  0.32530310245E+02  0.98197971778E+02  0.16894773724E+03  0.91515684764E+02 0.  0.
        -11    1    3    3    0    0 -0.18820990072E+01 -0.35453338847E+02  0.47575877571E+02  0.59362830616E+02  0.00000000000E+00 0. -1.
         11    1    3    3    0    0  0.57917624800E+02  0.27967897708E+02  0.20160713593E+02  0.67402588506E+02  0.00000000000E+00 0.  1.
        -13    1    4    4    0    0 -0.10306686820E+03  0.52910690433E+02  0.87717990569E+02  0.14531609117E+03  0.00000000000E+00 0.  1.
         13    1    4    4    0    0  0.57675639087E+01 -0.20380380188E+02  0.10479981209E+02  0.23631646075E+02  0.00000000000E+00 0. -1.
         21    1    1    2  503  501 -0.27176899191E+02  0.12931931001E+02  0.71715550499E+02  0.77774924444E+02  0.00000000000E+00 0.  1.
         -3    1    1    2    0  502  0.68440677692E+02 -0.37976800107E+02  0.27420635059E+03  0.28515870390E+03  0.00000000000E+00 0.  1.
<scales pt_clust_5="13000.00000" pt_clust_6="13000.00000" pt_clust_7="13000.00000" pt_clust_8="13000.00000" pt_clust_9="30.09682" pt_clust_10="13000.00000"></scales>
<clustering>
<clus scale="   30.097">  1  9  2 -1</clus>
<clus scale="   91.023">  5  6 -1 -1</clus>
<clus scale="   91.516">  7  8 -1 -1</clus>
<clus scale="   61.823">  7 10 -1 -1</clus>
<clus scale="  104.389">  2  5  1 -1</clus>
<clus scale="   30.097">  1  5  2 -1</clus>
</clustering>
</event>
<event>
10    2  0.4951045E-006  0.2077901E+03  0.7546771E-02  0.1151084E+00
          1   -1    0    0  502    0 -0.00000000000E+00  0.00000000000E+00  0.98704484482E+02  0.98704484482E+02  0.00000000000E+00 0. -1.
         21   -1    0    0  503  502  0.00000000000E+00 -0.00000000000E+00 -0.66255092495E+03  0.66255092495E+03  0.00000000000E+00 0. -1.
         23    2    1    2    0    0 -0.46879964776E+02  0.13569048186E+03 -0.38666880570E+02  0.17413549991E+03  0.90655428483E+02 0.  0.
         23    2    1    2    0    0 -0.19404461149E+02 -0.10706484165E+03 -0.21793122690E+03  0.26062490364E+03  0.92692541816E+02 0.  0.
        -13    1    4    4    0    0  0.32421448122E+02 -0.38334334421E+02 -0.12092276944E+03  0.13093123258E+03  0.00000000000E+00 0.  1.
         13    1    4    4    0    0 -0.51825909271E+02 -0.68730507226E+02 -0.97008457455E+02  0.12969367106E+03  0.00000000000E+00 0. -1.
        -13    1    3    3    0    0  0.24034404954E+02  0.25303728364E+02 -0.23467962926E+02  0.42055636656E+02  0.00000000000E+00 0.  1.
         13    1    3    3    0    0 -0.70914369730E+02  0.11038675349E+03 -0.15198917644E+02  0.13207986326E+03  0.00000000000E+00 0. -1.
         21    1    1    2  503  501  0.12503291387E+02  0.21456656534E+02 -0.16011706919E+03  0.16203146685E+03  0.00000000000E+00 0. -1.
          1    1    1    2  501    0  0.53781134537E+02 -0.50082296743E+02 -0.14713126381E+03  0.16446353903E+03  0.00000000000E+00 0. -1.
<scales pt_clust_5="13000.00000" pt_clust_6="13000.00000" pt_clust_7="13000.00000" pt_clust_8="13000.00000" pt_clust_9="24.83386" pt_clust_10="13000.00000"></scales>
<clustering>
<clus scale="   24.834">  2  9  1 -1</clus>
<clus scale="   90.655">  7  8 -1 -1</clus>
<clus scale="   92.693">  5  6 -1 -1</clus>
<clus scale="   72.182">  5 10 -1 -1</clus>
<clus scale="  172.750">  1  7  2 -1</clus>
<clus scale="   24.834">  2  5  1 -1</clus>
</clustering>
</event>
<event>
10    2  0.4951045E-006  0.4635960E+03  0.7546771E-02  0.1024650E+00
         21   -1    0    0  503  502  0.00000000000E+00  0.00000000000E+00  0.18287258008E+03  0.18287258008E+03  0.00000000000E+00 0. -1.
          2   -1    0    0  502    0 -0.00000000000E+00 -0.00000000000E+00 -0.19233379049E+04  0.19233379049E+04  0.00000000000E+00 0. -1.
         23    2    1    2    0    0 -0.22221571289E+03  0.38376103171E+03 -0.58074551513E+03  0.73666312004E+03  0.93567337079E+02 0.  0.
         23    2    1    2    0    0  0.19667979357E+03 -0.24249775922E+03 -0.96444700590E+03  0.10178964525E+04  0.92016609037E+02 0.  0.
        -11    1    3    3    0    0 -0.95608168917E+02  0.92604785638E+02 -0.13677491316E+03  0.19085058333E+03  0.00000000000E+00 0.  1.
         11    1    3    3    0    0 -0.12660754397E+03  0.29115624608E+03 -0.44397060197E+03  0.54581253671E+03  0.00000000000E+00 0. -1.
        -11    1    4    4    0    0 -0.70260707009E+01 -0.26090197048E+02 -0.58329167889E+02  0.64283402820E+02  0.00000000000E+00 0.  1.
         11    1    4    4    0    0  0.20370586427E+03 -0.21640756217E+03 -0.90611783801E+03  0.95361304965E+03  0.00000000000E+00 0. -1.
         21    1    1    2  503  501 -0.38027033348E+02 -0.27649850929E+02  0.53285750159E+02  0.71062934724E+02  0.00000000000E+00 0. -1.
          2    1    1    2  501    0  0.63562952669E+02 -0.11361342156E+03 -0.24855855392E+03  0.28058797771E+03  0.00000000000E+00 0. -1.
<scales pt_clust_5="13000.00000" pt_clust_6="13000.00000" pt_clust_7="13000.00000" pt_clust_8="13000.00000" pt_clust_9="47.01669" pt_clust_10="13000.00000"></scales>
<clustering>
<clus scale="   47.017">  1  9  2 -1</clus>
<clus scale="   92.017">  7  8 -1 -1</clus>
<clus scale="   93.567">  5  6 -1 -1</clus>
<clus scale="  131.070">  7 10 -1 -1</clus>
<clus scale="  451.152">  2  5  1 -1</clus>
<clus scale="   47.017">  1  5  2 -1</clus>
</clustering>
</event>
<event>
10    2  0.4951045E-006  0.2892917E+03  0.7546771E-02  0.1126343E+00
          4   -1    0    0  503    0 -0.00000000000E+00  0.00000000000E+00  0.78881049762E+02  0.78881049762E+02  0.00000000000E+00 0. -1.
         21   -1    0    0  501  502  0.00000000000E+00 -0.00000000000E+00 -0.61275403003E+03  0.61275403003E+03  0.00000000000E+00 0. -1.
         23    2    1    2    0    0 -0.20510911180E+02  0.61783512147E+02 -0.20871884148E+03  0.23628300366E+03  0.89600240962E+02 0.  0.
         23    2    1    2    0    0  0.60546444017E+02 -0.18520447398E+02  0.41317690006E+01  0.11034503949E+03  0.90277778943E+02 0.  0.
        -13    1    3    3    0    0 -0.16415466551E+02  0.83720224489E+02 -0.18495731943E+03  0.20368542791E+03  0.00000000000E+00 0. -1.
         13    1    3    3    0    0 -0.40954446294E+01 -0.21936712341E+02 -0.23761522047E+02  0.32597575754E+02  0.00000000000E+00 0.  1.
        -13    1    4    4    0    0 -0.18100769993E+01  0.27571900113E+02 -0.13606226545E+02  0.30799601546E+02  0.00000000000E+00 0.  1.
         13    1    4    4    0    0  0.62356521017E+02 -0.46092347512E+02  0.17737995545E+02  0.79545437948E+02  0.00000000000E+00 0. -1.
         21    1    1    2  503  502 -0.12255577314E+02  0.21000374610E+02 -0.35733734384E+02  0.43221692263E+02  0.00000000000E+00 0.  1.
          4    1    1    2  501    0 -0.27779955524E+02 -0.64263439358E+02 -0.29355217341E+03  0.30178534438E+03  0.00000000000E+00 0. -1.
<scales pt_clust_5="13000.00000" pt_clust_6="13000.00000" pt_clust_7="13000.00000" pt_clust_8="13000.00000" pt_clust_9="24.31491" pt_clust_10="13000.00000"></scales>
<clustering>
<clus scale="   24.315">  2  9  1 -1</clus>
<clus scale="   89.600">  5  6 -1 -1</clus>
<clus scale="   90.278">  7  8 -1 -1</clus>
<clus scale="   63.348">  7 10 -1 -1</clus>
<clus scale="  116.437">  1  5  2 -1</clus>
<clus scale="   24.315">  2  5  1 -1</clus>
</clustering>
</event>
<event>
10    2  0.4951045E-006  0.1241196E+03  0.7546771E-02  0.1251981E+00
          1   -1    0    0  502    0 -0.00000000000E+00  0.00000000000E+00  0.53176562923E+03  0.53176562923E+03  0.00000000000E+00 0. -1.
         21   -1    0    0  503  502  0.00000000000E+00 -0.00000000000E+00 -0.39497070142E+03  0.39497070142E+03  0.00000000000E+00 0.  1.
         23    2    1    2    0    0  0.24267154519E+02 -0.11686318953E+02 -0.62854059430E+01  0.92162602999E+02  0.87914584822E+02 0.  0.
         23    2    1    2    0    0  0.47911182718E+02  0.14906426760E+02  0.38832087728E+03  0.40207816329E+03  0.91411501882E+02 0.  0.
        -11    1    3    3    0    0  0.37983052355E+02  0.28102531986E+02  0.75752682052E+01  0.47852369414E+02  0.00000000000E+00 0.  1.
         11    1    3    3    0    0 -0.13715897835E+02 -0.39788850939E+02 -0.13860674148E+02  0.44310233584E+02  0.00000000000E+00 0. -1.
        -13    1    4    4    0    0  0.21953265615E+02  0.50616979590E+02  0.15281136996E+03  0.16246642510E+03  0.00000000000E+00 0.  1.
         13    1    4    4    0    0  0.25957917104E+02 -0.35710552830E+02  0.23550950732E+03  0.23961173820E+03  0.00000000000E+00 0. -1.
         21    1    1    2  503  501 -0.51865893828E+02  0.23160173637E+01 -0.33566306726E+03  0.33965442673E+03  0.00000000000E+00 0.  1.
          1    1    1    2  501    0 -0.20312443409E+02 -0.55361251711E+01  0.90422523724E+02  0.92841137626E+02  0.00000000000E+00 0. -1.
<scales pt_clust_5="13000.00000" pt_clust_6="13000.00000" pt_clust_7="13000.00000" pt_clust_8="13000.00000" pt_clust_9="51.91758" pt_clust_10="13000.00000"></scales>
<clustering>
<clus scale="   51.918">  2  9  1 -1</clus>
<clus scale="   87.915">  5  6 -1 -1</clus>
<clus scale="   90.743">  1  5  2 -1</clus>
<clus scale="   91.412">  7  8 -1 -1</clus>
<clus scale="   26.792">  7 10 -1 -1</clus>
<clus scale="   51.918">  2  5  1 -1</clus>
</clustering>
</event>
<event>
10    2  0.4951045E-006  0.1632210E+03  0.7546771E-02  0.1212023E+00
          2   -1    0    0  502    0 -0.00000000000E+00  0.00000000000E+00  0.45827540926E+03  0.45827540926E+03  0.00000000000E+00 0. -1.
         21   -1    0    0  503  502  0.00000000000E+00 -0.00000000000E+00 -0.92546061655E+02  0.92546061655E+02  0.00000000000E+00 0. -1.
         23    2    1    2    0    0  0.14341494942E+02 -0.21496555313E+02  0.27160198400E+03  0.28702148935E+03  0.89139874753E+02 0.  0.
         23    2    1    2    0    0  0.12634477506E+02 -0.87092236124E+02  0.73823047545E+02  0.14565460800E+03  0.89558555526E+02 0.  0.
        -11    1    4    4    0    0  0.48853212114E+02 -0.66540482292E+02  0.58943410037E+02  0.10143272502E+03  0.00000000000E+00 0.  1.
         11    1    4    4    0    0 -0.36218734609E+02 -0.20551753832E+02  0.14879637509E+02  0.44221882984E+02  0.00000000000E+00 0. -1.
        -11    1    3    3    0    0 -0.69995054349E+01 -0.53123245908E+02  0.17958358934E+03  0.18740687792E+03  0.00000000000E+00 0.  1.
         11    1    3    3    0    0  0.21341000377E+02  0.31626690595E+02  0.92018394662E+02  0.99614611435E+02  0.00000000000E+00 0. -1.
         21    1    1    2  503  501 -0.14131462985E+02  0.67458686634E+02 -0.33240613854E+01  0.69003058140E+02  0.00000000000E+00 0. -1.
          2    1    1    2  501    0 -0.12844509462E+02  0.41130104802E+02  0.23628377449E+02  0.49142315424E+02  0.00000000000E+00 0. -1.
<scales pt_clust_5="13000.00000" pt_clust_6="13000.00000" pt_clust_7="13000.00000" pt_clust_8="13000.00000" pt_clust_9="68.92295" pt_clust_10="13000.00000"></scales>
<clustering>
<clus scale="   68.923">  2  9  1 -1</clus>
<clus scale="   89.140">  7  8 -1 -1</clus>
<clus scale="   89.559">  5  6 -1 -1</clus>
<clus scale="   58.630">  5 10 -1 -1</clus>
<clus scale="   90.832">  1  7  2 -1</clus>
<clus scale="   68.923">  2  5  1 -1</clus>
</clustering>
</event>
<event>
10    2  0.4951045E-006  0.3740390E+03  0.7546771E-02  0.1096627E+00
          1   -1    0    0  503    0 -0.00000000000E+00  0.00000000000E+00  0.66273138624E+03  0.66273138624E+03  0.00000000000E+00 0. -1.
         21   -1    0    0  501  502  0.00000000000E+00 -0.00000000000E+00 -0.40698010616E+03  0.40698010616E+03  0.00000000000E+00 0. -1.
         23    2    1    2    0    0 -0.18379638843E+02 -0.68675835020E+02  0.13240667852E+03  0.17549136276E+03  0.90617373877E+02 0.  0.
         23    2    1    2    0    0 -0.10307886271E+03  0.95853586299E+02  0.46809557677E+03  0.49727564766E+03  0.91413559309E+02 0.  0.
        -11    1    3    3    0    0  0.81753997158E+01 -0.61220543829E+02  0.13432347109E+03  0.14784311629E+03  0.00000000000E+00 0.  1.
         11    1    3    3    0    0 -0.26555038559E+02 -0.74552911903E+01 -0.19167925698E+01  0.27648246479E+02  0.00000000000E+00 0. -1.
        -13    1    4    4    0    0 -0.38280947909E+02  0.95614353171E+02  0.28157918569E+03  0.29982390385E+03  0.00000000000E+00 0.  1.
         13    1    4    4    0    0 -0.64797914797E+02  0.23923312781E+00  0.18651639107E+03  0.19745174381E+03  0.00000000000E+00 0. -1.
         21    1    1    2  503  502  0.52112337056E+02 -0.52488729978E+01 -0.31339656170E+03  0.31774305851E+03  0.00000000000E+00 0. -1.
          1    1    1    2  501    0  0.69346164494E+02 -0.21928878281E+02 -0.31354413504E+02  0.79201423465E+02  0.00000000000E+00 0. -1.
<scales pt_clust_5="13000.00000" pt_clust_6="13000.00000" pt_clust_7="13000.00000" pt_clust_8="13000.00000" pt_clust_9="52.37601" pt_clust_10="13000.00000"></scales>
<clustering>
<clus scale="   52.376">  2  9  1 -1</clus>
<clus scale="   90.617">  5  6 -1 -1</clus>
<clus scale="   91.414">  7  8 -1 -1</clus>
<clus scale="  103.937">  7 10 -1 -1</clus>
<clus scale="  114.615">  1  5  2 -1</clus>
<clus scale="   52.376">  2  5  1 -1</clus>
</clustering>
</event>
<event>
10    2  0.4951045E-006  0.5393756E+03  0.7546771E-02  0.1050921E+00
         21   -1    0    0  501  502  0.00000000000E+00  0.00000000000E+00  0.55146560079E+03  0.55146560079E+03  0.00000000000E+00 0.  1.
          1   -1    0    0  503    0 -0.00000000000E+00 -0.00000000000E+00 -0.45168165255E+03  0.45168165255E+03  0.00000000000E+00 0. -1.
         23    2    1    2    0    0 -0.90819172140E+01  0.86398099597E+02 -0.35426545903E+02  0.13038910020E+03  0.90549237776E+02 0.  0.
         23    2    1    2    0    0  0.47912816531E+02 -0.98566933174E+02 -0.33886962838E+03  0.36735344164E+03  0.90026927893E+02 0.  0.
        -11    1    4    4    0    0  0.28156599697E+02  0.46968358804E+01 -0.13483807946E+03  0.13782656510E+03  0.00000000000E+00 0. -1.
         11    1    4    4    0    0  0.19756216835E+02 -0.10326376905E+03 -0.20403154892E+03  0.22952687655E+03  0.00000000000E+00 0.  1.
        -13    1    3    3    0    0 -0.49710282464E+02  0.46597752062E+02 -0.13659362922E+02  0.69491300717E+02  0.00000000000E+00 0.  1.
         13    1    3    3    0    0  0.40628365250E+02  0.39800347534E+02 -0.21767182981E+02  0.60897799481E+02  0.00000000000E+00 0. -1.
         21    1    1    2  503  502 -0.10042592665E+03  0.38980786844E+02  0.27846249175E+03  0.29857365557E+03  0.00000000000E+00 0.  1.
          1    1    1    2  501    0  0.61595027333E+02 -0.26811953267E+02  0.19561763077E+03  0.20683105593E+03  0.00000000000E+00 0. -1.
<scales pt_clust_5="13000.00000" pt_clust_6="13000.00000" pt_clust_7="13000.00000" pt_clust_8="13000.00000" pt_clust_9="107.72590" pt_clust_10="13000.00000"></scales>
<clustering>
<clus scale="   90.027">  5  6 -1 -1</clus>
<clus scale="   67.178">  5 10 -1 -1</clus>
<clus scale="   90.549">  7  8 -1 -1</clus>
<clus scale="  107.726">  1  9  2 -1</clus>
<clus scale="  132.930">  2  7  1 -1</clus>
<clus scale="  107.726">  1  5  2 -1</clus>
</clustering>
</event>
<event>
10    2  0.4951045E-006  0.2842968E+03  0.7546771E-02  0.1135989E+00
         21   -1    0    0  501  502  0.00000000000E+00  0.00000000000E+00  0.24176971972E+03  0.24176971972E+03  0.00000000000E+00 0. -1.
          3   -1    0    0  503    0 -0.00000000000E+00 -0.00000000000E+00 -0.30256044458E+03  0.30256044458E+03  0.00000000000E+00 0. -1.
         23    2    1    2    0    0  0.73567135983E+01 -0.33482404620E+02 -0.49771600708E+02  0.10861947955E+03  0.90254010691E+02 0.  0.
         23    2    1    2    0    0  0.36759587890E+00  0.32173097250E+02 -0.20997824532E+03  0.23043788904E+03  0.89305732652E+02 0.  0.
        -11    1    3    3    0    0  0.37611234423E+01 -0.62314731133E+02 -0.16752908578E+02  0.64636922200E+02  0.00000000000E+00 0.  1.
         11    1    3    3    0    0  0.35955901560E+01  0.28832326513E+02 -0.33018692130E+02  0.43982557346E+02  0.00000000000E+00 0. -1.
        -13    1    4    4    0    0 -0.31753065674E+02 -0.29322257570E+01 -0.28310426243E+02  0.42641943690E+02  0.00000000000E+00 0.  1.
         13    1    4    4    0    0  0.32120661553E+02  0.35105323007E+02 -0.18166781908E+03  0.18779594535E+03  0.00000000000E+00 0. -1.
         21    1    1    2  503  502 -0.27884280681E+02 -0.68282384302E+01  0.11855565286E+03  0.12198196905E+03  0.00000000000E+00 0. -1.
          3    1    1    2  501    0  0.20159971204E+02  0.81375458000E+01  0.80403468309E+02  0.83290826666E+02  0.00000000000E+00 0. -1.
<scales pt_clust_5="13000.00000" pt_clust_6="13000.00000" pt_clust_7="13000.00000" pt_clust_8="13000.00000" pt_clust_9="28.70815" pt_clust_10="13000.00000"></scales>
<clustering>
<clus scale="   28.708">  1  9  2 -1</clus>
<clus scale="   89.306">  7  8 -1 -1</clus>
<clus scale="    3.796">  7 10 -1 -1</clus>
<clus scale="   90.254">  5  6 -1 -1</clus>
<clus scale="   96.854">  2  5  1 -1</clus>
<clus scale="   28.708">  1  5  2 -1</clus>
</clustering>
</event>
<event>
10    2  0.4951045E-006  0.2391934E+03  0.7546771E-02  0.1144243E+00
         21   -1    0    0  503  502  0.00000000000E+00  0.00000000000E+00  0.16893894540E+03  0.16893894540E+03  0.00000000000E+00 0. -1.
         -3   -1    0    0    0  501 -0.00000000000E+00 -0.00000000000E+00 -0.30164456472E+03  0.30164456472E+03  0.00000000000E+00 0.  1.
         23    2    1    2    0    0  0.66547991233E+01  0.89035175260E+02  0.20074012883E+01  0.12756455982E+03  0.91088629787E+02 0.  0.
         23    2    1    2    0    0  0.92783831943E+02 -0.82324708397E+02 -0.13766589618E+03  0.20639057199E+03  0.90878887275E+02 0.  0.
        -13    1    3    3    0    0 -0.38671267791E+02  0.44355696828E+02 -0.16802150994E+02  0.61198096962E+02  0.00000000000E+00 0.  1.
         13    1    3    3    0    0  0.45326066915E+02  0.44679478432E+02  0.18809552283E+02  0.66366462856E+02  0.00000000000E+00 0. -1.
        -13    1    4    4    0    0  0.73117648331E+02 -0.97795663554E+02 -0.13367826599E+03  0.18105264733E+03  0.00000000000E+00 0.  1.
         13    1    4    4    0    0  0.19666183612E+02  0.15470955156E+02 -0.39876301837E+01  0.25337924654E+02  0.00000000000E+00 0. -1.
         21    1    1    2  503  501 -0.17998771691E+02  0.16150054372E+02  0.38020980161E+02  0.45059682323E+02  0.00000000000E+00 0. -1.
         -3    1    1    2    0  502 -0.81439859376E+02 -0.22860521235E+02 -0.35068104601E+02  0.91568695997E+02  0.00000000000E+00 0.  1.
<scales pt_clust_5="13000.00000" pt_clust_6="13000.00000" pt_clust_7="13000.00000" pt_clust_8="13000.00000" pt_clust_9="24.18223" pt_clust_10="13000.00000"></scales>
<clustering>
<clus scale="   24.182">  1  9  2 -1</clus>
<clus scale="   90.879">  7  8 -1 -1</clus>
<clus scale="   87.579">  7 10 -1 -1</clus>
<clus scale="   91.089">  5  6 -1 -1</clus>
<clus scale="  133.269">  2  5  1 -1</clus>
<clus scale="   24.182">  1  5  2 -1</clus>
</clustering>
</event>
<event>
10    2  0.4951045E-006  0.3255275E+03  0.7546771E-02  0.1113829E+00
          2   -1    0    0  502    0 -0.00000000000E+00  0.00000000000E+00  0.15468484695E+03  0.15468484695E+03  0.00000000000E+00 0. -1.
         21   -1    0    0  503  502  0.00000000000E+00 -0.00000000000E+00 -0.37524380030E+03  0.37524380030E+03  0.00000000000E+00 0.  1.
         23    2    1    2    0    0  0.12673855418E+01 -0.66690800675E+02 -0.86486936186E+02  0.13997805535E+03  0.87547682369E+02 0.  0.
         23    2    1    2    0    0 -0.38402765503E+02  0.15923416563E+03  0.30724278829E+02  0.19083185357E+03  0.92965171570E+02 0.  0.
        -13    1    4    4    0    0 -0.13173287394E+02  0.16227923190E+03  0.28858952748E+02  0.16535091097E+03  0.00000000000E+00 0.  1.
         13    1    4    4    0    0 -0.25229478109E+02 -0.30450662670E+01  0.18653260809E+01  0.25480942596E+02  0.00000000000E+00 0. -1.
        -13    1    3    3    0    0  0.21533995104E+02  0.38561494209E-01  0.76240717011E+01  0.22843837275E+02  0.00000000000E+00 0.  1.
         13    1    3    3    0    0 -0.20266609563E+02 -0.66729362169E+02 -0.94111007887E+02  0.11713421808E+03  0.00000000000E+00 0. -1.
         21    1    1    2  503  501  0.22588455615E+02 -0.62350626745E+01 -0.45236285040E+02  0.50945419989E+02  0.00000000000E+00 0.  1.
          2    1    1    2  501    0  0.14546924345E+02 -0.86308302283E+02 -0.11956001095E+03  0.14817331835E+03  0.00000000000E+00 0. -1.
<scales pt_clust_5="13000.00000" pt_clust_6="13000.00000" pt_clust_7="13000.00000" pt_clust_8="13000.00000" pt_clust_9="23.43319" pt_clust_10="13000.00000"></scales>
<clustering>
<clus scale="   23.433">  2  9  1 -1</clus>
<clus scale="   87.548">  7  8 -1 -1</clus>
<clus scale="   92.965">  5  6 -1 -1</clus>
<clus scale="   91.989">  5 10 -1 -1</clus>
<clus scale="  111.747">  1  7  2 -1</clus>
<clus scale="   23.433">  2  5  1 -1</clus>
</clustering>
</event>
<event>
10    2  0.4951045E-006  0.3337533E+03  0.7546771E-02  0.1109283E+00
          1   -1    0    0  503    0 -0.00000000000E+00  0.00000000000E+00  0.75017087946E+03  0.75017087946E+03  0.00000000000E+00 0. -1.
         21   -1    0    0  501  502  0.00000000000E+00 -0.00000000000E+00 -0.10311498093E+03  0.10311498093E+03  0.00000000000E+00 0. -1.
         23    2    1    2    0    0  0.37580366483E+02 -0.41190225984E+02  0.25619359675E+03  0.28061257825E+03  0.99996706897E+02 0.  0.
         23    2    1    2    0    0 -0.19116418032E+02 -0.39204518870E+01  0.43182136251E+03  0.44189884279E+03  0.91782845704E+02 0.  0.
        -11    1    4    4    0    0 -0.52258241667E+02 -0.16799882759E+02  0.31635083273E+03  0.32107788658E+03  0.00000000000E+00 0.  1.
         11    1    4    4    0    0  0.33141823635E+02  0.12879430872E+02  0.11547052977E+03  0.12082095621E+03  0.00000000000E+00 0. -1.
        -13    1    3    3    0    0 -0.28843270252E+02 -0.49045127335E+01  0.29211681714E+02  0.41343812506E+02  0.00000000000E+00 0.  1.
         13    1    3    3    0    0  0.66423636735E+02 -0.36285713251E+02  0.22698191504E+03  0.23926876574E+03  0.00000000000E+00 0. -1.
         21    1    1    2  503  502 -0.10905882103E+02 -0.38554011870E+02 -0.15956263017E+02  0.43127165745E+02  0.00000000000E+00 0. -1.
          1    1    1    2  501    0 -0.75580663481E+01  0.83664689741E+02 -0.25002797712E+02  0.87647273601E+02  0.00000000000E+00 0. -1.
<scales pt_clust_5="13000.00000" pt_clust_6="13000.00000" pt_clust_7="13000.00000" pt_clust_8="13000.00000" pt_clust_9="40.06682" pt_clust_10="13000.00000"></scales>
<clustering>
<clus scale="   40.067">  2  9  1 -1</clus>
<clus scale="   91.783">  5  6 -1 -1</clus>
<clus scale="   56.437">  5 10 -1 -1</clus>
<clus scale="   99.997">  7  8 -1 -1</clus>
<clus scale="  116.377">  1  7  2 -1</clus>
<clus scale="   40.067">  2  5  1 -1</clus>
</clustering>
</event>
<event>
10    2  0.4951045E-006  0.1554533E+03  0.7546771E-02  0.1214439E+00
          2   -1    0    0  503    0 -0.00000000000E+00  0.00000000000E+00  0.12190013776E+03  0.12190013776E+03  0.00000000000E+00 0. -1.
         21   -1    0    0  501  502  0.00000000000E+00 -0.00000000000E+00 -0.23179337145E+03  0.23179337145E+03  0.00000000000E+00 0.  1.
         23    2    1    2    0    0 -0.14085242787E+02 -0.45127716063E+02  0.27515585128E+02  0.10676995851E+03  0.91694120826E+02 0.  0.
         23    2    1    2    0    0  0.31774264588E+01  0.47251762954E+02 -0.49152202614E+01  0.10031047248E+03  0.88290465832E+02 0.  0.
        -11    1    4    4    0    0 -0.29239942249E+02  0.10183479458E+02 -0.31650935130E+02  0.44277072749E+02  0.00000000000E+00 0.  1.
         11    1    4    4    0    0  0.32417368708E+02  0.37068283496E+02  0.26735714869E+02  0.56033399726E+02  0.00000000000E+00 0. -1.
        -13    1    3    3    0    0  0.64989576862E+01 -0.22215099360E+02  0.58602645960E+02  0.63008072531E+02  0.00000000000E+00 0. -1.
         13    1    3    3    0    0 -0.20584200473E+02 -0.22912616703E+02 -0.31087060832E+02  0.43761885980E+02  0.00000000000E+00 0.  1.
         21    1    1    2  503  502  0.22817721149E+02  0.24484792047E+02 -0.75922816274E+02  0.82972450073E+02  0.00000000000E+00 0.  1.
          2    1    1    2  501    0 -0.11909904821E+02 -0.26608838939E+02 -0.56570782288E+02  0.63640628149E+02  0.00000000000E+00 0. -1.
<scales pt_clust_5="13000.00000" pt_clust_6="13000.00000" pt_clust_7="13000.00000" pt_clust_8="13000.00000" pt_clust_9="33.46869" pt_clust_10="13000.00000"></scales>
<clustering>
<clus scale="   33.469">  2  9  1 -1</clus>
<clus scale="   88.290">  5  6 -1 -1</clus>
<clus scale="   17.196">  5 10 -1 -1</clus>
<clus scale="   91.694">  7  8 -1 -1</clus>
<clus scale="   99.882">  1  7  2 -1</clus>
<clus scale="   33.469">  2  5  1 -1</clus>
</clustering>
</event>
<event>
10    2  0.4951045E-006  0.1814597E+03  0.7546771E-02  0.1193228E+00
         -1   -1    0    0    0  501 -0.00000000000E+00  0.00000000000E+00  0.28009851607E+03  0.28009851607E+03  0.00000000000E+00 0.  1.
         21   -1    0    0  503  502  0.00000000000E+00 -0.00000000000E+00 -0.24095212801E+03  0.24095212801E+03  0.00000000000E+00 0.  1.
         23    2    1    2    0    0  0.15153497827E+02 -0.44044787299E+02  0.21601874662E+03  0.23800140695E+03  0.88379856499E+02 0.  0.
         23    2    1    2    0    0  0.13441161048E+02  0.28234015176E+02 -0.11741933217E+02  0.11200858062E+03  0.10691222902E+03 0.  0.
        -11    1    4    4    0    0  0.39317520926E+02 -0.57990337844E+01  0.31864898774E+02  0.50939847060E+02  0.00000000000E+00 0.  1.
         11    1    4    4    0    0 -0.25876359878E+02  0.34033048960E+02 -0.43606831991E+02  0.61068733558E+02  0.00000000000E+00 0. -1.
        -13    1    3    3    0    0  0.13359087147E+02 -0.71302579071E+02  0.15998917490E+03  0.17566746732E+03  0.00000000000E+00 0.  1.
         13    1    3    3    0    0  0.17944106796E+01  0.27257791773E+02  0.56029571726E+02  0.62333939630E+02  0.00000000000E+00 0. -1.
         21    1    1    2  503  501 -0.56021254301E+01  0.20361033728E+02 -0.75843769690E+02  0.78728856873E+02  0.00000000000E+00 0. -1.
         -1    1    1    2    0  502 -0.22992533444E+02 -0.45502616050E+01 -0.89286655657E+02  0.92311799642E+02  0.00000000000E+00 0.  1.
<scales pt_clust_5="13000.00000" pt_clust_6="13000.00000" pt_clust_7="13000.00000" pt_clust_8="13000.00000" pt_clust_9="21.11766" pt_clust_10="13000.00000"></scales>
<clustering>
<clus scale="   21.118">  2  9  1 -1</clus>
<clus scale="   88.380">  7  8 -1 -1</clus>
<clus scale="   99.251">  1  7  2 -1</clus>
<clus scale="  106.912">  5  6 -1 -1</clus>
<clus scale="   25.652">  5 10 -1 -1</clus>
<clus scale="   21.118">  2  5  1 -1</clus>
</clustering>
</event>
<event>
10    2  0.4951045E-006  0.1762891E+03  0.7546771E-02  0.1187203E+00
         21   -1    0    0  501  502  0.00000000000E+00  0.00000000000E+00  0.30457074260E+03  0.30457074260E+03  0.00000000000E+00 0. -1.
         -3   -1    0    0    0  501 -0.00000000000E+00 -0.00000000000E+00 -0.13416443392E+03  0.13416443392E+03  0.00000000000E+00 0.  1.
         23    2    1    2    0    0 -0.56423485732E+02 -0.64799313313E+02 -0.32155532443E+01  0.12464794001E+03  0.90245268113E+02 0.  0.
         23    2    1    2    0    0  0.72554252918E+02 -0.12318741718E+02  0.28765537080E+01  0.11946305909E+03  0.94059964454E+02 0.  0.
        -11    1    3    3    0    0 -0.29804853268E+02 -0.80787749131E+02 -0.21311683889E+02  0.88708384937E+02  0.00000000000E+00 0. -1.
         11    1    3    3    0    0 -0.26618632464E+02  0.15988435818E+02  0.18096130645E+02  0.35939555068E+02  0.00000000000E+00 0.  1.
        -11    1    4    4    0    0 -0.79273507358E+01  0.27072237423E+02  0.91062703164E+01  0.29642420412E+02  0.00000000000E+00 0. -1.
         11    1    4    4    0    0  0.80481603653E+02 -0.39390979141E+02 -0.62297166084E+01  0.89820638682E+02  0.00000000000E+00 0.  1.
         21    1    1    2  503  502 -0.32912440399E+02  0.41305147034E+02  0.11170604546E+03  0.12356206739E+03  0.00000000000E+00 0. -1.
         -3    1    1    2    0  503  0.16781673213E+02  0.35812907997E+02  0.59039262756E+02  0.71062110030E+02  0.00000000000E+00 0.  1.
<scales pt_clust_5="13000.00000" pt_clust_6="13000.00000" pt_clust_7="13000.00000" pt_clust_8="13000.00000" pt_clust_9="52.81424" pt_clust_10="13000.00000"></scales>
<clustering>
<clus scale="   52.814">  1  9  2 -1</clus>
<clus scale="   90.245">  5  6 -1 -1</clus>
<clus scale="   94.060">  7  8 -1 -1</clus>
<clus scale="   50.469">  7 10 -1 -1</clus>
<clus scale="  123.647">  2  5  1 -1</clus>
<clus scale="   52.814">  1  5  2 -1</clus>
</clustering>
</event>
<event>
10    2  0.4951045E-006  0.4567676E+03  0.7546771E-02  0.1069570E+00
         21   -1    0    0  501  502  0.00000000000E+00  0.00000000000E+00  0.87814950917E+03  0.87814950917E+03  0.00000000000E+00 0.  1.
          1   -1    0    0  503    0 -0.00000000000E+00 -0.00000000000E+00 -0.25262653179E+03  0.25262653179E+03  0.00000000000E+00 0. -1.
         23    2    1    2    0    0  0.79512069065E+02 -0.14935789702E+02  0.53330698437E+02  0.13340440269E+03  0.91691462636E+02 0.  0.
         23    2    1    2    0    0  0.12544001179E+03  0.20209440355E+02 -0.10474772042E+03  0.18703013925E+03  0.88682410978E+02 0.  0.
        -13    1    4    4    0    0  0.10276003495E+03 -0.23734301193E+02 -0.69614893395E+02  0.12636920202E+03  0.00000000000E+00 0. -1.
         13    1    4    4    0    0  0.22679976832E+02  0.43943741548E+02 -0.35132827026E+02  0.60660937226E+02  0.00000000000E+00 0.  1.
        -13    1    3    3    0    0 -0.19073226204E+02 -0.13829494069E+02  0.12747361522E+02  0.26786901460E+02  0.00000000000E+00 0.  1.
         13    1    3    3    0    0  0.98585295270E+02 -0.11062956328E+01  0.40583336915E+02  0.10661750123E+03  0.00000000000E+00 0. -1.
         21    1    1    2  503  502  0.10251238566E+02 -0.10246703026E+03  0.51212998835E+03  0.52238080473E+03  0.00000000000E+00 0.  1.
          1    1    1    2  501    0 -0.21520331942E+03  0.97193379612E+02  0.16481001101E+03  0.28796069429E+03  0.00000000000E+00 0. -1.
<scales pt_clust_5="13000.00000" pt_clust_6="13000.00000" pt_clust_7="13000.00000" pt_clust_8="13000.00000" pt_clust_9="102.97854" pt_clust_10="13000.00000"></scales>
<clustering>
<clus scale="   88.682">  5  6 -1 -1</clus>
<clus scale="   91.691">  7  8 -1 -1</clus>
<clus scale="  102.979">  1  9  2 -1</clus>
<clus scale="  129.908">  2  7  1 -1</clus>
<clus scale="  187.578">  5 10 -1 -1</clus>
<clus scale="  102.979">  1  5  2 -1</clus>
</clustering>
</event>
<event>
10    2  0.4951045E-006  0.1956849E+03  0.7546771E-02  0.1178309E+00
         21   -1    0    0  501  502  0.00000000000E+00  0.00000000000E+00  0.14305602528E+03  0.14305602528E+03  0.00000000000E+00 0. -1.
          1   -1    0    0  503    0 -0.00000000000E+00 -0.00000000000E+00 -0.24421211810E+03  0.24421211810E+03  0.00000000000E+00 0. -1.
         23    2    1    2    0    0  0.19092892906E+02 -0.46275480460E+02 -0.98424194558E+02  0.14592156005E+03  0.95392981719E+02 0.  0.
         23    2    1    2    0    0 -0.26702940700E+02  0.25879296390E+02 -0.82469160060E+02  0.13042824061E+03  0.93955194453E+02 0.  0.
        -11    1    4    4    0    0  0.35291644670E+02  0.12973464175E+02 -0.33848175781E+02  0.50591599698E+02  0.00000000000E+00 0.  1.
         11    1    4    4    0    0 -0.61994585371E+02  0.12905832215E+02 -0.48620984279E+02  0.79836640915E+02  0.00000000000E+00 0. -1.
        -11    1    3    3    0    0  0.56853578212E+02 -0.25528060097E+02 -0.72638318695E+02  0.95709647114E+02  0.00000000000E+00 0.  1.
         11    1    3    3    0    0 -0.37760685306E+02 -0.20747420363E+02 -0.25785875863E+02  0.50211912935E+02  0.00000000000E+00 0. -1.
         21    1    1    2  503  502 -0.19061722418E+01 -0.27722588872E+02  0.24503552565E+02  0.37048610159E+02  0.00000000000E+00 0.  1.
          1    1    1    2  501    0  0.95162200362E+01  0.48118772943E+02  0.55233709235E+02  0.73869732565E+02  0.00000000000E+00 0. -1.
<scales pt_clust_5="13000.00000" pt_clust_6="13000.00000" pt_clust_7="13000.00000" pt_clust_8="13000.00000" pt_clust_9="27.78804" pt_clust_10="13000.00000"></scales>
<clustering>
<clus scale="   27.788">  1  9  2 -1</clus>
<clus scale="   93.955">  5  6 -1 -1</clus>
<clus scale="   33.264">  5 10 -1 -1</clus>
<clus scale="   95.393">  7  8 -1 -1</clus>
<clus scale="  110.307">  2  7  1 -1</clus>
<clus scale="   27.788">  1  5  2 -1</clus>
</clustering>
</event>
<event>
10    2  0.4951045E-006  0.2750682E+03  0.7546771E-02  0.1111705E+00
         21   -1    0    0  501  502  0.00000000000E+00  0.00000000000E+00  0.26784065975E+03  0.26784065975E+03  0.00000000000E+00 0.  1.
          2   -1    0    0  503    0 -0.00000000000E+00 -0.00000000000E+00 -0.45931211568E+03  0.45931211568E+03  0.00000000000E+00 0.  1.
         23    2    1    2    0    0  0.25593392210E+02  0.17774506105E+03 -0.71229140291E+02  0.21542922461E+03  0.95330120828E+02 0.  0.
         23    2    1    2    0    0  0.99347391963E+01 -0.19697521270E+02 -0.19564408972E+03  0.21592657714E+03  0.88662198745E+02 0.  0.
        -11    1    3    3    0    0  0.48877323997E+02  0.16569704412E+03 -0.76082919166E+02  0.18876735369E+03  0.00000000000E+00 0.  1.
         11    1    3    3    0    0 -0.23283931787E+02  0.12048016926E+02  0.48537788752E+01  0.26661870915E+02  0.00000000000E+00 0. -1.
        -13    1    4    4    0    0  0.13828536508E+02  0.32040124132E+02 -0.11372895401E+03  0.11896248550E+03  0.00000000000E+00 0.  1.
         13    1    4    4    0    0 -0.38937973120E+01 -0.51737645402E+02 -0.81915135713E+02  0.96964091643E+02  0.00000000000E+00 0. -1.
         21    1    1    2  503  502 -0.18496697092E+02 -0.14104812827E+02  0.13652291126E+03  0.13849035651E+03  0.00000000000E+00 0.  1.
          2    1    1    2  501    0 -0.17031434315E+02 -0.14394272695E+03 -0.61121137179E+02  0.15730661717E+03  0.00000000000E+00 0.  1.
<scales pt_clust_5="13000.00000" pt_clust_6="13000.00000" pt_clust_7="13000.00000" pt_clust_8="13000.00000" pt_clust_9="23.26099" pt_clust_10="13000.00000"></scales>
<clustering>
<clus scale="   23.261">  1  9  2 -1</clus>
<clus scale="   88.662">  7  8 -1 -1</clus>
<clus scale="   95.330">  5  6 -1 -1</clus>
<clus scale="  151.043">  7 10 -1 -1</clus>
<clus scale="  195.459">  2  5  1 -1</clus>
<clus scale="   23.261">  1  5  2 -1</clus>
</clustering>
</event>
<event>
10    2  0.4951045E-006  0.2941546E+03  0.7546771E-02  0.1126118E+00
         21   -1    0    0  503  502  0.00000000000E+00  0.00000000000E+00  0.31446975623E+03  0.31446975623E+03  0.00000000000E+00 0. -1.
          1   -1    0    0  502    0 -0.00000000000E+00 -0.00000000000E+00 -0.40101647510E+03  0.40101647510E+03  0.00000000000E+00 0. -1.
         23    2    1    2    0    0 -0.12923069923E+03 -0.52888598970E+02  0.63946739305E+02  0.17378296861E+03  0.81323779961E+02 0.  0.
         23    2    1    2    0    0 -0.44777764207E+02 -0.42000130038E+02 -0.27295495195E+03  0.29227213297E+03  0.84554921962E+02 0.  0.
        -11    1    4    4    0    0 -0.41246675152E+02  0.13758395204E+02 -0.76137306368E+02  0.87678224610E+02  0.00000000000E+00 0. -1.
         11    1    4    4    0    0 -0.35310890549E+01 -0.55758525242E+02 -0.19681764558E+03  0.20459390836E+03  0.00000000000E+00 0.  1.
        -13    1    3    3    0    0 -0.52396702511E+01 -0.32930068270E+02  0.26910042717E+02  0.42848499853E+02  0.00000000000E+00 0.  1.
         13    1    3    3    0    0 -0.12399102898E+03 -0.19958530700E+02  0.37036696589E+02  0.13093446876E+03  0.00000000000E+00 0. -1.
         21    1    1    2  503  501  0.82611338381E+02  0.67236020834E+02  0.11002380652E+03  0.15313573629E+03  0.00000000000E+00 0. -1.
          1    1    1    2  501    0  0.91397125056E+02  0.27652708174E+02  0.12437687249E+02  0.96295393462E+02  0.00000000000E+00 0. -1.
<scales pt_clust_5="13000.00000" pt_clust_6="13000.00000" pt_clust_7="13000.00000" pt_clust_8="13000.00000" pt_clust_9="106.51439" pt_clust_10="13000.00000"></scales>
<clustering>
<clus scale="   81.324">  7  8 -1 -1</clus>
<clus scale="   84.555">  5  6 -1 -1</clus>
<clus scale="   95.489">  5 10 -1 -1</clus>
<clus scale="  106.514">  1  9  2 -1</clus>
<clus scale="  111.374">  2  7  1 -1</clus>
<clus scale="  106.514">  1  5  2 -1</clus>
</clustering>
</event>
<event>
10    2  0.4951045E-006  0.5908293E+03  0.7546771E-02  0.1011155E+00
         21   -1    0    0  503  502  0.00000000000E+00  0.00000000000E+00  0.13560941955E+04  0.13560941955E+04  0.00000000000E+00 0. -1.
          1   -1    0    0  502    0 -0.00000000000E+00 -0.00000000000E+00 -0.20473554920E+03  0.20473554920E+03  0.00000000000E+00 0. -1.
         23    2    1    2    0    0 -0.30783755073E+03  0.15347683287E+03  0.48191857307E+03  0.59916158700E+03  0.91815033595E+02 0.  0.
         23    2    1    2    0    0  0.63811290074E+02  0.36998086102E+02 -0.84223688002E+02  0.14402014749E+03  0.90594890291E+02 0.  0.
        -11    1    4    4    0    0  0.62570275808E+02 -0.12698701753E+01 -0.14141560388E+02  0.64161013982E+02  0.00000000000E+00 0.  1.
         11    1    4    4    0    0  0.12410142656E+01  0.38267956277E+02 -0.70082127614E+02  0.79859133509E+02  0.00000000000E+00 0. -1.
        -13    1    3    3    0    0 -0.80045587017E+02  0.86531996860E+02  0.14232657874E+03  0.18480242828E+03  0.00000000000E+00 0.  1.
         13    1    3    3    0    0 -0.22779196371E+03  0.66944836011E+02  0.33959199433E+03  0.41435915872E+03  0.00000000000E+00 0. -1.
         21    1    1    2  503  501  0.47527552472E+02 -0.37944224568E+02  0.23001697010E+03  0.23792107716E+03  0.00000000000E+00 0. -1.
          1    1    1    2  501    0  0.19649870819E+03 -0.15253069441E+03  0.52364679118E+03  0.57972693310E+03  0.00000000000E+00 0. -1.
<scales pt_clust_5="13000.00000" pt_clust_6="13000.00000" pt_clust_7="13000.00000" pt_clust_8="13000.00000" pt_clust_9="60.81638" pt_clust_10="13000.00000"></scales>
<clustering>
<clus scale="   60.816">  1  9  2 -1</clus>
<clus scale="   90.595">  5  6 -1 -1</clus>
<clus scale="   91.815">  7  8 -1 -1</clus>
<clus scale="  278.649">  5 10 -1 -1</clus>
<clus scale="  328.483">  2  7  1 -1</clus>
<clus scale="   60.816">  1  5  2 -1</clus>
</clustering>
</event>
<event>
10    2  0.4951045E-006  0.1954025E+03  0.7546771E-02  0.1186683E+00
         21   -1    0    0  501  502  0.00000000000E+00  0.00000000000E+00  0.27654142717E+03  0.27654142717E+03  0.00000000000E+00 0.  1.
          1   -1    0    0  503    0 -0.00000000000E+00 -0.00000000000E+00 -0.29232794513E+03  0.29232794513E+03  0.00000000000E+00 0. -1.
         23    2    1    2    0    0 -0.44635443307E+01  0.79795956716E+01 -0.19515112168E+03  0.21549872119E+03  0.90951313168E+02 0.  0.
         23    2    1    2    0    0  0.16338211210E+02  0.12976284077E+02 -0.31592244462E+02  0.98932524991E+02  0.91401605549E+02 0.  0.
        -11    1    3    3    0    0 -0.20471114487E+02  0.40241636761E+02 -0.15555004263E+03  0.16196997135E+03  0.00000000000E+00 0. -1.
         11    1    3    3    0    0  0.16007570156E+02 -0.32262041089E+02 -0.39601079054E+02  0.53528749843E+02  0.00000000000E+00 0.  1.
        -13    1    4    4    0    0  0.12569127706E+02  0.39048245203E+02  0.16406099881E+02  0.44180408985E+02  0.00000000000E+00 0.  1.
         13    1    4    4    0    0  0.37690835047E+01 -0.26071961127E+02 -0.47998344343E+02  0.54752116006E+02  0.00000000000E+00 0. -1.
         21    1    1    2  503  502 -0.70684173144E+02  0.16390298567E+02  0.11014727477E+03  0.13189888687E+03  0.00000000000E+00 0. -1.
          1    1    1    2  501    0  0.58809506264E+02 -0.37346178315E+02  0.10080957342E+03  0.12253923924E+03  0.00000000000E+00 0. -1.
<scales pt_clust_5="13000.00000" pt_clust_6="13000.00000" pt_clust_7="13000.00000" pt_clust_8="13000.00000" pt_clust_9="72.55959" pt_clust_10="13000.00000"></scales>
<clustering>
<clus scale="   72.560">  1  9  2 -1</clus>
<clus scale="   90.951">  5  6 -1 -1</clus>
<clus scale="   91.402">  7  8 -1 -1</clus>
<clus scale="   26.814">  7 10 -1 -1</clus>
<clus scale="   91.851">  2  5  1 -1</clus>
<clus scale="   72.560">  1  5  2 -1</clus>
</clustering>
</event>
<event>
10    2  0.4951045E-006  0.4341588E+03  0.7546771E-02  0.1053534E+00
          2   -1    0    0  503    0 -0.00000000000E+00  0.00000000000E+00  0.21566409088E+04  0.21566409088E+04  0.00000000000E+00 0. -1.
         21   -1    0    0  501  502  0.00000000000E+00 -0.00000000000E+00 -0.61125469901E+02  0.61125469901E+02  0.00000000000E+00 0. -1.
         23    2    1    2    0    0 -0.18380888429E+03 -0.98636560877E+02  0.77170600798E+03  0.80459428235E+03  0.91251955307E+02 0.  0.
         23    2    1    2    0    0 -0.73121588950E+02 -0.12782607289E+02  0.40485903482E+03  0.42662585543E+03  0.11219902240E+03 0.  0.
        -11    1    3    3    0    0 -0.13473547167E+03 -0.30766048308E+02  0.38871291416E+03  0.41255051411E+03  0.00000000000E+00 0.  1.
         11    1    3    3    0    0 -0.49073412620E+02 -0.67870512570E+02  0.38299309382E+03  0.39204376824E+03  0.00000000000E+00 0. -1.
        -11    1    4    4    0    0 -0.11605698359E+02  0.45524178464E+02  0.18827157117E+03  0.19404465355E+03  0.00000000000E+00 0.  1.
         11    1    4    4    0    0 -0.61515890591E+02 -0.58306785752E+02  0.21658746364E+03  0.23258120188E+03  0.00000000000E+00 0. -1.
         21    1    1    2  503  502 -0.22960274289E+02 -0.24481741407E+02  0.31105182512E+02  0.45760924781E+02  0.00000000000E+00 0.  1.
          2    1    1    2  501    0  0.27989074753E+03  0.13590090957E+03  0.88784521358E+03  0.94078531613E+03  0.00000000000E+00 0. -1.
<scales pt_clust_5="13000.00000" pt_clust_6="13000.00000" pt_clust_7="13000.00000" pt_clust_8="13000.00000" pt_clust_9="33.56382" pt_clust_10="13000.00000"></scales>
<clustering>
<clus scale="   33.564">  2  9  1 -1</clus>
<clus scale="   91.252">  5  6 -1 -1</clus>
<clus scale="  112.199">  7  8 -1 -1</clus>
<clus scale="  236.650">  1  5  2 -1</clus>
<clus scale="  155.053">  7 10 -1 -1</clus>
<clus scale="   33.564">  2  5  1 -1</clus>
</clustering>
</event>
<event>
10    2  0.4951045E-006  0.1434510E+03  0.7546771E-02  0.1229988E+00
         21   -1    0    0  501  502  0.00000000000E+00  0.00000000000E+00  0.29687190657E+02  0.29687190657E+02  0.00000000000E+00 0. -1.
         -2   -1    0    0    0  501 -0.00000000000E+00 -0.00000000000E+00 -0.65886081056E+03  0.65886081056E+03  0.00000000000E+00 0.  1.
         23    2    1    2    0    0  0.15837743248E+02  0.68611496168E+01 -0.25632934559E+03  0.27273876706E+03  0.91563050197E+02 0.  0.
         23    2    1    2    0    0  0.11451797812E+01  0.45706738517E+02 -0.21335152040E+03  0.23602113784E+03  0.89981602955E+02 0.  0.
        -13    1    3    3    0    0 -0.36835983058E+02  0.14007026403E+02 -0.12479006935E+03  0.13086499854E+03  0.00000000000E+00 0.  1.
         13    1    3    3    0    0  0.52673726307E+02 -0.71458767858E+01 -0.13153927625E+03  0.14187376852E+03  0.00000000000E+00 0. -1.
        -13    1    4    4    0    0 -0.29206817182E+02 -0.10152658922E+02 -0.11360647555E+03  0.11773931348E+03  0.00000000000E+00 0.  1.
         13    1    4    4    0    0  0.30351996963E+02  0.55859397439E+02 -0.99745044848E+02  0.11828182436E+03  0.00000000000E+00 0. -1.
         21    1    1    2  503  502 -0.25332967113E+02 -0.13795719002E+02 -0.20871764659E+02  0.35604938499E+02  0.00000000000E+00 0. -1.
         -2    1    1    2    0  503  0.83500440835E+01 -0.38772169132E+02 -0.13862098925E+03  0.14418315781E+03  0.00000000000E+00 0.  1.
<scales pt_clust_5="13000.00000" pt_clust_6="13000.00000" pt_clust_7="13000.00000" pt_clust_8="13000.00000" pt_clust_9="28.84582" pt_clust_10="13000.00000"></scales>
<clustering>
<clus scale="   28.846">  1  9  2 -1</clus>
<clus scale="   89.982">  7  8 -1 -1</clus>
<clus scale="   40.823">  7 10 -1 -1</clus>
<clus scale="   91.563">  5  6 -1 -1</clus>
<clus scale="   91.813">  2  5  1 -1</clus>
<clus scale="   28.846">  1  5  2 -1</clus>
</clustering>
</event>
<event>
10    2  0.4951045E-006  0.1672522E+03  0.7546771E-02  0.1202139E+00
         21   -1    0    0  503  502  0.00000000000E+00  0.00000000000E+00  0.79025123894E+02  0.79025123894E+02  0.00000000000E+00 0.  1.
         -1   -1    0    0    0  501 -0.00000000000E+00 -0.00000000000E+00 -0.48169308080E+03  0.48169308080E+03  0.00000000000E+00 0.  1.
         23    2    1    2    0    0 -0.41354684401E+02  0.40420920738E+02 -0.26408116267E+03  0.28528964579E+03  0.91144175716E+02 0.  0.
         23    2    1    2    0    0  0.40684388474E+02  0.30590287811E+02 -0.13171101321E+03  0.17121480609E+03  0.96828372129E+02 0.  0.
        -13    1    3    3    0    0  0.70576542457E+00  0.61071352980E+02 -0.14756054378E+03  0.15970072742E+03  0.00000000000E+00 0. -1.
         13    1    3    3    0    0 -0.42060449826E+02 -0.20650432242E+02 -0.11652061889E+03  0.12558891837E+03  0.00000000000E+00 0.  1.
        -13    1    4    4    0    0  0.61336076789E+02 -0.11073817968E+02 -0.66748961622E+02  0.91324518274E+02  0.00000000000E+00 0. -1.
         13    1    4    4    0    0 -0.20651688315E+02  0.41664105779E+02 -0.64962051584E+02  0.79890287811E+02  0.00000000000E+00 0.  1.
         21    1    1    2  503  501  0.17227754763E+02 -0.23163893628E+02  0.29956860457E+02  0.41602583942E+02  0.00000000000E+00 0.  1.
         -1    1    1    2    0  502 -0.16557458836E+02 -0.47847314921E+02 -0.36832641488E+02  0.62611168869E+02  0.00000000000E+00 0.  1.
<scales pt_clust_5="13000.00000" pt_clust_6="13000.00000" pt_clust_7="13000.00000" pt_clust_8="13000.00000" pt_clust_9="28.86800" pt_clust_10="13000.00000"></scales>
<clustering>
<clus scale="   28.868">  1  9  2 -1</clus>
<clus scale="   91.144">  5  6 -1 -1</clus>
<clus scale="   96.828">  7  8 -1 -1</clus>
<clus scale="   55.930">  7 10 -1 -1</clus>
<clus scale="  104.369">  2  5  1 -1</clus>
<clus scale="   28.868">  1  5  2 -1</clus>
</clustering>
</event>
<event>
10    2  0.4951045E-006  0.1709374E+03  0.7546771E-02  0.1203291E+00
         21   -1    0    0  501  502  0.00000000000E+00  0.00000000000E+00  0.30620866197E+03  0.30620866197E+03  0.00000000000E+00 0.  1.
         -3   -1    0    0    0  501 -0.00000000000E+00 -0.00000000000E+00 -0.10014269756E+03  0.10014269756E+03  0.00000000000E+00 0.  1.
         23    2    1    2    0    0 -0.30702602939E+02 -0.29694512297E+01  0.76655910432E+02  0.12383139846E+03  0.92231335092E+02 0.  0.
         23    2    1    2    0    0  0.45088058620E+02 -0.31903416854E+02 -0.29871337977E+02  0.11092687720E+03  0.91442409290E+02 0.  0.
        -11    1    4    4    0    0 -0.20325273015E+02 -0.23775632368E+02  0.11243887427E+02  0.33238869146E+02  0.00000000000E+00 0. -1.
         11    1    4    4    0    0  0.65413331635E+02 -0.81277844857E+01 -0.41115225403E+02  0.77688008059E+02  0.00000000000E+00 0.  1.
        -13    1    3    3    0    0 -0.28059362359E+02 -0.45191865194E+02  0.54172416374E+02  0.75922876602E+02  0.00000000000E+00 0.  1.
         13    1    3    3    0    0 -0.26432405798E+01  0.42222413964E+02  0.22483494057E+02  0.47908521859E+02  0.00000000000E+00 0. -1.
         21    1    1    2  503  502  0.14061110559E+02  0.17006572871E+02  0.10839976098E+03  0.11062299278E+03  0.00000000000E+00 0.  1.
         -3    1    1    2    0  503 -0.28446566240E+02  0.17866295213E+02  0.50881630982E+02  0.60970091085E+02  0.00000000000E+00 0.  1.
<scales pt_clust_5="13000.00000" pt_clust_6="13000.00000" pt_clust_7="13000.00000" pt_clust_8="13000.00000" pt_clust_9="22.06668" pt_clust_10="13000.00000"></scales>
<clustering>
<clus scale="   22.067">  1  9  2 -1</clus>
<clus scale="   91.442">  5  6 -1 -1</clus>
<clus scale="   33.363">  5 10 -1 -1</clus>
<clus scale="   92.231">  7  8 -1 -1</clus>
<clus scale="   95.358">  2  7  1 -1</clus>
<clus scale="   22.067">  1  5  2 -1</clus>
</clustering>
</event>
<event>
10    2  0.4951045E-006  0.4125404E+03  0.7546771E-02  0.1070712E+00
         21   -1    0    0  501  502  0.00000000000E+00  0.00000000000E+00  0.18463925882E+03  0.18463925882E+03  0.00000000000E+00 0. -1.
          1   -1    0    0  503    0 -0.00000000000E+00 -0.00000000000E+00 -0.61178603957E+03  0.61178603957E+03  0.00000000000E+00 0. -1.
         23    2    1    2    0    0 -0.79489894139E+02 -0.11056660162E+03 -0.16393387172E+03  0.23210516845E+03  0.91950411970E+02 0.  0.
         23    2    1    2    0    0  0.22445670000E+03  0.58701914854E+02 -0.16076063473E+03  0.30013220285E+03  0.10202270594E+03 0.  0.
        -13    1    3    3    0    0  0.78372192223E+01 -0.33110915433E+02 -0.42262719733E+01  0.34287258577E+02  0.00000000000E+00 0. -1.
         13    1    3    3    0    0 -0.87327113361E+02 -0.77455686187E+02 -0.15970759975E+03  0.19781790988E+03  0.00000000000E+00 0.  1.
        -13    1    4    4    0    0  0.78856335255E+02  0.72552277406E+02 -0.65534575405E+02  0.12560627031E+03  0.00000000000E+00 0.  1.
         13    1    4    4    0    0  0.14560036474E+03 -0.13850362552E+02 -0.95226059326E+02  0.17452593255E+03  0.00000000000E+00 0. -1.
         21    1    1    2  503  502 -0.31125675820E+01 -0.38403715022E+02  0.31057533412E+02  0.49488420727E+02  0.00000000000E+00 0. -1.
          1    1    1    2  501    0 -0.14185423828E+03  0.90268401787E+02 -0.13350980771E+03  0.21469950636E+03  0.00000000000E+00 0. -1.
<scales pt_clust_5="13000.00000" pt_clust_6="13000.00000" pt_clust_7="13000.00000" pt_clust_8="13000.00000" pt_clust_9="38.52964" pt_clust_10="13000.00000"></scales>
<clustering>
<clus scale="   38.530">  1  9  2 -1</clus>
<clus scale="   91.950">  5  6 -1 -1</clus>
<clus scale="  102.023">  7  8 -1 -1</clus>
<clus scale="  163.362">  7 10 -1 -1</clus>
<clus scale="  170.889">  2  5  1 -1</clus>
<clus scale="   38.530">  1  5  2 -1</clus>
</clustering>
</event>
<event>
10    2  0.4951045E-006  0.2857534E+03  0.7546771E-02  0.1104507E+00
          1   -1    0    0  502    0 -0.00000000000E+00  0.00000000000E+00  0.62467572667E+03  0.62467572667E+03  0.00000000000E+00 0. -1.
         21   -1    0    0  503  502  0.00000000000E+00 -0.00000000000E+00 -0.24343994600E+03  0.24343994600E+03  0.00000000000E+00 0. -1.
         23    2    1    2    0    0  0.36880101611E+02  0.19424113510E+03  0.43869514615E+03  0.48975985381E+03  0.91222380422E+02 0.  0.
         23    2    1    2    0    0  0.19720544040E+01  0.12131262939E+02 -0.29321118915E+02  0.97194297642E+02  0.91847411181E+02 0.  0.
        -11    1    4    4    0    0 -0.43756681073E+02  0.14900735049E+02 -0.20379362808E+02  0.50517298740E+02  0.00000000000E+00 0.  1.
         11    1    4    4    0    0  0.45728735478E+02 -0.27694721102E+01 -0.89417561063E+01  0.46676998901E+02  0.00000000000E+00 0. -1.
        -13    1    3    3    0    0 -0.17890982032E+02  0.13566996778E+02  0.18472506304E+02  0.29075490173E+02  0.00000000000E+00 0.  1.
         13    1    3    3    0    0  0.54771083643E+02  0.18067413832E+03  0.42022263985E+03  0.46068436364E+03  0.00000000000E+00 0. -1.
         21    1    1    2  503  501  0.68281899679E+02 -0.75403655179E+02 -0.44767650671E+02  0.11114077373E+03  0.00000000000E+00 0. -1.
          1    1    1    2  501    0 -0.10713405569E+03 -0.13096874286E+03  0.16629404094E+02  0.17002074749E+03  0.00000000000E+00 0. -1.
<scales pt_clust_5="13000.00000" pt_clust_6="13000.00000" pt_clust_7="13000.00000" pt_clust_8="13000.00000" pt_clust_9="101.72575" pt_clust_10="13000.00000"></scales>
<clustering>
<clus scale="   91.222">  7  8 -1 -1</clus>
<clus scale="   91.847">  5  6 -1 -1</clus>
<clus scale="  101.726">  2  9  1 -1</clus>
<clus scale="  182.281">  5 10 -1 -1</clus>
<clus scale="  209.559">  1  7  2 -1</clus>
<clus scale="  101.726">  2  5  1 -1</clus>
</clustering>
</event>
<event>
10    2  0.4951045E-006  0.1688753E+03  0.7546771E-02  0.1202189E+00
         21   -1    0    0  503  502  0.00000000000E+00  0.00000000000E+00  0.10821557971E+03  0.10821557971E+03  0.00000000000E+00 0.  1.
          3   -1    0    0  502    0 -0.00000000000E+00 -0.00000000000E+00 -0.35564823011E+03  0.35564823011E+03  0.00000000000E+00 0. -1.
         23    2    1    2    0    0 -0.40778902487E+02  0.75030002418E+01 -0.47864047702E+02  0.10908094410E+03  0.88817067071E+02 0.  0.
         23    2    1    2    0    0  0.56231391473E+02 -0.71787469288E+02 -0.23066730539E+03  0.26378456146E+03  0.89774600819E+02 0.  0.
        -13    1    3    3    0    0 -0.46212417135E+02  0.38632204785E+02 -0.12245210384E+02  0.61465274110E+02  0.00000000000E+00 0.  1.
         13    1    3    3    0    0  0.54335146487E+01 -0.31129204543E+02 -0.35618837318E+02  0.47615669992E+02  0.00000000000E+00 0. -1.
        -13    1    4    4    0    0 -0.10318031639E+02 -0.17990810155E+02 -0.34986624232E+01  0.21032633351E+02  0.00000000000E+00 0.  1.
         13    1    4    4    0    0  0.66549423111E+02 -0.53796659132E+02 -0.22716864297E+03  0.24275192811E+03  0.00000000000E+00 0. -1.
         21    1    1    2  503  501  0.19584300250E+00  0.36480810092E+02  0.43495948573E+02  0.56769581658E+02  0.00000000000E+00 0.  1.
          3    1    1    2  501    0 -0.15648331988E+02  0.27803658954E+02 -0.12397245875E+02  0.34228722596E+02  0.00000000000E+00 0. -1.
<scales pt_clust_5="13000.00000" pt_clust_6="13000.00000" pt_clust_7="13000.00000" pt_clust_8="13000.00000" pt_clust_9="36.48134" pt_clust_10="13000.00000"></scales>
<clustering>
<clus scale="   36.481">  1  9  2 -1</clus>
<clus scale="   88.817">  5  6 -1 -1</clus>
<clus scale="   89.775">  7  8 -1 -1</clus>
<clus scale="   38.013">  7 10 -1 -1</clus>
<clus scale="  101.279">  2  5  1 -1</clus>
<clus scale="   36.481">  1  5  2 -1</clus>
</clustering>
</event>
<event>
10    2  0.4951045E-006  0.8663820E+03  0.7546771E-02  0.1000629E+00
         21   -1    0    0  503  502  0.00000000000E+00  0.00000000000E+00  0.44841337244E+03  0.44841337244E+03  0.00000000000E+00 0. -1.
          2   -1    0    0  502    0 -0.00000000000E+00 -0.00000000000E+00 -0.90485325604E+03  0.90485325604E+03  0.00000000000E+00 0. -1.
         23    2    1    2    0    0  0.34905408092E+02  0.10344116586E+03 -0.39473956872E+02  0.14739576194E+03  0.90823207700E+02 0.  0.
         23    2    1    2    0    0 -0.17402217658E+03 -0.22217784791E+03 -0.75121906655E+03  0.80891832605E+03  0.10184330230E+03 0.  0.
        -11    1    3    3    0    0  0.91258649434E+00  0.50101716616E+02  0.25920856576E+02  0.56417245836E+02  0.00000000000E+00 0.  1.
         11    1    3    3    0    0  0.33992821598E+02  0.53339449243E+02 -0.65394813448E+02  0.90978516100E+02  0.00000000000E+00 0. -1.
        -13    1    4    4    0    0  0.11734337455E+02 -0.18701566568E+02 -0.33364731547E+02  0.40008106414E+02  0.00000000000E+00 0.  1.
         13    1    4    4    0    0 -0.18575651403E+03 -0.20347628134E+03 -0.71785433500E+03  0.76891021963E+03  0.00000000000E+00 0. -1.
         21    1    1    2  503  501  0.27384215773E+02  0.89825156013E+01  0.16034209750E+03  0.16291153762E+03  0.00000000000E+00 0. -1.
          2    1    1    2  501    0  0.11173255271E+03  0.10975416644E+03  0.17391104232E+03  0.23404100288E+03  0.00000000000E+00 0. -1.
<scales pt_clust_5="13000.00000" pt_clust_6="13000.00000" pt_clust_7="13000.00000" pt_clust_8="13000.00000" pt_clust_9="28.81980" pt_clust_10="13000.00000"></scales>
<clustering>
<clus scale="   28.820">  1  9  2 -1</clus>
<clus scale="   90.823">  5  6 -1 -1</clus>
<clus scale="  101.843">  7  8 -1 -1</clus>
<clus scale="  144.589">  2  5  1 -1</clus>
<clus scale="  180.077">  7 10 -1 -1</clus>
<clus scale="   28.820">  1  5  2 -1</clus>
</clustering>
</event>
<event>
10    2  0.4951045E-006  0.3251755E+03  0.7546771E-02  0.1111543E+00
         21   -1    0    0  501  502  0.00000000000E+00  0.00000000000E+00  0.24677374899E+03  0.24677374899E+03  0.00000000000E+00 0.  1.
          1   -1    0    0  503    0 -0.00000000000E+00 -0.00000000000E+00 -0.73006737400E+03  0.73006737400E+03  0.00000000000E+00 0. -1.
         23    2    1    2    0    0  0.63926318934E+02  0.50772770849E+02 -0.41220005280E+03  0.42956049857E+03  0.89156547102E+02 0.  0.
         23    2    1    2    0    0 -0.68529983164E+02  0.43080292455E+02 -0.26838056115E+03  0.30180258481E+03  0.11182309424E+03 0.  0.
        -13    1    4    4    0    0  0.24726628471E+01  0.42983659163E+02 -0.28496121658E+02  0.51630785062E+02  0.00000000000E+00 0.  1.
         13    1    4    4    0    0 -0.71002646011E+02  0.96633291643E-01 -0.23988443949E+03  0.25017179975E+03  0.00000000000E+00 0. -1.
        -13    1    3    3    0    0 -0.67208548574E+01  0.24793869213E+02 -0.27766367454E+02  0.37826934877E+02  0.00000000000E+00 0. -1.
         13    1    3    3    0    0  0.70647173791E+02  0.25978901635E+02 -0.38443368535E+03  0.39173356370E+03  0.00000000000E+00 0.  1.
         21    1    1    2  503  502 -0.24187795890E+02 -0.22545460500E+02  0.15342530528E+03  0.15694798998E+03  0.00000000000E+00 0.  1.
          1    1    1    2  501    0  0.28791460119E+02 -0.71307602804E+02  0.43861683654E+02  0.88530049624E+02  0.00000000000E+00 0. -1.
<scales pt_clust_5="13000.00000" pt_clust_6="13000.00000" pt_clust_7="13000.00000" pt_clust_8="13000.00000" pt_clust_9="33.06580" pt_clust_10="13000.00000"></scales>
<clustering>
<clus scale="   33.066">  1  9  2 -1</clus>
<clus scale="   89.157">  7  8 -1 -1</clus>
<clus scale="  111.823">  5  6 -1 -1</clus>
<clus scale="   88.330">  5 10 -1 -1</clus>
<clus scale="  118.799">  2  7  1 -1</clus>
<clus scale="   33.066">  1  5  2 -1</clus>
</clustering>
</event>
<event>
10    2  0.4951045E-006  0.3240525E+03  0.7546771E-02  0.1120899E+00
         21   -1    0    0  503  502  0.00000000000E+00  0.00000000000E+00  0.23206886138E+03  0.23206886138E+03  0.00000000000E+00 0.  1.
          1   -1    0    0  502    0 -0.00000000000E+00 -0.00000000000E+00 -0.14284822220E+04  0.14284822220E+04  0.00000000000E+00 0. -1.
         23    2    1    2    0    0  0.10341485599E+02 -0.17125029533E+02 -0.35065874688E+03  0.36356724894E+03  0.93911526360E+02 0.  0.
         23    2    1    2    0    0 -0.12136388335E+03  0.27136899065E+02 -0.51598875025E+03  0.53860103192E+03  0.91548226225E+02 0.  0.
        -11    1    4    4    0    0 -0.93100440113E+02 -0.76942016846E+00 -0.46360749905E+03  0.47286382515E+03  0.00000000000E+00 0.  1.
         11    1    4    4    0    0 -0.28263443236E+02  0.27906319233E+02 -0.52381251198E+02  0.65737206769E+02  0.00000000000E+00 0. -1.
        -13    1    3    3    0    0 -0.59522517801E+01 -0.53991464798E+02 -0.17001607176E+03  0.17848241434E+03  0.00000000000E+00 0.  1.
         13    1    3    3    0    0  0.16293737379E+02  0.36866435265E+02 -0.18064267512E+03  0.18508483461E+03  0.00000000000E+00 0. -1.
         21    1    1    2  503  501 -0.59112622068E+02  0.19609822770E+02  0.19564492209E+03  0.20531873460E+03  0.00000000000E+00 0.  1.
          1    1    1    2  501    0  0.17013501982E+03 -0.29621692302E+02 -0.52541078556E+03  0.55306406790E+03  0.00000000000E+00 0. -1.
<scales pt_clust_5="13000.00000" pt_clust_6="13000.00000" pt_clust_7="13000.00000" pt_clust_8="13000.00000" pt_clust_9="62.28039" pt_clust_10="13000.00000"></scales>
<clustering>
<clus scale="   62.280">  1  9  2 -1</clus>
<clus scale="   91.548">  5  6 -1 -1</clus>
<clus scale="   93.912">  7  8 -1 -1</clus>
<clus scale="   94.839">  2  7  1 -1</clus>
<clus scale="  145.934">  5 10 -1 -1</clus>
<clus scale="   62.280">  1  5  2 -1</clus>
</clustering>
</event>
<event>
10    2  0.4951045E-006  0.4029767E+03  0.7546771E-02  0.1069908E+00
         21   -1    0    0  501  502  0.00000000000E+00  0.00000000000E+00  0.10913006604E+04  0.10913006604E+04  0.00000000000E+00 0. -1.
          1   -1    0    0  503    0 -0.00000000000E+00 -0.00000000000E+00 -0.26800358677E+03  0.26800358677E+03  0.00000000000E+00 0. -1.
         23    2    1    2    0    0  0.11890121225E+03  0.11315807730E+03  0.12245996311E+03  0.22389356744E+03  0.90496620061E+02 0.  0.
         23    2    1    2    0    0 -0.10869600334E+02 -0.39498993628E+02 -0.52381441271E+02  0.11186160670E+03  0.89949346602E+02 0.  0.
        -11    1    3    3    0    0  0.11342584158E+03  0.69671593860E+02  0.56297097911E+02  0.14452998223E+03  0.00000000000E+00 0. -1.
         11    1    3    3    0    0  0.54753706661E+01  0.43486483443E+02  0.66162865196E+02  0.79363585208E+02  0.00000000000E+00 0.  1.
        -13    1    4    4    0    0  0.37598391829E+02 -0.56559078546E+01 -0.30799140524E+02  0.48930720604E+02  0.00000000000E+00 0.  1.
         13    1    4    4    0    0 -0.48467992163E+02 -0.33843085773E+02 -0.21582300747E+02  0.62930886093E+02  0.00000000000E+00 0. -1.
         21    1    1    2  503  502 -0.33135410392E+03  0.20223943294E+01  0.71042074024E+03  0.78389875649E+03  0.00000000000E+00 0. -1.
          1    1    1    2  501    0  0.22332249200E+03 -0.75681478004E+02  0.42797811557E+02  0.23965031655E+03  0.00000000000E+00 0. -1.
<scales pt_clust_5="13000.00000" pt_clust_6="13000.00000" pt_clust_7="13000.00000" pt_clust_8="13000.00000" pt_clust_9="311.96832" pt_clust_10="13000.00000"></scales>
<clustering>
<clus scale="   89.949">  7  8 -1 -1</clus>
<clus scale="   90.497">  5  6 -1 -1</clus>
<clus scale="  187.435">  2  5  1 -1</clus>
<clus scale="  278.256">  7 10 -1 -1</clus>
<clus scale="  311.968">  1  9  2 -1</clus>
<clus scale="  311.968">  1  5  2 -1</clus>
</clustering>
</event>
<event>
10    2  0.4951045E-006  0.4966691E+03  0.7546771E-02  0.1049132E+00
         21   -1    0    0  503  502  0.00000000000E+00  0.00000000000E+00  0.58975320713E+03  0.58975320713E+03  0.00000000000E+00 0.  1.
         -1   -1    0    0    0  501 -0.00000000000E+00 -0.00000000000E+00 -0.27251667870E+03  0.27251667870E+03  0.00000000000E+00 0.  1.
         23    2    1    2    0    0  0.13064135774E+03 -0.80437277406E+02  0.12332076575E+03  0.21670731994E+03  0.90646187474E+02 0.  0.
         23    2    1    2    0    0 -0.23303756703E+03  0.17014800843E+03 -0.74059010743E+02  0.31127225556E+03  0.90270856806E+02 0.  0.
        -11    1    3    3    0    0  0.31358845563E+02 -0.68510177867E+02  0.34137341758E+02  0.82718678475E+02  0.00000000000E+00 0. -1.
         11    1    3    3    0    0  0.99282512182E+02 -0.11927099539E+02  0.89183423988E+02  0.13398864147E+03  0.00000000000E+00 0.  1.
        -13    1    4    4    0    0 -0.21423097049E+03  0.18099635768E+03 -0.71388301160E+02  0.28939744255E+03  0.00000000000E+00 0.  1.
         13    1    4    4    0    0 -0.18806596543E+02 -0.10848349244E+02 -0.26707095830E+01  0.21874813017E+02  0.00000000000E+00 0. -1.
         21    1    1    2  503  501  0.16201035842E+02  0.22487927193E+02  0.14253568274E+03  0.14520537623E+03  0.00000000000E+00 0.  1.
         -1    1    1    2    0  502  0.86195173447E+02 -0.11219865822E+03  0.12543909068E+03  0.18908493410E+03  0.00000000000E+00 0.  1.
<scales pt_clust_5="13000.00000" pt_clust_6="13000.00000" pt_clust_7="13000.00000" pt_clust_8="13000.00000" pt_clust_9="27.71607" pt_clust_10="13000.00000"></scales>
<clustering>
<clus scale="   27.716">  1  9  2 -1</clus>
<clus scale="   90.271">  7  8 -1 -1</clus>
<clus scale="   90.646">  5  6 -1 -1</clus>
<clus scale="  138.993">  7 10 -1 -1</clus>
<clus scale="  179.166">  2  5  1 -1</clus>
<clus scale="   27.716">  1  5  2 -1</clus>
</clustering>
</event>
<event>
10    2  0.4951045E-006  0.2872022E+03  0.7546771E-02  0.1122922E+00
         21   -1    0    0  501  502  0.00000000000E+00  0.00000000000E+00  0.79052350729E+02  0.79052350729E+02  0.00000000000E+00 0.  1.
          1   -1    0    0  503    0 -0.00000000000E+00 -0.00000000000E+00 -0.69497363167E+03  0.69497363167E+03  0.00000000000E+00 0. -1.
         23    2    1    2    0    0  0.67971590557E+02 -0.50259076325E+02 -0.17256982726E+03  0.21299971465E+03  0.91882649526E+02 0.  0.
         23    2    1    2    0    0  0.21979603836E+02 -0.65035894455E+02 -0.21806415280E+03  0.24595880399E+03  0.90724792477E+02 0.  0.
        -13    1    3    3    0    0  0.50983613657E+02  0.10292878899E+02 -0.12087473879E+03  0.13159017705E+03  0.00000000000E+00 0. -1.
         13    1    3    3    0    0  0.16987976901E+02 -0.60551955225E+02 -0.51695088469E+02  0.81409537602E+02  0.00000000000E+00 0.  1.
        -13    1    4    4    0    0  0.36595778046E+02 -0.10033672883E+02 -0.16082869335E+03  0.16524464944E+03  0.00000000000E+00 0.  1.
         13    1    4    4    0    0 -0.14616174211E+02 -0.55002221572E+02 -0.57235459447E+02  0.80714154549E+02  0.00000000000E+00 0. -1.
         21    1    1    2  503  502 -0.62179905113E+00 -0.35072531240E+02 -0.77230463319E+01  0.35918164295E+02  0.00000000000E+00 0.  1.
          1    1    1    2  501    0 -0.89329395342E+02  0.15036750202E+03 -0.21756425455E+03  0.27914929947E+03  0.00000000000E+00 0. -1.
<scales pt_clust_5="13000.00000" pt_clust_6="13000.00000" pt_clust_7="13000.00000" pt_clust_8="13000.00000" pt_clust_9="35.07804" pt_clust_10="13000.00000"></scales>
<clustering>
<clus scale="   35.078">  1  9  2 -1</clus>
<clus scale="   90.725">  7  8 -1 -1</clus>
<clus scale="   91.883">  5  6 -1 -1</clus>
<clus scale="  129.532">  2  5  1 -1</clus>
<clus scale="  121.036">  7 10 -1 -1</clus>
<clus scale="   35.078">  1  5  2 -1</clus>
</clustering>
</event>
<event>
10    2  0.4951045E-006  0.2422769E+03  0.7546771E-02  0.1153336E+00
         -3   -1    0    0    0  501 -0.00000000000E+00  0.00000000000E+00  0.55226916778E+03  0.55226916778E+03  0.00000000000E+00 0.  1.
         21   -1    0    0  503  502  0.00000000000E+00 -0.00000000000E+00 -0.35997161176E+03  0.35997161176E+03  0.00000000000E+00 0. -1.
         23    2    1    2    0    0 -0.17682326773E+01 -0.48908475334E+02  0.44962055072E+03  0.46134364544E+03  0.91017327771E+02 0.  0.
         23    2    1    2    0    0  0.57572109275E+02  0.43938351429E+02 -0.30747033028E+01  0.11593789570E+03  0.90482127333E+02 0.  0.
        -11    1    4    4    0    0  0.60899071684E+02 -0.28616265829E+01  0.19313021237E+02  0.63952158900E+02  0.00000000000E+00 0.  1.
         11    1    4    4    0    0 -0.33269624089E+01  0.46799978011E+02 -0.22387724540E+02  0.51985736802E+02  0.00000000000E+00 0. -1.
        -11    1    3    3    0    0  0.32346695610E+02 -0.57669893714E+02  0.33379342890E+03  0.34027955939E+03  0.00000000000E+00 0.  1.
         11    1    3    3    0    0 -0.34114928287E+02  0.87614183802E+01  0.11582712182E+03  0.12106408605E+03  0.00000000000E+00 0. -1.
         21    1    1    2  503  501 -0.69363189429E+02  0.99676623990E+02 -0.15769728707E+03  0.19903546359E+03  0.00000000000E+00 0. -1.
         -3    1    1    2    0  502  0.13559312831E+02 -0.94706500084E+02 -0.96551004327E+02  0.13592377481E+03  0.00000000000E+00 0.  1.
<scales pt_clust_5="13000.00000" pt_clust_6="13000.00000" pt_clust_7="13000.00000" pt_clust_8="13000.00000" pt_clust_9="113.25259" pt_clust_10="13000.00000"></scales>
<clustering>
<clus scale="   90.482">  5  6 -1 -1</clus>
<clus scale="   91.017">  7  8 -1 -1</clus>
<clus scale="   95.672">  5 10 -1 -1</clus>
<clus scale="  103.341">  1  7  2 -1</clus>
<clus scale="  113.253">  2  9  1 -1</clus>
<clus scale="  113.253">  2  5  1 -1</clus>
</clustering>
</event>
<event>
10    2  0.4951045E-006  0.2399945E+03  0.7546771E-02  0.1126236E+00
          1   -1    0    0  503    0 -0.00000000000E+00  0.00000000000E+00  0.83856383192E+03  0.83856383192E+03  0.00000000000E+00 0. -1.
         21   -1    0    0  501  502  0.00000000000E+00 -0.00000000000E+00 -0.12416884076E+03  0.12416884076E+03  0.00000000000E+00 0. -1.
         23    2    1    2    0    0  0.14736666693E+03  0.11847598524E+03  0.57106007930E+03  0.60865286252E+03  0.92710297612E+02 0.  0.
         23    2    1    2    0    0 -0.68284403729E+02 -0.44631609569E+02  0.17197400516E+03  0.21073280795E+03  0.90435156497E+02 0.  0.
        -11    1    3    3    0    0  0.73482550262E+02  0.20842283079E+02  0.12868061884E+03  0.14964219867E+03  0.00000000000E+00 0.  1.
         11    1    3    3    0    0  0.73884116664E+02  0.97633702157E+02  0.44237946046E+03  0.45901066385E+03  0.00000000000E+00 0. -1.
        -11    1    4    4    0    0 -0.41157702282E+02 -0.25898625500E+02  0.17097009174E+03  0.17775113932E+03  0.00000000000E+00 0.  1.
         11    1    4    4    0    0 -0.27126701447E+02 -0.18732984069E+02  0.10039134193E+01  0.32981668631E+02  0.00000000000E+00 0. -1.
         21    1    1    2  503  502 -0.55810081910E+01 -0.35371137263E+02 -0.46294751622E+02  0.58527506622E+02  0.00000000000E+00 0. -1.
          1    1    1    2  501    0 -0.73501255006E+02 -0.38473238404E+02  0.17655658324E+02  0.84819495587E+02  0.00000000000E+00 0. -1.
<scales pt_clust_5="13000.00000" pt_clust_6="13000.00000" pt_clust_7="13000.00000" pt_clust_8="13000.00000" pt_clust_9="35.80873" pt_clust_10="13000.00000"></scales>
<clustering>
<clus scale="   35.809">  2  9  1 -1</clus>
<clus scale="   90.435">  7  8 -1 -1</clus>
<clus scale="   92.710">  5  6 -1 -1</clus>
<clus scale="   93.921">  7 10 -1 -1</clus>
<clus scale="  204.476">  1  5  2 -1</clus>
<clus scale="   35.809">  2  5  1 -1</clus>
</clustering>
</event>
<event>
10    2  0.4951045E-006  0.6094076E+03  0.7546771E-02  0.1039855E+00
          4   -1    0    0  502    0 -0.00000000000E+00  0.00000000000E+00  0.59545425633E+03  0.59545425633E+03  0.00000000000E+00 0. -1.
         21   -1    0    0  503  502  0.00000000000E+00 -0.00000000000E+00 -0.10671283074E+04  0.10671283074E+04  0.00000000000E+00 0. -1.
         23    2    1    2    0    0 -0.80370835926E+02  0.44356842733E+02  0.15346635895E+03  0.19903843475E+03  0.87392072952E+02 0.  0.
         23    2    1    2    0    0 -0.19097328139E+03  0.29301309023E+03  0.21546385179E+03  0.42058165388E+03  0.90204162326E+02 0.  0.
        -11    1    4    4    0    0 -0.15390410527E+03  0.28329580891E+03  0.18569400345E+03  0.37205544194E+03  0.00000000000E+00 0. -1.
         11    1    4    4    0    0 -0.37069176126E+02  0.97172813253E+01  0.29769848339E+02  0.48526211939E+02  0.00000000000E+00 0.  1.
        -13    1    3    3    0    0 -0.21471787273E+02  0.20843853634E+02 -0.31294199962E+01  0.30088156350E+02  0.00000000000E+00 0.  1.
         13    1    3    3    0    0 -0.58899048653E+02  0.23512989098E+02  0.15659577895E+03  0.16895027840E+03  0.00000000000E+00 0. -1.
         21    1    1    2  503  501  0.35740245611E+03 -0.37862946554E+03 -0.73343792494E+03  0.89945982542E+03  0.00000000000E+00 0. -1.
          4    1    1    2  501    0 -0.86058338794E+02  0.41259532577E+02 -0.10716633689E+03  0.14350264968E+03  0.00000000000E+00 0. -1.
<scales pt_clust_5="13000.00000" pt_clust_6="13000.00000" pt_clust_7="13000.00000" pt_clust_8="13000.00000" pt_clust_9="503.38806" pt_clust_10="13000.00000"></scales>
<clustering>
<clus scale="   87.392">  7  8 -1 -1</clus>
<clus scale="   90.204">  5  6 -1 -1</clus>
<clus scale="   95.438">  5 10 -1 -1</clus>
<clus scale="  126.745">  1  7  2 -1</clus>
<clus scale="  503.388">  2  9  1 -1</clus>
<clus scale="  503.388">  2  5  1 -1</clus>
</clustering>
</event>
<event>
10    2  0.4951045E-006  0.3992547E+03  0.7546771E-02  0.1097248E+00
          3   -1    0    0  502    0 -0.00000000000E+00  0.00000000000E+00  0.18528507577E+03  0.18528507577E+03  0.00000000000E+00 0. -1.
         21   -1    0    0  503  502  0.00000000000E+00 -0.00000000000E+00 -0.42478481754E+03  0.42478481754E+03  0.00000000000E+00 0.  1.
         23    2    1    2    0    0  0.20802652712E+02 -0.21448935630E+00  0.41642648576E+01  0.93203032475E+02  0.90756089576E+02 0.  0.
         23    2    1    2    0    0  0.96709490263E+02 -0.14355771864E+03 -0.18929613797E+03  0.27232050542E+03  0.91454282206E+02 0.  0.
        -13    1    3    3    0    0  0.76439354375E+01  0.44387845103E+02  0.10559496466E+02  0.46262441651E+02  0.00000000000E+00 0. -1.
         13    1    3    3    0    0  0.13158717274E+02 -0.44602334460E+02 -0.63952316084E+01  0.46940590824E+02  0.00000000000E+00 0.  1.
        -13    1    4    4    0    0  0.77145313819E+02 -0.43307757419E+02 -0.11918510236E+03  0.14843197069E+03  0.00000000000E+00 0.  1.
         13    1    4    4    0    0  0.19564176445E+02 -0.10024996122E+03 -0.70111035611E+02  0.12388853473E+03  0.00000000000E+00 0. -1.
         21    1    1    2  503  501 -0.15493900094E+02  0.24093235469E+02 -0.80214950130E+02  0.85176188925E+02  0.00000000000E+00 0. -1.
          3    1    1    2  501    0 -0.10201824288E+03  0.11967897252E+03  0.25847081472E+02  0.15937016649E+03  0.00000000000E+00 0. -1.
<scales pt_clust_5="13000.00000" pt_clust_6="13000.00000" pt_clust_7="13000.00000" pt_clust_8="13000.00000" pt_clust_9="28.64516" pt_clust_10="13000.00000"></scales>
<clustering>
<clus scale="   28.645">  2  9  1 -1</clus>
<clus scale="   90.756">  5  6 -1 -1</clus>
<clus scale="   91.454">  7  8 -1 -1</clus>
<clus scale="   92.726">  1  5  2 -1</clus>
<clus scale="  156.028">  7 10 -1 -1</clus>
<clus scale="   28.645">  2  5  1 -1</clus>
</clustering>
</event>
<event>
10    2  0.4951045E-006  0.3853634E+03  0.7546771E-02  0.1098825E+00
         21   -1    0    0  501  502  0.00000000000E+00  0.00000000000E+00  0.36358393801E+03  0.36358393801E+03  0.00000000000E+00 0. -1.
          2   -1    0    0  503    0 -0.00000000000E+00 -0.00000000000E+00 -0.42112570626E+03  0.42112570626E+03  0.00000000000E+00 0. -1.
         23    2    1    2    0    0 -0.12198300212E+02  0.32131961814E+02  0.11243814722E+01  0.95168737050E+02  0.88738733256E+02 0.  0.
         23    2    1    2    0    0 -0.35135490826E+02  0.28761485583E+02 -0.33731031726E+03  0.35252838555E+03  0.91849260865E+02 0.  0.
        -11    1    3    3    0    0  0.13101221584E+02 -0.21986758046E+02 -0.19276324237E+02  0.32041164343E+02  0.00000000000E+00 0.  1.
         11    1    3    3    0    0 -0.25299521796E+02  0.54118719860E+02  0.20400705709E+02  0.63127572707E+02  0.00000000000E+00 0. -1.
        -13    1    4    4    0    0 -0.86008862086E+01  0.55421455287E+02 -0.26660590583E+03  0.27244122664E+03  0.00000000000E+00 0. -1.
         13    1    4    4    0    0 -0.26534604618E+02 -0.26659969705E+02 -0.70704411426E+02  0.80087158908E+02  0.00000000000E+00 0.  1.
         21    1    1    2  503  502  0.54013524329E+01  0.32313491645E+02  0.21308353041E+03  0.21558740057E+03  0.00000000000E+00 0. -1.
          2    1    1    2  501    0  0.41932438606E+02 -0.93206939042E+02  0.65560637129E+02  0.12142512110E+03  0.00000000000E+00 0. -1.
<scales pt_clust_5="13000.00000" pt_clust_6="13000.00000" pt_clust_7="13000.00000" pt_clust_8="13000.00000" pt_clust_9="32.76181" pt_clust_10="13000.00000"></scales>
<clustering>
<clus scale="   32.762">  1  9  2 -1</clus>
<clus scale="   88.739">  5  6 -1 -1</clus>
<clus scale="   91.849">  7  8 -1 -1</clus>
<clus scale="   85.892">  7 10 -1 -1</clus>
<clus scale="   98.969">  2  5  1 -1</clus>
<clus scale="   32.762">  1  5  2 -1</clus>
</clustering>
</event>
<event>
10    2  0.4951045E-006  0.7180832E+03  0.7546771E-02  0.1007070E+00
         21   -1    0    0  503  502  0.00000000000E+00  0.00000000000E+00  0.17088551859E+04  0.17088551859E+04  0.00000000000E+00 0.  1.
         -3   -1    0    0    0  501 -0.00000000000E+00 -0.00000000000E+00 -0.16299743657E+03  0.16299743657E+03  0.00000000000E+00 0.  1.
         23    2    1    2    0    0  0.15264919303E+03 -0.46200642173E+02  0.46435663343E+03  0.50018030030E+03  0.95482848343E+02 0.  0.
         23    2    1    2    0    0 -0.15808755246E+03 -0.24775530618E+03  0.99904257388E+02  0.32330091667E+03  0.90378405013E+02 0.  0.
        -11    1    3    3    0    0  0.91423004297E+02 -0.74575615683E+02  0.27891126715E+03  0.30283854298E+03  0.00000000000E+00 0.  1.
         11    1    3    3    0    0  0.61226188733E+02  0.28374973511E+02  0.18544536628E+03  0.19734175733E+03  0.00000000000E+00 0. -1.
        -13    1    4    4    0    0 -0.11299844557E+03 -0.11011900769E+03  0.23410977717E+02  0.15950836477E+03  0.00000000000E+00 0.  1.
         13    1    4    4    0    0 -0.45089106896E+02 -0.13763629849E+03  0.76493279671E+02  0.16379255190E+03  0.00000000000E+00 0. -1.
         21    1    1    2  503  501  0.89751318551E+02  0.44555357478E+02  0.20132356667E+03  0.22488143000E+03  0.00000000000E+00 0. -1.
         -3    1    1    2    0  502 -0.84312959119E+02  0.24940059087E+03  0.78027329188E+03  0.82348997555E+03  0.00000000000E+00 0.  1.
<scales pt_clust_5="13000.00000" pt_clust_6="13000.00000" pt_clust_7="13000.00000" pt_clust_8="13000.00000" pt_clust_9="100.20219" pt_clust_10="13000.00000"></scales>
<clustering>
<clus scale="   90.378">  7  8 -1 -1</clus>
<clus scale="   95.483">  5  6 -1 -1</clus>
<clus scale="  100.202">  1  9  2 -1</clus>
<clus scale="  207.616">  2  5  1 -1</clus>
<clus scale="  266.168">  7 10 -1 -1</clus>
<clus scale="  100.202">  1  5  2 -1</clus>
</clustering>
</event>
<event>
10    2  0.4951045E-006  0.2869969E+03  0.7546771E-02  0.1127553E+00
          1   -1    0    0  503    0 -0.00000000000E+00  0.00000000000E+00  0.25106544084E+03  0.25106544084E+03  0.00000000000E+00 0. -1.
         21   -1    0    0  501  502  0.00000000000E+00 -0.00000000000E+00 -0.28862061650E+03  0.28862061650E+03  0.00000000000E+00 0.  1.
         23    2    1    2    0    0  0.46709742883E+02 -0.46930672787E+02  0.27328139419E+02  0.11552219446E+03  0.90632566339E+02 0.  0.
         23    2    1    2    0    0 -0.13132601250E+02  0.29047990883E+02  0.15399324387E+03  0.18092997201E+03  0.89473373835E+02 0.  0.
        -11    1    4    4    0    0  0.29577572979E+02 -0.10805463390E+02  0.28351990947E+02  0.42372470462E+02  0.00000000000E+00 0.  1.
         11    1    4    4    0    0 -0.42710174229E+02  0.39853454273E+02  0.12564125292E+03  0.13855750155E+03  0.00000000000E+00 0. -1.
        -11    1    3    3    0    0  0.48507166010E+02  0.28865060598E+01 -0.14217101023E+02  0.50630060568E+02  0.00000000000E+00 0.  1.
         11    1    3    3    0    0 -0.17974231273E+01 -0.49817178847E+02  0.41545240442E+02  0.64892133896E+02  0.00000000000E+00 0. -1.
         21    1    1    2  503  502  0.30575126539E+02  0.15375409095E+01 -0.12279343791E+03  0.12655208725E+03  0.00000000000E+00 0.  1.
          1    1    1    2  501    0 -0.64152268172E+02  0.16345140994E+02 -0.96083121038E+02  0.11668180361E+03  0.00000000000E+00 0. -1.
<scales pt_clust_5="13000.00000" pt_clust_6="13000.00000" pt_clust_7="13000.00000" pt_clust_8="13000.00000" pt_clust_9="30.61376" pt_clust_10="13000.00000"></scales>
<clustering>
<clus scale="   30.614">  2  9  1 -1</clus>
<clus scale="   89.473">  5  6 -1 -1</clus>
<clus scale="   47.586">  5 10 -1 -1</clus>
<clus scale="   90.633">  7  8 -1 -1</clus>
<clus scale="  115.740">  1  7  2 -1</clus>
<clus scale="   30.614">  2  5  1 -1</clus>
</clustering>
</event>
<event>
10    2  0.4951045E-006  0.2851266E+03  0.7546771E-02  0.1102985E+00
         21   -1    0    0  503  502  0.00000000000E+00  0.00000000000E+00  0.18250831149E+03  0.18250831149E+03  0.00000000000E+00 0. -1.
          1   -1    0    0  502    0 -0.00000000000E+00 -0.00000000000E+00 -0.10113039326E+04  0.10113039326E+04  0.00000000000E+00 0. -1.
         23    2    1    2    0    0  0.18776288733E+03  0.65812643557E+02 -0.82681410314E+03  0.85532804660E+03  0.91533055429E+02 0.  0.
         23    2    1    2    0    0 -0.97403974785E+02 -0.13465847593E+03  0.55725629849E+02  0.19723301913E+03  0.90416141081E+02 0.  0.
        -11    1    3    3    0    0  0.83385477304E+02  0.46378140612E+02 -0.22776634053E+03  0.24694447884E+03  0.00000000000E+00 0.  1.
         11    1    3    3    0    0  0.10437741003E+03  0.19434502945E+02 -0.59904776261E+03  0.60838356776E+03  0.00000000000E+00 0. -1.
        -13    1    4    4    0    0 -0.23956595521E+02 -0.36024676043E+02  0.60249751720E+02  0.74173636390E+02  0.00000000000E+00 0. -1.
         13    1    4    4    0    0 -0.73447379264E+02 -0.98633799888E+02 -0.45241218706E+01  0.12305938274E+03  0.00000000000E+00 0.  1.
         21    1    1    2  503  501 -0.10565385076E+02  0.43411975347E+02 -0.14237235679E+02  0.46892705671E+02  0.00000000000E+00 0. -1.
          1    1    1    2  501    0 -0.79793527470E+02  0.25433857027E+02 -0.43469912149E+02  0.94358472708E+02  0.00000000000E+00 0. -1.
<scales pt_clust_5="13000.00000" pt_clust_6="13000.00000" pt_clust_7="13000.00000" pt_clust_8="13000.00000" pt_clust_9="44.67916" pt_clust_10="13000.00000"></scales>
<clustering>
<clus scale="   44.679">  1  9  2 -1</clus>
<clus scale="   90.416">  7  8 -1 -1</clus>
<clus scale="   87.504">  7 10 -1 -1</clus>
<clus scale="   91.533">  5  6 -1 -1</clus>
<clus scale="  219.383">  2  5  1 -1</clus>
<clus scale="   44.679">  1  5  2 -1</clus>
</clustering>
</event>
<event>
10    2  0.4951045E-006  0.1375242E+03  0.7546771E-02  0.1233359E+00
         21   -1    0    0  501  502  0.00000000000E+00  0.00000000000E+00  0.30261233300E+03  0.30261233300E+03  0.00000000000E+00 0.  1.
          1   -1    0    0  503    0 -0.00000000000E+00 -0.00000000000E+00 -0.25695891347E+03  0.25695891347E+03  0.00000000000E+00 0. -1.
         23    2    1    2    0    0  0.22398972725E+02 -0.18098300563E+02 -0.15150118330E+03  0.17892876080E+03  0.90739354397E+02 0.  0.
         23    2    1    2    0    0 -0.36855499100E+02 -0.25901870649E+02 -0.27849012198E+02  0.10754096307E+03  0.93596242131E+02 0.  0.
        -11    1    4    4    0    0 -0.33787813417E+02 -0.56432363520E+02  0.48475985356E+00  0.65775854081E+02  0.00000000000E+00 0.  1.
         11    1    4    4    0    0 -0.30676856828E+01  0.30530492871E+02 -0.28333772051E+02  0.41765108991E+02  0.00000000000E+00 0. -1.
        -13    1    3    3    0    0 -0.68666786468E+01 -0.50325370033E+02 -0.69405530393E+02  0.86005359099E+02  0.00000000000E+00 0.  1.
         13    1    3    3    0    0  0.29265651372E+02  0.32227069470E+02 -0.82095652907E+02  0.92923401697E+02  0.00000000000E+00 0. -1.
         21    1    1    2  503  502  0.60957263873E+02  0.29033016919E+02  0.21208364022E+03  0.22257172897E+03  0.00000000000E+00 0.  1.
          1    1    1    2  501    0 -0.46500737498E+02  0.14967154293E+02  0.12919974814E+02  0.50529793634E+02  0.00000000000E+00 0. -1.
<scales pt_clust_5="13000.00000" pt_clust_6="13000.00000" pt_clust_7="13000.00000" pt_clust_8="13000.00000" pt_clust_9="67.51818" pt_clust_10="13000.00000"></scales>
<clustering>
<clus scale="   67.518">  1  9  2 -1</clus>
<clus scale="   90.739">  7  8 -1 -1</clus>
<clus scale="   93.596">  5  6 -1 -1</clus>
<clus scale="   35.094">  5 10 -1 -1</clus>
<clus scale="   97.216">  2  7  1 -1</clus>
<clus scale="   67.518">  1  5  2 -1</clus>
</clustering>
</event>
<event>
10    2  0.4951045E-006  0.2953582E+03  0.7546771E-02  0.1126293E+00
         21   -1    0    0  501  502  0.00000000000E+00  0.00000000000E+00  0.28313769702E+03  0.28313769702E+03  0.00000000000E+00 0. -1.
          2   -1    0    0  503    0 -0.00000000000E+00 -0.00000000000E+00 -0.37517249468E+03  0.37517249468E+03  0.00000000000E+00 0. -1.
         23    2    1    2    0    0  0.50968671835E+02 -0.43521068931E+02 -0.17534486753E+03  0.20552659916E+03  0.83686745922E+02 0.  0.
         23    2    1    2    0    0 -0.90792647518E+02  0.71459957767E+02 -0.14995059520E+03  0.20971457009E+03  0.90250703603E+02 0.  0.
        -11    1    3    3    0    0  0.10943948672E+02  0.20202795304E+02 -0.12549362271E+02  0.26180325514E+02  0.00000000000E+00 0.  1.
         11    1    3    3    0    0  0.40024723163E+02 -0.63723864235E+02 -0.16279550526E+03  0.17934627365E+03  0.00000000000E+00 0. -1.
        -13    1    4    4    0    0 -0.69101673793E+02  0.68149811553E+02 -0.15875540912E+03  0.18607180888E+03  0.00000000000E+00 0. -1.
         13    1    4    4    0    0 -0.21690973725E+02  0.33101462134E+01  0.88048139270E+01  0.23642761205E+02  0.00000000000E+00 0.  1.
         21    1    1    2  503  502  0.42717533720E+02 -0.28107232745E+01  0.13641109397E+03  0.14297088659E+03  0.00000000000E+00 0. -1.
          2    1    1    2  501    0 -0.28935580367E+01 -0.25128165561E+02  0.96849571097E+02  0.10009813587E+03  0.00000000000E+00 0. -1.
<scales pt_clust_5="13000.00000" pt_clust_6="13000.00000" pt_clust_7="13000.00000" pt_clust_8="13000.00000" pt_clust_9="42.80990" pt_clust_10="13000.00000"></scales>
<clustering>
<clus scale="   42.810">  1  9  2 -1</clus>
<clus scale="   83.687">  5  6 -1 -1</clus>
<clus scale="   90.251">  7  8 -1 -1</clus>
<clus scale="   37.825">  7 10 -1 -1</clus>
<clus scale="  109.542">  2  5  1 -1</clus>
<clus scale="   42.810">  1  5  2 -1</clus>
</clustering>
</event>
<event>
10    2  0.4951045E-006  0.2281082E+03  0.7546771E-02  0.1163980E+00
         21   -1    0    0  501  502  0.00000000000E+00  0.00000000000E+00  0.29885620040E+03  0.29885620040E+03  0.00000000000E+00 0. -1.
          2   -1    0    0  503    0 -0.00000000000E+00 -0.00000000000E+00 -0.26269474076E+03  0.26269474076E+03  0.00000000000E+00 0. -1.
         23    2    1    2    0    0 -0.12456656740E+02 -0.18999670716E+00 -0.36421573255E+02  0.10056510830E+03  0.92906434728E+02 0.  0.
         23    2    1    2    0    0  0.44066628435E+02  0.31542642429E+02 -0.22440105823E+02  0.11288777305E+03  0.96453537637E+02 0.  0.
        -11    1    4    4    0    0  0.30972769638E+02  0.53291050722E+02  0.18816849160E+02  0.64446274977E+02  0.00000000000E+00 0.  1.
         11    1    4    4    0    0  0.13093858797E+02 -0.21748408293E+02 -0.41256954983E+02  0.48441498077E+02  0.00000000000E+00 0. -1.
        -11    1    3    3    0    0 -0.43851902530E+02 -0.22982412874E+02 -0.36929524792E+02  0.61765447123E+02  0.00000000000E+00 0. -1.
         11    1    3    3    0    0  0.31395245790E+02  0.22792416167E+02  0.50795153677E+00  0.38799661180E+02  0.00000000000E+00 0.  1.
         21    1    1    2  503  502  0.13492315886E+02  0.88325587351E+02  0.17553813657E+03  0.19696976762E+03  0.00000000000E+00 0. -1.
          2    1    1    2  501    0 -0.45102287581E+02 -0.11967823307E+03 -0.80514997850E+02  0.15112829217E+03  0.00000000000E+00 0. -1.
<scales pt_clust_5="13000.00000" pt_clust_6="13000.00000" pt_clust_7="13000.00000" pt_clust_8="13000.00000" pt_clust_9="89.35016" pt_clust_10="13000.00000"></scales>
<clustering>
<clus scale="   89.350">  1  9  2 -1</clus>
<clus scale="   92.906">  7  8 -1 -1</clus>
<clus scale="   96.454">  5  6 -1 -1</clus>
<clus scale="   96.588">  2  7  1 -1</clus>
<clus scale="   92.545">  5 10 -1 -1</clus>
<clus scale="   89.350">  1  5  2 -1</clus>
</clustering>
</event>
<event>
10    2  0.4951045E-006  0.3087568E+03  0.7546771E-02  0.1099804E+00
         21   -1    0    0  503  502  0.00000000000E+00  0.00000000000E+00  0.75376058748E+03  0.75376058748E+03  0.00000000000E+00 0. -1.
         -4   -1    0    0    0  501 -0.00000000000E+00 -0.00000000000E+00 -0.11242239211E+03  0.11242239211E+03  0.00000000000E+00 0.  1.
         23    2    1    2    0    0  0.10023677709E+03 -0.13290871746E+03  0.92349361231E+02  0.21159064558E+03  0.92358313751E+02 0.  0.
         23    2    1    2    0    0  0.39275954971E+01 -0.49450457899E+01  0.26961964529E+02  0.95664492199E+02  0.91568925144E+02 0.  0.
        -11    1    3    3    0    0  0.79263460190E+02 -0.14414074090E+03  0.69409688783E+02  0.17854118350E+03  0.00000000000E+00 0. -1.
         11    1    3    3    0    0  0.20973316902E+02  0.11232023432E+02  0.22939672448E+02  0.33049462087E+02  0.00000000000E+00 0.  1.
        -13    1    4    4    0    0 -0.14249407607E+02 -0.45202749837E+02  0.10647099876E+02  0.48576691383E+02  0.00000000000E+00 0.  1.
         13    1    4    4    0    0  0.18177003104E+02  0.40257704047E+02  0.16314864652E+02  0.47087800815E+02  0.00000000000E+00 0. -1.
         21    1    1    2  503  501 -0.31688075507E+02 -0.70947860344E+01  0.14422080739E+03  0.14783136136E+03  0.00000000000E+00 0. -1.
         -4    1    1    2    0  502 -0.72476297081E+02  0.14494854929E+03  0.37780606223E+03  0.41109648045E+03  0.00000000000E+00 0.  1.
<scales pt_clust_5="13000.00000" pt_clust_6="13000.00000" pt_clust_7="13000.00000" pt_clust_8="13000.00000" pt_clust_9="32.47261" pt_clust_10="13000.00000"></scales>
<clustering>
<clus scale="   32.473">  1  9  2 -1</clus>
<clus scale="   91.569">  7  8 -1 -1</clus>
<clus scale="   92.358">  5  6 -1 -1</clus>
<clus scale="  168.385">  7 10 -1 -1</clus>
<clus scale="  187.593">  2  5  1 -1</clus>
<clus scale="   32.473">  1  5  2 -1</clus>
</clustering>
</event>
<event>
10    2  0.4951045E-006  0.6588424E+03  0.7546771E-02  0.1027084E+00
         21   -1    0    0  501  502  0.00000000000E+00  0.00000000000E+00  0.16433813065E+03  0.16433813065E+03  0.00000000000E+00 0. -1.
          1   -1    0    0  503    0 -0.00000000000E+00 -0.00000000000E+00 -0.12505961000E+04  0.12505961000E+04  0.00000000000E+00 0. -1.
         23    2    1    2    0    0  0.10152355196E+03 -0.70867159378E+02 -0.13084147064E+03  0.20216785516E+03  0.91777804172E+02 0.  0.
         23    2    1    2    0    0 -0.26064645431E+03 -0.96777419095E+02 -0.82440038230E+03  0.87525031051E+03  0.95523152773E+02 0.  0.
        -11    1    4    4    0    0 -0.10114305454E+03 -0.41082432269E+02 -0.19403288649E+03  0.22263522804E+03  0.00000000000E+00 0.  1.
         11    1    4    4    0    0 -0.15950339977E+03 -0.55694986826E+02 -0.63036749581E+03  0.65261508247E+03  0.00000000000E+00 0. -1.
        -11    1    3    3    0    0  0.88335092310E+02 -0.89675015587E+02 -0.12712020726E+03  0.17889730028E+03  0.00000000000E+00 0.  1.
         11    1    3    3    0    0  0.13188459653E+02  0.18807856208E+02 -0.37212633802E+01  0.23270554878E+02  0.00000000000E+00 0. -1.
         21    1    1    2  503  502 -0.41286619991E+02  0.85642399647E+01  0.12711711652E+02  0.44039968319E+02  0.00000000000E+00 0.  1.
          1    1    1    2  501    0  0.20040952234E+03  0.15908033851E+03 -0.14372782803E+03  0.29347609663E+03  0.00000000000E+00 0. -1.
<scales pt_clust_5="13000.00000" pt_clust_6="13000.00000" pt_clust_7="13000.00000" pt_clust_8="13000.00000" pt_clust_9="42.16552" pt_clust_10="13000.00000"></scales>
<clustering>
<clus scale="   42.166">  1  9  2 -1</clus>
<clus scale="   91.778">  7  8 -1 -1</clus>
<clus scale="   95.523">  5  6 -1 -1</clus>
<clus scale="  146.142">  2  7  1 -1</clus>
<clus scale="  246.343">  5 10 -1 -1</clus>
<clus scale="   42.166">  1  5  2 -1</clus>
</clustering>
</event>
<event>
10    2  0.4951045E-006  0.1258212E+03  0.7546771E-02  0.1247015E+00
         21   -1    0    0  503  502  0.00000000000E+00  0.00000000000E+00  0.10112382275E+03  0.10112382275E+03  0.00000000000E+00 0. -1.
          1   -1    0    0  502    0 -0.00000000000E+00 -0.00000000000E+00 -0.19623217291E+03  0.19623217291E+03  0.00000000000E+00 0. -1.
         23    2    1    2    0    0 -0.35360619141E+01 -0.45321656465E+02 -0.80124701236E+02  0.12762268264E+03  0.88323411945E+02 0.  0.
         23    2    1    2    0    0 -0.26194955013E+02  0.35987835098E+02 -0.41535669312E+02  0.10654435768E+03  0.87436767921E+02 0.  0.
        -13    1    4    4    0    0 -0.56445097834E+02  0.37267542289E+02 -0.25521649164E+02  0.72292968910E+02  0.00000000000E+00 0. -1.
         13    1    4    4    0    0  0.30250142821E+02 -0.12797071904E+01 -0.16014020148E+02  0.34251388768E+02  0.00000000000E+00 0.  1.
        -13    1    3    3    0    0  0.18583337366E+02 -0.51171810939E+02 -0.87954348021E+02  0.10344013727E+03  0.00000000000E+00 0. -1.
         13    1    3    3    0    0 -0.22119399280E+02  0.58501544739E+01  0.78296467851E+01  0.24182545371E+02  0.00000000000E+00 0.  1.
         21    1    1    2  503  501  0.80468294348E+01  0.19979106814E+02  0.31858961456E+02  0.38456593688E+02  0.00000000000E+00 0. -1.
          1    1    1    2  501    0  0.21684187492E+02 -0.10645285448E+02 -0.53069410755E+01  0.24732361655E+02  0.00000000000E+00 0. -1.
<scales pt_clust_5="13000.00000" pt_clust_6="13000.00000" pt_clust_7="13000.00000" pt_clust_8="13000.00000" pt_clust_9="21.53871" pt_clust_10="13000.00000"></scales>
<clustering>
<clus scale="   21.539">  1  9  2 -1</clus>
<clus scale="   87.437">  5  6 -1 -1</clus>
<clus scale="   24.132">  5 10 -1 -1</clus>
<clus scale="   88.323">  7  8 -1 -1</clus>
<clus scale="   96.204">  2  7  1 -1</clus>
<clus scale="   21.539">  1  5  2 -1</clus>
</clustering>
</event>
<event>
10    2  0.4951045E-006  0.2401351E+03  0.7546771E-02  0.1145232E+00
         21   -1    0    0  503  502  0.00000000000E+00  0.00000000000E+00  0.46378788957E+03  0.46378788957E+03  0.00000000000E+00 0.  1.
          2   -1    0    0  502    0 -0.00000000000E+00 -0.00000000000E+00 -0.54659894414E+03  0.54659894414E+03  0.00000000000E+00 0. -1.
         23    2    1    2    0    0  0.33522176507E+02  0.83368357072E+02 -0.22667679173E+03  0.26063011803E+03  0.92041682070E+02 0.  0.
         23    2    1    2    0    0 -0.18167280655E+02 -0.12422065555E+03 -0.17075136609E+03  0.23135334757E+03  0.92776726936E+02 0.  0.
        -11    1    4    4    0    0  0.16788094069E+02 -0.61523466168E+02 -0.13886149034E+03  0.15280540073E+03  0.00000000000E+00 0. -1.
         11    1    4    4    0    0 -0.34955374725E+02 -0.62697189382E+02 -0.31889875746E+02  0.78547946846E+02  0.00000000000E+00 0.  1.
        -11    1    3    3    0    0  0.36225362615E+01  0.36867739356E+02 -0.11986610849E+02  0.38936253207E+02  0.00000000000E+00 0.  1.
         11    1    3    3    0    0  0.29899640245E+02  0.46500617717E+02 -0.21469018088E+03  0.22169386482E+03  0.00000000000E+00 0. -1.
         21    1    1    2  503  501 -0.32522119036E+02  0.16641561898E+03  0.34820502171E+03  0.38729650607E+03  0.00000000000E+00 0.  1.
          2    1    1    2  501    0  0.17167223185E+02 -0.12556332050E+03 -0.33587918467E+02  0.13110686204E+03  0.00000000000E+00 0. -1.
<scales pt_clust_5="13000.00000" pt_clust_6="13000.00000" pt_clust_7="13000.00000" pt_clust_8="13000.00000" pt_clust_9="174.45637" pt_clust_10="13000.00000"></scales>
<clustering>
<clus scale="   92.042">  7  8 -1 -1</clus>
<clus scale="   92.777">  5  6 -1 -1</clus>
<clus scale="  126.732">  5 10 -1 -1</clus>
<clus scale="  128.630">  2  7  1 -1</clus>
<clus scale="  174.456">  1  9  2 -1</clus>
<clus scale="  174.456">  1  5  2 -1</clus>
</clustering>
</event>
<event>
10    2  0.4951045E-006  0.3477357E+03  0.7546771E-02  0.1108616E+00
          1   -1    0    0  503    0 -0.00000000000E+00  0.00000000000E+00  0.62950282078E+03  0.62950282078E+03  0.00000000000E+00 0. -1.
         21   -1    0    0  501  502  0.00000000000E+00 -0.00000000000E+00 -0.17905612994E+03  0.17905612994E+03  0.00000000000E+00 0.  1.
         23    2    1    2    0    0 -0.47920546856E+02  0.15794300595E+02  0.35497928371E+03  0.37019151515E+03  0.92117464568E+02 0.  0.
         23    2    1    2    0    0  0.18517640217E+03 -0.37940242723E+01  0.97852068019E+02  0.22853457654E+03  0.91369201159E+02 0.  0.
        -13    1    4    4    0    0  0.13315239530E+03 -0.30635079640E+02  0.31815935527E+02  0.14028657182E+03  0.00000000000E+00 0.  1.
         13    1    4    4    0    0  0.52024006867E+02  0.26841055368E+02  0.66036132492E+02  0.88248004727E+02  0.00000000000E+00 0. -1.
        -13    1    3    3    0    0 -0.20201052770E+02 -0.36451974542E+02  0.20031731915E+03  0.20460659162E+03  0.00000000000E+00 0.  1.
         13    1    3    3    0    0 -0.27719494086E+02  0.52246275137E+02  0.15466196456E+03  0.16558492353E+03  0.00000000000E+00 0. -1.
         21    1    1    2  503  502  0.21789782379E+00 -0.43145846568E+02 -0.45228467840E+02  0.62507806381E+02  0.00000000000E+00 0.  1.
          1    1    1    2  501    0 -0.13747375313E+03  0.31145570245E+02  0.42843806950E+02  0.14732505266E+03  0.00000000000E+00 0. -1.
<scales pt_clust_5="13000.00000" pt_clust_6="13000.00000" pt_clust_7="13000.00000" pt_clust_8="13000.00000" pt_clust_9="43.14640" pt_clust_10="13000.00000"></scales>
<clustering>
<clus scale="   43.146">  2  9  1 -1</clus>
<clus scale="   91.369">  5  6 -1 -1</clus>
<clus scale="   92.117">  7  8 -1 -1</clus>
<clus scale="  104.663">  1  7  2 -1</clus>
<clus scale="  155.839">  5 10 -1 -1</clus>
<clus scale="   43.146">  2  5  1 -1</clus>
</clustering>
</event>
<event>
10    2  0.4951045E-006  0.3573965E+03  0.7546771E-02  0.1083731E+00
          1   -1    0    0  503    0 -0.00000000000E+00  0.00000000000E+00  0.68210587929E+03  0.68210587929E+03  0.00000000000E+00 0. -1.
         21   -1    0    0  501  502  0.00000000000E+00 -0.00000000000E+00 -0.23896242092E+03  0.23896242092E+03  0.00000000000E+00 0.  1.
         23    2    1    2    0    0  0.12362861678E+03 -0.10488546708E+03  0.11988798546E+03  0.22022471661E+03  0.88548295630E+02 0.  0.
         23    2    1    2    0    0 -0.63485821894E+02  0.32890248814E+02  0.36026011046E+02  0.11980837397E+03  0.89128867113E+02 0.  0.
        -11    1    4    4    0    0 -0.41044699688E+02  0.62956184648E+02  0.14454975689E+02  0.76531659332E+02  0.00000000000E+00 0. -1.
         11    1    4    4    0    0 -0.22441122206E+02 -0.30065935834E+02  0.21571035356E+02  0.43276714637E+02  0.00000000000E+00 0.  1.
        -13    1    3    3    0    0  0.88010220487E+02 -0.32740152034E+02  0.10033916064E+03  0.13742512006E+03  0.00000000000E+00 0. -1.
         13    1    3    3    0    0  0.35618396292E+02 -0.72145315045E+02  0.19548824816E+02  0.82799596551E+02  0.00000000000E+00 0.  1.
         21    1    1    2  503  502 -0.25670936069E+03  0.14056305666E+03  0.20438465471E+03  0.35697444705E+03  0.00000000000E+00 0.  1.
          1    1    1    2  501    0  0.19656656581E+03 -0.68567838393E+02  0.82844807145E+02  0.22406076258E+03  0.00000000000E+00 0. -1.
<scales pt_clust_5="13000.00000" pt_clust_6="13000.00000" pt_clust_7="13000.00000" pt_clust_8="13000.00000" pt_clust_9="206.39752" pt_clust_10="13000.00000"></scales>
<clustering>
<clus scale="   88.548">  7  8 -1 -1</clus>
<clus scale="   89.129">  5  6 -1 -1</clus>
<clus scale="  184.732">  1  7  2 -1</clus>
<clus scale="  206.398">  2  9  1 -1</clus>
<clus scale="  111.380">  5 10 -1 -1</clus>
<clus scale="  206.398">  2  5  1 -1</clus>
</clustering>
</event>
<event>
10    2  0.4951045E-006  0.1612062E+03  0.7546771E-02  0.1205811E+00
          2   -1    0    0  503    0 -0.00000000000E+00  0.00000000000E+00  0.85294852870E+03  0.85294852870E+03  0.00000000000E+00 0. -1.
         21   -1    0    0  501  502  0.00000000000E+00 -0.00000000000E+00 -0.85013285025E+02  0.85013285025E+02  0.00000000000E+00 0.  1.
         23    2    1    2    0    0  0.52990724064E+02 -0.23031175717E+02  0.37245419435E+03  0.38717955233E+03  0.88585704065E+02 0.  0.
         23    2    1    2    0    0 -0.60191845207E+02  0.26259316964E+02  0.42624427424E+03  0.44215694202E+03  0.97498564616E+02 0.  0.
        -13    1    4    4    0    0  0.21581225098E+02 -0.12077820557E+02  0.59062313822E+02  0.64031085733E+02  0.00000000000E+00 0.  1.
         13    1    4    4    0    0 -0.81773070305E+02  0.38337137521E+02  0.36718196042E+03  0.37812585629E+03  0.00000000000E+00 0. -1.
        -13    1    3    3    0    0 -0.23769543142E+02 -0.14536955003E+02  0.80585193155E+02  0.85265981480E+02  0.00000000000E+00 0. -1.
         13    1    3    3    0    0  0.76760267206E+02 -0.84942207146E+01  0.29186900119E+03  0.30191357085E+03  0.00000000000E+00 0.  1.
         21    1    1    2  503  502 -0.51696661724E+01 -0.31177109062E+02 -0.59053329033E+02  0.66977856398E+02  0.00000000000E+00 0.  1.
          2    1    1    2  501    0  0.12370787315E+02  0.27948967815E+02  0.28290104124E+02  0.41647462973E+02  0.00000000000E+00 0. -1.
<scales pt_clust_5="13000.00000" pt_clust_6="13000.00000" pt_clust_7="13000.00000" pt_clust_8="13000.00000" pt_clust_9="31.60281" pt_clust_10="13000.00000"></scales>
<clustering>
<clus scale="   31.603">  2  9  1 -1</clus>
<clus scale="   88.586">  7  8 -1 -1</clus>
<clus scale="   97.499">  5  6 -1 -1</clus>
<clus scale="   21.408">  5 10 -1 -1</clus>
<clus scale="  107.680">  1  7  2 -1</clus>
<clus scale="   31.603">  2  5  1 -1</clus>
</clustering>
</event>
<event>
10    2  0.4951045E-006  0.2334624E+03  0.7546771E-02  0.1147850E+00
         21   -1    0    0  503  502  0.00000000000E+00  0.00000000000E+00  0.19330283648E+03  0.19330283648E+03  0.00000000000E+00 0. -1.
          3   -1    0    0  502    0 -0.00000000000E+00 -0.00000000000E+00 -0.46034275884E+03  0.46034275884E+03  0.00000000000E+00 0. -1.
         23    2    1    2    0    0  0.89640977933E+02 -0.37927510932E+02 -0.14583847625E+03  0.19637526443E+03  0.88432925510E+02 0.  0.
         23    2    1    2    0    0  0.45207529349E+02 -0.90960247073E+02 -0.23944955209E+02  0.13919797894E+03  0.92115303852E+02 0.  0.
        -11    1    3    3    0    0  0.77603438500E+02  0.30590627811E+01 -0.12876257257E+03  0.15037104651E+03  0.00000000000E+00 0. -1.
         11    1    3    3    0    0  0.12037539433E+02 -0.40986573713E+02 -0.17075903682E+02  0.46004217925E+02  0.00000000000E+00 0.  1.
        -11    1    4    4    0    0  0.17867164010E+02 -0.57364755562E+02 -0.58447259852E+02  0.83821434697E+02  0.00000000000E+00 0.  1.
         11    1    4    4    0    0  0.27340365338E+02 -0.33595491511E+02  0.34502304643E+02  0.55376544244E+02  0.00000000000E+00 0. -1.
         21    1    1    2  503  501 -0.87815312895E+02  0.19449612781E+03 -0.10336298386E+03  0.23711638355E+03  0.00000000000E+00 0. -1.
          3    1    1    2  501    0 -0.47033194387E+02 -0.65608369810E+02  0.61064929563E+01  0.80955968400E+02  0.00000000000E+00 0. -1.
<scales pt_clust_5="13000.00000" pt_clust_6="13000.00000" pt_clust_7="13000.00000" pt_clust_8="13000.00000" pt_clust_9="175.70492" pt_clust_10="13000.00000"></scales>
<clustering>
<clus scale="   88.433">  5  6 -1 -1</clus>
<clus scale="   92.115">  7  8 -1 -1</clus>
<clus scale="   80.725">  7 10 -1 -1</clus>
<clus scale="  131.508">  2  5  1 -1</clus>
<clus scale="  175.705">  1  9  2 -1</clus>
<clus scale="  175.705">  1  5  2 -1</clus>
</clustering>
</event>
<event>
10    2  0.4951045E-006  0.1893434E+03  0.7546771E-02  0.1173592E+00
         21   -1    0    0  501  502  0.00000000000E+00  0.00000000000E+00  0.10907738218E+03  0.10907738218E+03  0.00000000000E+00 0. -1.
          3   -1    0    0  503    0 -0.00000000000E+00 -0.00000000000E+00 -0.65641838443E+03  0.65641838443E+03  0.00000000000E+00 0. -1.
         23    2    1    2    0    0  0.34992749537E+01 -0.90597278447E+02 -0.34829406214E+03  0.37142470236E+03  0.91801111210E+02 0.  0.
         23    2    1    2    0    0 -0.32764264719E+01  0.93088562854E+02 -0.85103002956E+02  0.15321791531E+03  0.86930966605E+02 0.  0.
        -11    1    4    4    0    0 -0.28895219949E+02  0.18197024567E+02 -0.61968396288E+02  0.70754134703E+02  0.00000000000E+00 0.  1.
         11    1    4    4    0    0  0.25618793477E+02  0.74891538286E+02 -0.23134606667E+02  0.82463780606E+02  0.00000000000E+00 0. -1.
        -11    1    3    3    0    0 -0.43376048913E+02 -0.49046851845E+02 -0.19995941891E+03  0.21040637943E+03  0.00000000000E+00 0.  1.
         11    1    3    3    0    0  0.46875323867E+02 -0.41550426603E+02 -0.14833464323E+03  0.16101832294E+03  0.00000000000E+00 0. -1.
         21    1    1    2  503  502  0.64115401721E+02 -0.35374490942E+02  0.30516244135E+02  0.79330829463E+02  0.00000000000E+00 0. -1.
          3    1    1    2  501    0 -0.64338250203E+02  0.32883206535E+02 -0.14446018129E+03  0.16152231948E+03  0.00000000000E+00 0. -1.
<scales pt_clust_5="13000.00000" pt_clust_6="13000.00000" pt_clust_7="13000.00000" pt_clust_8="13000.00000" pt_clust_9="73.22663" pt_clust_10="13000.00000"></scales>
<clustering>
<clus scale="   73.227">  1  9  2 -1</clus>
<clus scale="   86.931">  5  6 -1 -1</clus>
<clus scale="   60.726">  5 10 -1 -1</clus>
<clus scale="   91.801">  7  8 -1 -1</clus>
<clus scale="  135.487">  2  7  1 -1</clus>
<clus scale="   73.227">  1  5  2 -1</clus>
</clustering>
</event>
<event>
10    2  0.4951045E-006  0.1432365E+03  0.7546771E-02  0.1227382E+00
         21   -1    0    0  501  502  0.00000000000E+00  0.00000000000E+00  0.26840007600E+03  0.26840007600E+03  0.00000000000E+00 0.  1.
          1   -1    0    0  503    0 -0.00000000000E+00 -0.00000000000E+00 -0.21506260142E+03  0.21506260142E+03  0.00000000000E+00 0. -1.
         23    2    1    2    0    0 -0.62264284037E+01  0.34110795623E+02 -0.64367050578E+02  0.12019431114E+03  0.95400421600E+02 0.  0.
         23    2    1    2    0    0  0.25393858024E+02  0.62664169443E+01 -0.92283360936E+02  0.13257404066E+03  0.91517984809E+02 0.  0.
        -11    1    3    3    0    0 -0.47015551851E+02  0.11466155796E+00 -0.20380992422E+02  0.51243147008E+02  0.00000000000E+00 0.  1.
         11    1    3    3    0    0  0.40789123447E+02  0.33996134065E+02 -0.43986058156E+02  0.68951164131E+02  0.00000000000E+00 0. -1.
        -11    1    4    4    0    0 -0.20933800788E+02  0.34728096824E+02 -0.34608920712E+02  0.53310806759E+02  0.00000000000E+00 0. -1.
         11    1    4    4    0    0  0.46327658812E+02 -0.28461679880E+02 -0.57674440224E+02  0.79263233896E+02  0.00000000000E+00 0.  1.
         21    1    1    2  503  502  0.77458347250E+01 -0.37498984020E+02  0.19697453810E+03  0.20066175624E+03  0.00000000000E+00 0.  1.
          1    1    1    2  501    0 -0.26913264345E+02 -0.28782285477E+01  0.13013347990E+02  0.30032569374E+02  0.00000000000E+00 0. -1.
<scales pt_clust_5="13000.00000" pt_clust_6="13000.00000" pt_clust_7="13000.00000" pt_clust_8="13000.00000" pt_clust_9="38.29062" pt_clust_10="13000.00000"></scales>
<clustering>
<clus scale="   38.291">  1  9  2 -1</clus>
<clus scale="   91.518">  7  8 -1 -1</clus>
<clus scale="   28.473">  7 10 -1 -1</clus>
<clus scale="   95.400">  5  6 -1 -1</clus>
<clus scale="   97.337">  2  5  1 -1</clus>
<clus scale="   38.291">  1  5  2 -1</clus>
</clustering>
</event>
<event>
10    2  0.4951045E-006  0.2309210E+03  0.7546771E-02  0.1160824E+00
         21   -1    0    0  503  502  0.00000000000E+00  0.00000000000E+00  0.28741396815E+03  0.28741396815E+03  0.00000000000E+00 0. -1.
          1   -1    0    0  502    0 -0.00000000000E+00 -0.00000000000E+00 -0.52674419110E+03  0.52674419110E+03  0.00000000000E+00 0. -1.
         23    2    1    2    0    0 -0.30394329530E+02  0.26353240139E+02 -0.19128644785E+03  0.21556805803E+03  0.90888800057E+02 0.  0.
         23    2    1    2    0    0 -0.31288684942E+02  0.50124284855E+02 -0.18573106373E+03  0.21546455027E+03  0.91855966869E+02 0.  0.
        -11    1    3    3    0    0 -0.45362777411E+02 -0.19633746124E+02 -0.11592922406E+03  0.12602718180E+03  0.00000000000E+00 0.  1.
         11    1    3    3    0    0  0.14968447881E+02  0.45986986263E+02 -0.75357223791E+02  0.89540876225E+02  0.00000000000E+00 0. -1.
        -11    1    4    4    0    0  0.24270503025E+01  0.49244309840E+02 -0.33660093372E+02  0.59698362712E+02  0.00000000000E+00 0.  1.
         11    1    4    4    0    0 -0.33715735245E+02  0.87997501512E+00 -0.15207097036E+03  0.15576618756E+03  0.00000000000E+00 0. -1.
         21    1    1    2  503  501  0.23941910443E+02  0.33723252832E+02  0.23050352710E+03  0.23418443343E+03  0.00000000000E+00 0. -1.
          1    1    1    2  501    0  0.37741104029E+02 -0.11020077783E+03 -0.92816238460E+02  0.14894111752E+03  0.00000000000E+00 0. -1.
<scales pt_clust_5="13000.00000" pt_clust_6="13000.00000" pt_clust_7="13000.00000" pt_clust_8="13000.00000" pt_clust_9="41.35786" pt_clust_10="13000.00000"></scales>
<clustering>
<clus scale="   41.358">  1  9  2 -1</clus>
<clus scale="   90.889">  5  6 -1 -1</clus>
<clus scale="   91.856">  7  8 -1 -1</clus>
<clus scale="  100.166">  2  5  1 -1</clus>
<clus scale="   92.089">  7 10 -1 -1</clus>
<clus scale="   41.358">  1  5  2 -1</clus>
</clustering>
</event>
<event>
10    2  0.4951045E-006  0.1676087E+03  0.7546771E-02  0.1201806E+00
          3   -1    0    0  502    0 -0.00000000000E+00  0.00000000000E+00  0.30287167729E+03  0.30287167729E+03  0.00000000000E+00 0. -1.
         21   -1    0    0  503  502  0.00000000000E+00 -0.00000000000E+00 -0.26027313376E+03  0.26027313376E+03  0.00000000000E+00 0.  1.
         23    2    1    2    0    0 -0.46399248011E+02 -0.21570927348E+01 -0.14125903477E+02  0.10206943052E+03  0.89783540984E+02 0.  0.
         23    2    1    2    0    0  0.59060943825E+02 -0.53576238884E+02  0.21836407767E+03  0.25227493221E+03  0.97985522139E+02 0.  0.
        -11    1    4    4    0    0  0.46556248395E+02 -0.82469557311E+02  0.15851685000E+03  0.18465184505E+03  0.00000000000E+00 0.  1.
         11    1    4    4    0    0  0.12504695430E+02  0.28893318426E+02  0.59847227673E+02  0.67623087164E+02  0.00000000000E+00 0. -1.
        -13    1    3    3    0    0  0.25767089256E+02  0.10426656120E+02 -0.26841122586E+01  0.27926018427E+02  0.00000000000E+00 0. -1.
         13    1    3    3    0    0 -0.72166337267E+02 -0.12583748855E+02 -0.11441791218E+02  0.74143412088E+02  0.00000000000E+00 0.  1.
         21    1    1    2  503  501 -0.72627479670E+01  0.24940128963E+02 -0.17344757875E+03  0.17538192642E+03  0.00000000000E+00 0.  1.
          3    1    1    2  501    0 -0.53989478468E+01  0.30793202656E+02  0.11807948093E+02  0.33418521898E+02  0.00000000000E+00 0. -1.
<scales pt_clust_5="13000.00000" pt_clust_6="13000.00000" pt_clust_7="13000.00000" pt_clust_8="13000.00000" pt_clust_9="25.97610" pt_clust_10="13000.00000"></scales>
<clustering>
<clus scale="   25.976">  2  9  1 -1</clus>
<clus scale="   89.784">  7  8 -1 -1</clus>
<clus scale="   97.986">  5  6 -1 -1</clus>
<clus scale="   34.514">  5 10 -1 -1</clus>
<clus scale="  104.455">  1  7  2 -1</clus>
<clus scale="   25.976">  2  5  1 -1</clus>
</clustering>
</event>
<event>
10    2  0.4951045E-006  0.3013746E+03  0.7546771E-02  0.1124982E+00
         21   -1    0    0  503  502  0.00000000000E+00  0.00000000000E+00  0.31952803795E+03  0.31952803795E+03  0.00000000000E+00 0.  1.
         -1   -1    0    0    0  501 -0.00000000000E+00 -0.00000000000E+00 -0.18875314367E+03  0.18875314367E+03  0.00000000000E+00 0.  1.
         23    2    1    2    0    0  0.10516441127E+01 -0.44492197957E+02  0.28877261376E+02  0.10662071930E+03  0.92484701036E+02 0.  0.
         23    2    1    2    0    0  0.65782875077E+02  0.10132170321E+03  0.25499559116E+01  0.15895562103E+03  0.10328074838E+03 0.  0.
        -11    1    4    4    0    0  0.24193199437E+02  0.60258755135E+02  0.51374719430E+02  0.82799699673E+02  0.00000000000E+00 0.  1.
         11    1    4    4    0    0  0.41589675640E+02  0.41062948076E+02 -0.48824763518E+02  0.76155921353E+02  0.00000000000E+00 0. -1.
        -13    1    3    3    0    0  0.21664824760E+02 -0.58814823609E+02 -0.67486202592E+01  0.63040399613E+02  0.00000000000E+00 0. -1.
         13    1    3    3    0    0 -0.20613180647E+02  0.14322625651E+02  0.35625881635E+02  0.43580319690E+02  0.00000000000E+00 0.  1.
         21    1    1    2  503  501  0.73528825612E+02 -0.17209363878E+02  0.30884414143E+02  0.81587360773E+02  0.00000000000E+00 0.  1.
         -1    1    1    2    0  502 -0.14036334480E+03 -0.39620141376E+02  0.68463262856E+02  0.16111748051E+03  0.00000000000E+00 0.  1.
<scales pt_clust_5="13000.00000" pt_clust_6="13000.00000" pt_clust_7="13000.00000" pt_clust_8="13000.00000" pt_clust_9="75.51590" pt_clust_10="13000.00000"></scales>
<clustering>
<clus scale="   75.516">  1  9  2 -1</clus>
<clus scale="   92.485">  7  8 -1 -1</clus>
<clus scale="  103.281">  5  6 -1 -1</clus>
<clus scale="  106.515">  2  7  1 -1</clus>
<clus scale="  119.684">  5 10 -1 -1</clus>
<clus scale="   75.516">  1  5  2 -1</clus>
</clustering>
</event>
<event>
10    2  0.4951045E-006  0.2087520E+03  0.7546771E-02  0.1171023E+00
         21   -1    0    0  501  502  0.00000000000E+00  0.00000000000E+00  0.13529382258E+03  0.13529382258E+03  0.00000000000E+00 0. -1.
          2   -1    0    0  503    0 -0.00000000000E+00 -0.00000000000E+00 -0.60049190020E+03  0.60049190020E+03  0.00000000000E+00 0. -1.
         23    2    1    2    0    0  0.51011547936E+02  0.45118047544E+00 -0.46830354988E+03  0.48067485413E+03  0.95591416853E+02 0.  0.
         23    2    1    2    0    0 -0.78733702982E+02 -0.19467345989E+02 -0.39502534601E+02  0.12844246520E+03  0.91427802562E+02 0.  0.
        -11    1    3    3    0    0  0.29793690127E+02  0.46147812869E+02 -0.30018092310E+03  0.30516531781E+03  0.00000000000E+00 0. -1.
         11    1    3    3    0    0  0.21217857809E+02 -0.45696632393E+02 -0.16812262678E+03  0.17550953631E+03  0.00000000000E+00 0.  1.
        -11    1    4    4    0    0 -0.57019556839E+02  0.19024963871E+02 -0.55133381692E+02  0.81565120544E+02  0.00000000000E+00 0.  1.
         11    1    4    4    0    0 -0.21714146142E+02 -0.38492309861E+02  0.15630847091E+02  0.46877344655E+02  0.00000000000E+00 0. -1.
         21    1    1    2  503  502 -0.42507315808E+02  0.23535451189E+02  0.12833429660E+02  0.50254216507E+02  0.00000000000E+00 0. -1.
          2    1    1    2  501    0  0.70229470854E+02 -0.45192856754E+01  0.29774577206E+02  0.76414186950E+02  0.00000000000E+00 0. -1.
<scales pt_clust_5="13000.00000" pt_clust_6="13000.00000" pt_clust_7="13000.00000" pt_clust_8="13000.00000" pt_clust_9="48.58795" pt_clust_10="13000.00000"></scales>
<clustering>
<clus scale="   48.588">  1  9  2 -1</clus>
<clus scale="   91.428">  7  8 -1 -1</clus>
<clus scale="   49.057">  7 10 -1 -1</clus>
<clus scale="   95.591">  5  6 -1 -1</clus>
<clus scale="  107.197">  2  5  1 -1</clus>
<clus scale="   48.588">  1  5  2 -1</clus>
</clustering>
</event>
<event>
10    2  0.4951045E-006  0.2059899E+03  0.7546771E-02  0.1177722E+00
          1   -1    0    0  502    0 -0.00000000000E+00  0.00000000000E+00  0.54391980918E+03  0.54391980918E+03  0.00000000000E+00 0. -1.
         21   -1    0    0  503  502  0.00000000000E+00 -0.00000000000E+00 -0.11570398814E+03  0.11570398814E+03  0.00000000000E+00 0. -1.
         23    2    1    2    0    0  0.61831957312E+02 -0.39236300152E+02  0.89034197026E+02  0.14618225726E+03  0.89885960542E+02 0.  0.
         23    2    1    2    0    0  0.55660868460E+02  0.29119013697E+02  0.31090528767E+03  0.33065078356E+03  0.93390543048E+02 0.  0.
        -11    1    3    3    0    0  0.36188595176E+02 -0.53440535301E+02  0.96349579431E+02  0.11596873152E+03  0.00000000000E+00 0.  1.
         11    1    3    3    0    0  0.25643362136E+02  0.14204235149E+02 -0.73153824049E+01  0.30213525738E+02  0.00000000000E+00 0. -1.
        -13    1    4    4    0    0  0.21287586791E+02  0.61169884330E+02  0.16056971922E+03  0.17314026346E+03  0.00000000000E+00 0.  1.
         13    1    4    4    0    0  0.34373281670E+02 -0.32050870632E+02  0.15033556845E+03  0.15751052010E+03  0.00000000000E+00 0. -1.
         21    1    1    2  503  501 -0.58904605652E+02  0.51512656089E+02 -0.36308051079E+02  0.86264598055E+02  0.00000000000E+00 0. -1.
          1    1    1    2  501    0 -0.58588220121E+02 -0.41395369635E+02  0.64584387423E+02  0.96526158439E+02  0.00000000000E+00 0. -1.
<scales pt_clust_5="13000.00000" pt_clust_6="13000.00000" pt_clust_7="13000.00000" pt_clust_8="13000.00000" pt_clust_9="78.25156" pt_clust_10="13000.00000"></scales>
<clustering>
<clus scale="   78.252">  2  9  1 -1</clus>
<clus scale="   89.886">  5  6 -1 -1</clus>
<clus scale="   93.391">  7  8 -1 -1</clus>
<clus scale="   80.297">  7 10 -1 -1</clus>
<clus scale="   95.828">  1  5  2 -1</clus>
<clus scale="   78.252">  2  5  1 -1</clus>
</clustering>
</event>
<event>
10    2  0.4951045E-006  0.1439614E+03  0.7546771E-02  0.1217403E+00
         -2   -1    0    0    0  501 -0.00000000000E+00  0.00000000000E+00  0.27985576490E+03  0.27985576490E+03  0.00000000000E+00 0.  1.
         21   -1    0    0  501  502  0.00000000000E+00 -0.00000000000E+00 -0.23247186233E+03  0.23247186233E+03  0.00000000000E+00 0.  1.
         23    2    1    2    0    0 -0.28427379559E+02  0.51979895044E+02  0.17867173314E+03  0.21209187576E+03  0.97720776420E+02 0.  0.
         23    2    1    2    0    0  0.33879849471E+02 -0.46422974251E+02  0.25844891360E+02  0.11114337815E+03  0.91553019391E+02 0.  0.
        -11    1    4    4    0    0 -0.92747290150E+01 -0.54170800481E+02 -0.82860846123E+01  0.55580171116E+02  0.00000000000E+00 0.  1.
         11    1    4    4    0    0  0.43154578486E+02  0.77478262300E+01  0.34130975972E+02  0.55563207038E+02  0.00000000000E+00 0. -1.
        -11    1    3    3    0    0 -0.12181684950E+02  0.78807740737E+02  0.14858157855E+03  0.16862840488E+03  0.00000000000E+00 0.  1.
         11    1    3    3    0    0 -0.16245694609E+02 -0.26827845693E+02  0.30090154591E+02  0.43463470883E+02  0.00000000000E+00 0. -1.
         21    1    1    2  503  502 -0.30089891252E+02  0.31522250182E+02 -0.12964193398E+03  0.13677018995E+03  0.00000000000E+00 0.  1.
         -2    1    1    2    0  503  0.24637421341E+02 -0.37079170975E+02 -0.27490787953E+02  0.52322183372E+02  0.00000000000E+00 0.  1.
<scales pt_clust_5="13000.00000" pt_clust_6="13000.00000" pt_clust_7="13000.00000" pt_clust_8="13000.00000" pt_clust_9="43.57813" pt_clust_10="13000.00000"></scales>
<clustering>
<clus scale="   43.578">  2  9  1 -1</clus>
<clus scale="   91.553">  5  6 -1 -1</clus>
<clus scale="   27.440">  5 10 -1 -1</clus>
<clus scale="   97.721">  7  8 -1 -1</clus>
<clus scale="  118.122">  1  7  2 -1</clus>
<clus scale="   43.578">  2  5  1 -1</clus>
</clustering>
</event>
<event>
10    2  0.4951045E-006  0.1243835E+03  0.7546771E-02  0.1251021E+00
         21   -1    0    0  503  502  0.00000000000E+00  0.00000000000E+00  0.38924204749E+03  0.38924204749E+03  0.00000000000E+00 0. -1.
         -1   -1    0    0    0  501 -0.00000000000E+00 -0.00000000000E+00 -0.10288950997E+03  0.10288950997E+03  0.00000000000E+00 0.  1.
         23    2    1    2    0    0  0.16521265619E+02  0.11083595614E+02 -0.30155617677E+02  0.97846140522E+02  0.90932434412E+02 0.  0.
         23    2    1    2    0    0 -0.31587428594E+02 -0.19781998409E+01  0.55660864998E+02  0.99782959096E+02  0.76529916464E+02 0.  0.
        -11    1    3    3    0    0 -0.30097860557E+02 -0.20443510121E+02 -0.73336007101E+01  0.37116034480E+02  0.00000000000E+00 0. -1.
         11    1    3    3    0    0  0.46619126175E+02  0.31527105735E+02 -0.22822016967E+02  0.60730106042E+02  0.00000000000E+00 0.  1.
        -11    1    4    4    0    0  0.21642255486E+02  0.18304597424E+00 -0.14383429399E+01  0.21690771281E+02  0.00000000000E+00 0. -1.
         11    1    4    4    0    0 -0.53229684080E+02 -0.21612458151E+01  0.57099207938E+02  0.78092187816E+02  0.00000000000E+00 0.  1.
         21    1    1    2  503  501 -0.13736069511E+02 -0.42344271348E+02  0.24298945771E+03  0.24703358776E+03  0.00000000000E+00 0. -1.
         -1    1    1    2    0  502  0.28802232486E+02  0.33238875575E+02  0.17857832492E+02  0.47468870083E+02  0.00000000000E+00 0.  1.
<scales pt_clust_5="13000.00000" pt_clust_6="13000.00000" pt_clust_7="13000.00000" pt_clust_8="13000.00000" pt_clust_9="44.51648" pt_clust_10="13000.00000"></scales>
<clustering>
<clus scale="   44.516">  1  9  2 -1</clus>
<clus scale="   76.530">  7  8 -1 -1</clus>
<clus scale="   34.919">  7 10 -1 -1</clus>
<clus scale="   90.932">  5  6 -1 -1</clus>
<clus scale="   91.907">  2  5  1 -1</clus>
<clus scale="   44.516">  1  5  2 -1</clus>
</clustering>
</event>
<event>
10    2  0.4951045E-006  0.2535691E+03  0.7546771E-02  0.1147284E+00
          1   -1    0    0  503    0 -0.00000000000E+00  0.00000000000E+00  0.67266188697E+03  0.67266188697E+03  0.00000000000E+00 0. -1.
         21   -1    0    0  501  502  0.00000000000E+00 -0.00000000000E+00 -0.95386675143E+02  0.95386675143E+02  0.00000000000E+00 0. -1.
         23    2    1    2    0    0  0.35602930077E+02  0.44095462904E+02  0.40654817364E+03  0.42016407734E+03  0.89690890960E+02 0.  0.
         23    2    1    2    0    0  0.61068339025E+02 -0.20380545465E+02  0.17451736282E+03  0.20801694467E+03  0.93112999518E+02 0.  0.
        -11    1    4    4    0    0  0.75494138447E+02  0.41511249116E+01  0.15788288360E+03  0.17505313968E+03  0.00000000000E+00 0. -1.
         11    1    4    4    0    0 -0.14425799422E+02 -0.24531670377E+02  0.16634479219E+02  0.32963804989E+02  0.00000000000E+00 0.  1.
        -13    1    3    3    0    0 -0.87038026255E+01 -0.19323901208E+02  0.37318997296E+02  0.42917093299E+02  0.00000000000E+00 0.  1.
         13    1    3    3    0    0  0.44306732703E+02  0.63419364113E+02  0.36922917634E+03  0.37724698404E+03  0.00000000000E+00 0. -1.
         21    1    1    2  503  502 -0.45406035121E+02 -0.26112747823E+02  0.45000294358E+02  0.69055123754E+02  0.00000000000E+00 0. -1.
          1    1    1    2  501    0 -0.51265233981E+02  0.23978303846E+01 -0.48790618998E+02  0.70812416340E+02  0.00000000000E+00 0. -1.
<scales pt_clust_5="13000.00000" pt_clust_6="13000.00000" pt_clust_7="13000.00000" pt_clust_8="13000.00000" pt_clust_9="52.37923" pt_clust_10="13000.00000"></scales>
<clustering>
<clus scale="   52.379">  2  9  1 -1</clus>
<clus scale="   89.691">  7  8 -1 -1</clus>
<clus scale="   93.113">  5  6 -1 -1</clus>
<clus scale="   85.416">  5 10 -1 -1</clus>
<clus scale="  104.032">  1  7  2 -1</clus>
<clus scale="   52.379">  2  5  1 -1</clus>
</clustering>
</event>
<event>
10    2  0.4951045E-006  0.1397560E+03  0.7546771E-02  0.1227940E+00
         21   -1    0    0  503  502  0.00000000000E+00  0.00000000000E+00  0.21360935516E+03  0.21360935516E+03  0.00000000000E+00 0. -1.
          2   -1    0    0  502    0 -0.00000000000E+00 -0.00000000000E+00 -0.57783500869E+03  0.57783500869E+03  0.00000000000E+00 0. -1.
         23    2    1    2    0    0  0.62724296317E+02 -0.26265447657E+02 -0.39453381273E+03  0.41057676608E+03  0.91061190231E+02 0.  0.
         23    2    1    2    0    0 -0.14831060565E+02 -0.26538793460E+02 -0.93259175248E+02  0.13453740480E+03  0.92080245468E+02 0.  0.
        -11    1    4    4    0    0  0.31872484363E+02 -0.74111487785E+01 -0.73286920327E+02  0.80260532497E+02  0.00000000000E+00 0.  1.
         11    1    4    4    0    0 -0.46703544928E+02 -0.19127644681E+02 -0.19972254921E+02  0.54276872298E+02  0.00000000000E+00 0. -1.
        -13    1    3    3    0    0 -0.94806157259E+01 -0.23870164568E+02 -0.32595035917E+02  0.41498231257E+02  0.00000000000E+00 0.  1.
         13    1    3    3    0    0  0.72204912043E+02 -0.23952830891E+01 -0.36193877682E+03  0.36907853482E+03  0.00000000000E+00 0. -1.
         21    1    1    2  503  501 -0.72330947473E+02  0.30596163975E+02  0.17120964978E+03  0.18836304146E+03  0.00000000000E+00 0. -1.
          2    1    1    2  501    0  0.24437711721E+02  0.22208077142E+02 -0.47642315323E+02  0.57967151507E+02  0.00000000000E+00 0. -1.
<scales pt_clust_5="13000.00000" pt_clust_6="13000.00000" pt_clust_7="13000.00000" pt_clust_8="13000.00000" pt_clust_9="78.53592" pt_clust_10="13000.00000"></scales>
<clustering>
<clus scale="   78.536">  1  9  2 -1</clus>
<clus scale="   91.061">  7  8 -1 -1</clus>
<clus scale="   92.080">  5  6 -1 -1</clus>
<clus scale="   30.032">  5 10 -1 -1</clus>
<clus scale="  103.586">  2  7  1 -1</clus>
<clus scale="   78.536">  1  5  2 -1</clus>
</clustering>
</event>
<event>
10    2  0.4951045E-006  0.8006523E+03  0.7546771E-02  0.1006622E+00
          2   -1    0    0  503    0 -0.00000000000E+00  0.00000000000E+00  0.15346643187E+04  0.15346643187E+04  0.00000000000E+00 0. -1.
         21   -1    0    0  501  502  0.00000000000E+00 -0.00000000000E+00 -0.20035565034E+03  0.20035565034E+03  0.00000000000E+00 0. -1.
         23    2    1    2    0    0 -0.11865140087E+03 -0.30042289587E+02  0.36418764481E+03  0.39499526754E+03  0.91694747127E+02 0.  0.
         23    2    1    2    0    0  0.21904354597E+03  0.11526935046E+03  0.10590012553E+04  0.10912549690E+04  0.89925805361E+02 0.  0.
        -11    1    3    3    0    0 -0.58823429757E+02  0.30717879639E+02  0.18527975894E+03  0.19680541936E+03  0.00000000000E+00 0. -1.
         11    1    3    3    0    0 -0.59827971111E+02 -0.60760169226E+02  0.17890788587E+03  0.19818984817E+03  0.00000000000E+00 0.  1.
        -13    1    4    4    0    0  0.10958399215E+03  0.73108032056E+02  0.37973887050E+03  0.40193910665E+03  0.00000000000E+00 0.  1.
         13    1    4    4    0    0  0.10945955382E+03  0.42161318405E+02  0.67926238482E+03  0.68931586237E+03  0.00000000000E+00 0. -1.
         21    1    1    2  503  502  0.36012958002E+02 -0.75427948920E+02  0.36286913730E+01  0.83662871236E+02  0.00000000000E+00 0. -1.
          2    1    1    2  501    0 -0.13640510310E+03 -0.97991119545E+01 -0.92508923185E+02  0.16510686120E+03  0.00000000000E+00 0. -1.
<scales pt_clust_5="13000.00000" pt_clust_6="13000.00000" pt_clust_7="13000.00000" pt_clust_8="13000.00000" pt_clust_9="83.58414" pt_clust_10="13000.00000"></scales>
<clustering>
<clus scale="   83.584">  2  9  1 -1</clus>
<clus scale="   89.926">  7  8 -1 -1</clus>
<clus scale="   91.695">  5  6 -1 -1</clus>
<clus scale="  128.476">  7 10 -1 -1</clus>
<clus scale="  151.880">  1  5  2 -1</clus>
<clus scale="   83.584">  2  5  1 -1</clus>
</clustering>
</event>
<event>
10    2  0.4951045E-006  0.5759844E+03  0.7546771E-02  0.1048304E+00
         21   -1    0    0  501  502  0.00000000000E+00  0.00000000000E+00  0.80891400728E+03  0.80891400728E+03  0.00000000000E+00 0. -1.
          2   -1    0    0  503    0 -0.00000000000E+00 -0.00000000000E+00 -0.89935293118E+03  0.89935293118E+03  0.00000000000E+00 0. -1.
         23    2    1    2    0    0 -0.12077206512E+01  0.75729034969E+02 -0.56868254960E+03  0.58072033174E+03  0.89999534151E+02 0.  0.
         23    2    1    2    0    0 -0.88592122749E+01  0.43614944837E+02 -0.97962304098E+02  0.14068999381E+03  0.90643876122E+02 0.  0.
        -11    1    3    3    0    0  0.27194457517E+02  0.81417931718E+02 -0.47386044743E+03  0.48157257165E+03  0.00000000000E+00 0. -1.
         11    1    3    3    0    0 -0.28402178168E+02 -0.56888967486E+01 -0.94822102168E+02  0.99147760088E+02  0.00000000000E+00 0.  1.
        -13    1    4    4    0    0 -0.26867361288E+02  0.13000681220E+02 -0.10073510229E+03  0.10506395028E+03  0.00000000000E+00 0.  1.
         13    1    4    4    0    0  0.18008149013E+02  0.30614263617E+02  0.27727981927E+01  0.35626043529E+02  0.00000000000E+00 0. -1.
         21    1    1    2  503  502  0.24674593263E+03  0.24003006125E+03  0.38359586885E+03  0.51540641844E+03  0.00000000000E+00 0. -1.
          2    1    1    2  501    0 -0.23667899971E+03 -0.35937404106E+03  0.19261006095E+03  0.47145019447E+03  0.00000000000E+00 0. -1.
<scales pt_clust_5="13000.00000" pt_clust_6="13000.00000" pt_clust_7="13000.00000" pt_clust_8="13000.00000" pt_clust_9="354.95559" pt_clust_10="13000.00000"></scales>
<clustering>
<clus scale="   90.000">  5  6 -1 -1</clus>
<clus scale="   90.644">  7  8 -1 -1</clus>
<clus scale="  117.628">  2  5  1 -1</clus>
<clus scale="  354.956">  1  9  2 -1</clus>
<clus scale="   98.602">  7 10 -1 -1</clus>
<clus scale="  354.956">  1  5  2 -1</clus>
</clustering>
</event>
<event>
10    2  0.4951045E-006  0.3095310E+03  0.7546771E-02  0.1105183E+00
         21   -1    0    0  501  502  0.00000000000E+00  0.00000000000E+00  0.17447238315E+03  0.17447238315E+03  0.00000000000E+00 0. -1.
          1   -1    0    0  503    0 -0.00000000000E+00 -0.00000000000E+00 -0.45231242196E+03  0.45231242196E+03  0.00000000000E+00 0. -1.
         23    2    1    2    0    0 -0.14624551188E+03  0.22877255954E+02 -0.55702119028E+02  0.18495649728E+03  0.95890881934E+02 0.  0.
         23    2    1    2    0    0 -0.37479181536E+02  0.46841776226E+02 -0.16291576826E+03  0.20418037391E+03  0.10746737409E+03 0.  0.
        -13    1    3    3    0    0 -0.27364951997E+02  0.36308040356E+02  0.12621106196E+02  0.47184814442E+02  0.00000000000E+00 0.  1.
         13    1    3    3    0    0 -0.11888055988E+03 -0.13430784403E+02 -0.68323225224E+02  0.13777168284E+03  0.00000000000E+00 0. -1.
        -13    1    4    4    0    0 -0.27077654378E+02  0.68062213704E+02 -0.16492724070E+03  0.18046234795E+03  0.00000000000E+00 0. -1.
         13    1    4    4    0    0 -0.10401527158E+02 -0.21220437478E+02  0.20114724455E+01  0.23718025958E+02  0.00000000000E+00 0.  1.
         21    1    1    2  503  502  0.40144156566E+02  0.14611426784E+02  0.26593067741E+02  0.50321350846E+02  0.00000000000E+00 0. -1.
          1    1    1    2  501    0  0.14358053685E+03 -0.84330458964E+02 -0.85815219269E+02  0.18732658308E+03  0.00000000000E+00 0. -1.
<scales pt_clust_5="13000.00000" pt_clust_6="13000.00000" pt_clust_7="13000.00000" pt_clust_8="13000.00000" pt_clust_9="42.72057" pt_clust_10="13000.00000"></scales>
<clustering>
<clus scale="   42.721">  1  9  2 -1</clus>
<clus scale="   95.891">  5  6 -1 -1</clus>
<clus scale="  107.467">  7  8 -1 -1</clus>
<clus scale="  162.040">  2  5  1 -1</clus>
<clus scale="  119.500">  7 10 -1 -1</clus>
<clus scale="   42.721">  1  5  2 -1</clus>
</clustering>
</event>
<event>
10    2  0.4951045E-006  0.5346525E+03  0.7546771E-02  0.1042323E+00
         21   -1    0    0  501  502  0.00000000000E+00  0.00000000000E+00  0.65863373475E+03  0.65863373475E+03  0.00000000000E+00 0.  1.
         -1   -1    0    0    0  501 -0.00000000000E+00 -0.00000000000E+00 -0.33939190505E+03  0.33939190505E+03  0.00000000000E+00 0.  1.
         23    2    1    2    0    0 -0.14434759420E+03 -0.94281472087E+01 -0.75736122327E+02  0.18656570866E+03  0.90253451528E+02 0.  0.
         23    2    1    2    0    0  0.30048838561E+03 -0.25121022601E+02 -0.59577428112E+02  0.32065676687E+03  0.91361679801E+02 0.  0.
        -11    1    3    3    0    0 -0.52687113087E+02 -0.15313957442E+02 -0.77191784818E+02  0.94704914452E+02  0.00000000000E+00 0.  1.
         11    1    3    3    0    0 -0.91660481109E+02  0.58858102329E+01  0.14556624914E+01  0.91860794208E+02  0.00000000000E+00 0. -1.
        -11    1    4    4    0    0  0.12138305813E+03 -0.52042284268E+02 -0.78716120179E+01  0.13230347096E+03  0.00000000000E+00 0.  1.
         11    1    4    4    0    0  0.17910532748E+03  0.26921261667E+02 -0.51705816094E+02  0.18835329591E+03  0.00000000000E+00 0. -1.
         21    1    1    2  503  502 -0.37079225018E+02  0.20801886788E+01  0.24349728250E+03  0.24631305832E+03  0.00000000000E+00 0.  1.
         -1    1    1    2    0  503 -0.11906156640E+03  0.32468981131E+02  0.21105809763E+03  0.24449010595E+03  0.00000000000E+00 0.  1.
<scales pt_clust_5="13000.00000" pt_clust_6="13000.00000" pt_clust_7="13000.00000" pt_clust_8="13000.00000" pt_clust_9="37.13753" pt_clust_10="13000.00000"></scales>
<clustering>
<clus scale="   37.138">  1  9  2 -1</clus>
<clus scale="   90.253">  5  6 -1 -1</clus>
<clus scale="   91.362">  7  8 -1 -1</clus>
<clus scale="  143.469">  7 10 -1 -1</clus>
<clus scale="  174.711">  2  5  1 -1</clus>
<clus scale="   37.138">  1  5  2 -1</clus>
</clustering>
</event>
<event>
10    2  0.4951045E-006  0.3441801E+03  0.7546771E-02  0.1099277E+00
         -3   -1    0    0    0  501 -0.00000000000E+00  0.00000000000E+00  0.18437160156E+03  0.18437160156E+03  0.00000000000E+00 0.  1.
         21   -1    0    0  501  502  0.00000000000E+00 -0.00000000000E+00 -0.52077686293E+03  0.52077686293E+03  0.00000000000E+00 0. -1.
         23    2    1    2    0    0  0.83255274487E+02 -0.42500819144E+02  0.25007927547E+02  0.13286808532E+03  0.91053672622E+02 0.  0.
         23    2    1    2    0    0 -0.23500921737E+03  0.16404920271E+02 -0.22923576878E+03  0.34115130651E+03  0.91305654753E+02 0.  0.
        -11    1    4    4    0    0 -0.15996096928E+03  0.97298256573E+01 -0.92513382550E+02  0.18504298731E+03  0.00000000000E+00 0. -1.
         11    1    4    4    0    0 -0.75048248088E+02  0.66750946137E+01 -0.13672238623E+03  0.15610831920E+03  0.00000000000E+00 0.  1.
        -13    1    3    3    0    0  0.72330728502E+02  0.81293477335E+01 -0.50880792759E+01  0.72963752172E+02  0.00000000000E+00 0.  1.
         13    1    3    3    0    0  0.10924545985E+02 -0.50630166878E+02  0.30096006823E+02  0.59904333147E+02  0.00000000000E+00 0. -1.
         21    1    1    2  503  502  0.62514067497E+02 -0.37381096421E+02 -0.84855124479E+02  0.11182909798E+03  0.00000000000E+00 0. -1.
         -3    1    1    2    0  503  0.89239875386E+02  0.63476995294E+02 -0.47322295665E+02  0.11929997468E+03  0.00000000000E+00 0.  1.
<scales pt_clust_5="13000.00000" pt_clust_6="13000.00000" pt_clust_7="13000.00000" pt_clust_8="13000.00000" pt_clust_9="72.83787" pt_clust_10="13000.00000"></scales>
<clustering>
<clus scale="   72.838">  2  9  1 -1</clus>
<clus scale="   91.054">  7  8 -1 -1</clus>
<clus scale="   91.306">  5  6 -1 -1</clus>
<clus scale="  116.034">  5 10 -1 -1</clus>
<clus scale="  137.294">  1  7  2 -1</clus>
<clus scale="   72.838">  2  5  1 -1</clus>
</clustering>
</event>
<event>
10    2  0.4951045E-006  0.3614453E+03  0.7546771E-02  0.1101448E+00
         -1   -1    0    0    0  501 -0.00000000000E+00  0.00000000000E+00  0.62873316367E+03  0.62873316367E+03  0.00000000000E+00 0.  1.
         21   -1    0    0  503  502  0.00000000000E+00 -0.00000000000E+00 -0.24001537283E+03  0.24001537283E+03  0.00000000000E+00 0.  1.
         23    2    1    2    0    0 -0.25358261734E+02 -0.52916326174E+02  0.17744215303E+03  0.20836763343E+03  0.92131286629E+02 0.  0.
         23    2    1    2    0    0  0.33270166911E+02  0.10883700176E+03  0.41588965442E+03  0.44613289879E+03  0.11453367091E+03 0.  0.
        -11    1    3    3    0    0 -0.36466036404E+02  0.15038157078E+02  0.51975391614E+02  0.65248442991E+02  0.00000000000E+00 0.  1.
         11    1    3    3    0    0  0.11107774670E+02 -0.67954483252E+02  0.12546676141E+03  0.14311919044E+03  0.00000000000E+00 0. -1.
        -13    1    4    4    0    0 -0.26916682432E+02  0.66611259930E+02  0.30308640180E+03  0.31148504731E+03  0.00000000000E+00 0.  1.
         13    1    4    4    0    0  0.60186849343E+02  0.42225741828E+02  0.11280325263E+03  0.13464785149E+03  0.00000000000E+00 0. -1.
         21    1    1    2  503  501 -0.12590025088E+02 -0.27988849987E+02 -0.14548071020E+03  0.14868262002E+03  0.00000000000E+00 0.  1.
         -1    1    1    2    0  502  0.46781199109E+01 -0.27931825596E+02 -0.59133306407E+02  0.65565384264E+02  0.00000000000E+00 0.  1.
<scales pt_clust_5="13000.00000" pt_clust_6="13000.00000" pt_clust_7="13000.00000" pt_clust_8="13000.00000" pt_clust_9="30.69014" pt_clust_10="13000.00000"></scales>
<clustering>
<clus scale="   30.690">  2  9  1 -1</clus>
<clus scale="   92.131">  5  6 -1 -1</clus>
<clus scale="  112.056">  1  5  2 -1</clus>
<clus scale="  114.534">  7  8 -1 -1</clus>
<clus scale="   48.510">  7 10 -1 -1</clus>
<clus scale="   30.690">  2  5  1 -1</clus>
</clustering>
</event>
<event>
10    2  0.4951045E-006  0.5411640E+03  0.7546771E-02  0.1050266E+00
         21   -1    0    0  501  502  0.00000000000E+00  0.00000000000E+00  0.15658003456E+04  0.15658003456E+04  0.00000000000E+00 0. -1.
          1   -1    0    0  503    0 -0.00000000000E+00 -0.00000000000E+00 -0.10499119388E+03  0.10499119388E+03  0.00000000000E+00 0. -1.
         23    2    1    2    0    0 -0.10138596915E+03  0.15007362652E+02  0.50634132422E+02  0.14376973358E+03  0.87187070454E+02 0.  0.
         23    2    1    2    0    0 -0.15797808555E+02 -0.19238627046E+03  0.21973643762E+03  0.30630236823E+03  0.90966977255E+02 0.  0.
        -11    1    4    4    0    0  0.22289080337E+02 -0.64174296280E+02  0.12543848857E+03  0.14265327834E+03  0.00000000000E+00 0.  1.
         11    1    4    4    0    0 -0.38086888892E+02 -0.12821197418E+03  0.94297949043E+02  0.16364908989E+03  0.00000000000E+00 0. -1.
        -13    1    3    3    0    0 -0.32755854790E+01  0.26874628003E+02  0.34148548716E+02  0.43578646949E+02  0.00000000000E+00 0.  1.
         13    1    3    3    0    0 -0.98110383669E+02 -0.11867265350E+02  0.16485583706E+02  0.10019108663E+03  0.00000000000E+00 0. -1.
         21    1    1    2  503  502  0.13610745297E+02  0.24381690367E+02  0.16716457482E+02  0.32544725586E+02  0.00000000000E+00 0.  1.
          1    1    1    2  501    0  0.10357303241E+03  0.15299721744E+03  0.11737221242E+04  0.11881747120E+04  0.00000000000E+00 0. -1.
<scales pt_clust_5="13000.00000" pt_clust_6="13000.00000" pt_clust_7="13000.00000" pt_clust_8="13000.00000" pt_clust_9="27.92347" pt_clust_10="13000.00000"></scales>
<clustering>
<clus scale="   27.923">  1  9  2 -1</clus>
<clus scale="   87.187">  7  8 -1 -1</clus>
<clus scale="   90.967">  5  6 -1 -1</clus>
<clus scale="  134.094">  2  7  1 -1</clus>
<clus scale="  196.831">  5 10 -1 -1</clus>
<clus scale="   27.923">  1  5  2 -1</clus>
</clustering>
</event>
<event>
10    2  0.4951045E-006  0.1633180E+03  0.7546771E-02  0.1206828E+00
         21   -1    0    0  503  502  0.00000000000E+00  0.00000000000E+00  0.64727636544E+02  0.64727636544E+02  0.00000000000E+00 0. -1.
          1   -1    0    0  502    0 -0.00000000000E+00 -0.00000000000E+00 -0.51185496791E+03  0.51185496791E+03  0.00000000000E+00 0. -1.
         23    2    1    2    0    0  0.37228010126E+01  0.47079002477E+02 -0.31907722879E+03  0.33528875330E+03  0.91531297593E+02 0.  0.
         23    2    1    2    0    0 -0.15729367529E+02  0.93581062470E+01 -0.14985991020E+03  0.17556052748E+03  0.89602003155E+02 0.  0.
        -11    1    3    3    0    0 -0.46775819220E+01  0.74169637168E+02 -0.21875191308E+03  0.23103119774E+03  0.00000000000E+00 0. -1.
         11    1    3    3    0    0  0.84003829346E+01 -0.27090634691E+02 -0.10032531570E+03  0.10425755556E+03  0.00000000000E+00 0.  1.
        -11    1    4    4    0    0 -0.39472248030E+02  0.30007367354E+02 -0.48230598563E+02  0.69171461585E+02  0.00000000000E+00 0. -1.
         11    1    4    4    0    0  0.23742880501E+02 -0.20649261107E+02 -0.10162931163E+03  0.10638906590E+03  0.00000000000E+00 0.  1.
         21    1    1    2  503  501 -0.30384109874E+01 -0.20140372580E+02  0.16238343750E+02  0.26048999151E+02  0.00000000000E+00 0. -1.
          1    1    1    2  501    0  0.15044977504E+02 -0.36296736143E+02  0.55714638702E+01  0.39684324518E+02  0.00000000000E+00 0. -1.
<scales pt_clust_5="13000.00000" pt_clust_6="13000.00000" pt_clust_7="13000.00000" pt_clust_8="13000.00000" pt_clust_9="20.36827" pt_clust_10="13000.00000"></scales>
<clustering>
<clus scale="   20.368">  1  9  2 -1</clus>
<clus scale="   89.602">  7  8 -1 -1</clus>
<clus scale="   48.654">  7 10 -1 -1</clus>
<clus scale="   91.531">  5  6 -1 -1</clus>
<clus scale="  101.320">  2  5  1 -1</clus>
<clus scale="   20.368">  1  5  2 -1</clus>
</clustering>
</event>
<event>
10    2  0.4951045E-006  0.3647164E+03  0.7546771E-02  0.1104271E+00
          2   -1    0    0  502    0 -0.00000000000E+00  0.00000000000E+00  0.34501020877E+03  0.34501020877E+03  0.00000000000E+00 0. -1.
         21   -1    0    0  503  502  0.00000000000E+00 -0.00000000000E+00 -0.54326986454E+03  0.54326986454E+03  0.00000000000E+00 0. -1.
         23    2    1    2    0    0  0.17863876029E+02  0.39431493761E+02  0.10273522717E+03  0.14435171718E+03  0.91700221291E+02 0.  0.
         23    2    1    2    0    0  0.76151147204E+02  0.61133575608E+02  0.54348493536E+02  0.14534608545E+03  0.92926931073E+02 0.  0.
        -13    1    4    4    0    0 -0.21256100317E+02  0.19004512788E+02  0.14460036058E+02  0.31970078977E+02  0.00000000000E+00 0.  1.
         13    1    4    4    0    0  0.97407247521E+02  0.42129062819E+02  0.39888457477E+02  0.11337600647E+03  0.00000000000E+00 0. -1.
        -13    1    3    3    0    0  0.35497930431E+02 -0.11440341186E+02  0.75057136416E+02  0.83812637462E+02  0.00000000000E+00 0.  1.
         13    1    3    3    0    0 -0.17634054402E+02  0.50871834947E+02  0.27678090752E+02  0.60539079719E+02  0.00000000000E+00 0. -1.
         21    1    1    2  503  501 -0.65254528274E+02  0.13012476920E+03 -0.33494832639E+03  0.36521362292E+03  0.00000000000E+00 0. -1.
          2    1    1    2  501    0 -0.28760494960E+02 -0.23068983857E+03 -0.20395050089E+02  0.23336864776E+03  0.00000000000E+00 0. -1.
<scales pt_clust_5="13000.00000" pt_clust_6="13000.00000" pt_clust_7="13000.00000" pt_clust_8="13000.00000" pt_clust_9="147.44915" pt_clust_10="13000.00000"></scales>
<clustering>
<clus scale="   91.700">  7  8 -1 -1</clus>
<clus scale="   92.927">  5  6 -1 -1</clus>
<clus scale="  101.405">  1  7  2 -1</clus>
<clus scale="  147.449">  2  9  1 -1</clus>
<clus scale="  142.454">  5 10 -1 -1</clus>
<clus scale="  147.449">  2  5  1 -1</clus>
</clustering>
</event>
<event>
10    2  0.4951045E-006  0.2788403E+03  0.7546771E-02  0.1129523E+00
         21   -1    0    0  501  502  0.00000000000E+00  0.00000000000E+00  0.70743100464E+03  0.70743100464E+03  0.00000000000E+00 0.  1.
          1   -1    0    0  503    0 -0.00000000000E+00 -0.00000000000E+00 -0.14057762064E+03  0.14057762064E+03  0.00000000000E+00 0. -1.
         23    2    1    2    0    0 -0.42389412206E+02  0.69421290728E+02 -0.31993706021E+02  0.12558562697E+03  0.90177461723E+02 0.  0.
         23    2    1    2    0    0  0.15784982577E+03 -0.18075309327E+02  0.12333991906E+03  0.22075435905E+03  0.90975090571E+02 0.  0.
        -11    1    3    3    0    0 -0.27203433294E+02 -0.17974743810E+02 -0.11200070684E+02  0.34475495376E+02  0.00000000000E+00 0.  1.
         11    1    3    3    0    0 -0.15185978912E+02  0.87396034538E+02 -0.20793635337E+02  0.91110131594E+02  0.00000000000E+00 0. -1.
        -13    1    4    4    0    0  0.95841738371E+02 -0.50582662934E+01  0.17734056208E+02  0.97599803389E+02  0.00000000000E+00 0. -1.
         13    1    4    4    0    0  0.62008087398E+02 -0.13017043034E+02  0.10560586285E+03  0.12315455566E+03  0.00000000000E+00 0.  1.
         21    1    1    2  503  502 -0.33608979908E+02 -0.39901470930E+02  0.33191691169E+03  0.33599185583E+03  0.00000000000E+00 0.  1.
          1    1    1    2  501    0 -0.81851433655E+02 -0.11444510471E+02  0.14359025927E+03  0.16567678343E+03  0.00000000000E+00 0. -1.
<scales pt_clust_5="13000.00000" pt_clust_6="13000.00000" pt_clust_7="13000.00000" pt_clust_8="13000.00000" pt_clust_9="52.16983" pt_clust_10="13000.00000"></scales>
<clustering>
<clus scale="   52.170">  1  9  2 -1</clus>
<clus scale="   90.177">  5  6 -1 -1</clus>
<clus scale="   90.975">  7  8 -1 -1</clus>
<clus scale="   99.766">  7 10 -1 -1</clus>
<clus scale="  120.224">  2  5  1 -1</clus>
<clus scale="   52.170">  1  5  2 -1</clus>
</clustering>
</event>
<event>
10    2  0.4951045E-006  0.2633824E+03  0.7546771E-02  0.1111792E+00
         21   -1    0    0  503  502  0.00000000000E+00  0.00000000000E+00  0.10504841907E+03  0.10504841907E+03  0.00000000000E+00 0.  1.
          1   -1    0    0  502    0 -0.00000000000E+00 -0.00000000000E+00 -0.13474123540E+04  0.13474123540E+04  0.00000000000E+00 0. -1.
         23    2    1    2    0    0  0.18697312514E+03 -0.26032748966E+02 -0.93361249527E+03  0.95797761502E+03  0.10223583525E+03 0.  0.
         23    2    1    2    0    0 -0.82604529822E+02  0.52838855458E+02 -0.21573865373E+03  0.25365990551E+03  0.90469486346E+02 0.  0.
        -11    1    3    3    0    0  0.12380058633E+03 -0.64059967691E+02 -0.66333803234E+03  0.67782564852E+03  0.00000000000E+00 0.  1.
         11    1    3    3    0    0  0.63172538813E+02  0.38027218726E+02 -0.27027446293E+03  0.28015196650E+03  0.00000000000E+00 0. -1.
        -13    1    4    4    0    0 -0.19006493196E+02  0.33935352150E+02 -0.14077426182E+02  0.41364584333E+02  0.00000000000E+00 0.  1.
         13    1    4    4    0    0 -0.63598036626E+02  0.18903503309E+02 -0.20166122754E+03  0.21229532118E+03  0.00000000000E+00 0. -1.
         21    1    1    2  503  501  0.44930793167E+02 -0.20227967575E+02  0.20285397780E+02  0.53286435515E+02  0.00000000000E+00 0.  1.
          1    1    1    2  501    0 -0.14929938849E+03 -0.65781389180E+01 -0.11329818375E+03  0.18753681706E+03  0.00000000000E+00 0. -1.
<scales pt_clust_5="13000.00000" pt_clust_6="13000.00000" pt_clust_7="13000.00000" pt_clust_8="13000.00000" pt_clust_9="49.27420" pt_clust_10="13000.00000"></scales>
<clustering>
<clus scale="   49.274">  1  9  2 -1</clus>
<clus scale="   90.469">  7  8 -1 -1</clus>
<clus scale="  102.236">  5  6 -1 -1</clus>
<clus scale="  126.098">  7 10 -1 -1</clus>
<clus scale="  222.155">  2  5  1 -1</clus>
<clus scale="   49.274">  1  5  2 -1</clus>
</clustering>
</event>
<event>
10    2  0.4951045E-006  0.2649090E+03  0.7546771E-02  0.1116777E+00
         21   -1    0    0  503  502  0.00000000000E+00  0.00000000000E+00  0.77015732411E+02  0.77015732411E+02  0.00000000000E+00 0.  1.
          1   -1    0    0  502    0 -0.00000000000E+00 -0.00000000000E+00 -0.12652159800E+04  0.12652159800E+04  0.00000000000E+00 0. -1.
         23    2    1    2    0    0  0.13666420533E+03  0.88261390524E+02 -0.74078675838E+03  0.76388829576E+03  0.91066618108E+02 0.  0.
         23    2    1    2    0    0 -0.51768485779E+02 -0.15425898034E+03 -0.30256900896E+03  0.35560856265E+03  0.91834827352E+02 0.  0.
        -11    1    4    4    0    0 -0.44606860816E+02 -0.11601009486E+03 -0.28866456114E+03  0.31428544828E+03  0.00000000000E+00 0. -1.
         11    1    4    4    0    0 -0.71616249634E+01 -0.38248885476E+02 -0.13904447816E+02  0.41323114371E+02  0.00000000000E+00 0.  1.
        -11    1    3    3    0    0  0.16786789650E+02  0.53108466558E+02 -0.32505448612E+03  0.32979194119E+03  0.00000000000E+00 0.  1.
         11    1    3    3    0    0  0.11987741568E+03  0.35152923966E+02 -0.41573227226E+03  0.43409635457E+03  0.00000000000E+00 0. -1.
         21    1    1    2  503  501  0.79497588218E+01  0.43635875166E+02  0.54268195883E+01  0.44684881533E+02  0.00000000000E+00 0.  1.
          1    1    1    2  501    0 -0.92845478373E+02  0.22361714651E+02 -0.15027129980E+03  0.17804997242E+03  0.00000000000E+00 0. -1.
<scales pt_clust_5="13000.00000" pt_clust_6="13000.00000" pt_clust_7="13000.00000" pt_clust_8="13000.00000" pt_clust_9="44.35412" pt_clust_10="13000.00000"></scales>
<clustering>
<clus scale="   44.354">  1  9  2 -1</clus>
<clus scale="   91.067">  7  8 -1 -1</clus>
<clus scale="   91.835">  5  6 -1 -1</clus>
<clus scale="   96.892">  5 10 -1 -1</clus>
<clus scale="  192.491">  2  7  1 -1</clus>
<clus scale="   44.354">  1  5  2 -1</clus>
</clustering>
</event>
<event>
10    2  0.4951045E-006  0.5144418E+03  0.7546771E-02  0.1060556E+00
         21   -1    0    0  501  502  0.00000000000E+00  0.00000000000E+00  0.10606429926E+04  0.10606429926E+04  0.00000000000E+00 0. -1.
          3   -1    0    0  503    0 -0.00000000000E+00 -0.00000000000E+00 -0.32574191747E+03  0.32574191747E+03  0.00000000000E+00 0. -1.
         23    2    1    2    0    0 -0.53491828256E+02 -0.42558802831E+02 -0.21673492068E+03  0.24580336564E+03  0.93662379479E+02 0.  0.
         23    2    1    2    0    0 -0.43399442125E+02  0.10037190290E+03  0.10943360418E+02  0.14386217667E+03  0.92836082802E+02 0.  0.
        -13    1    4    4    0    0 -0.47537668769E+02  0.53694636903E+01 -0.20623356502E+01  0.47884384935E+02  0.00000000000E+00 0.  1.
         13    1    4    4    0    0  0.41382266441E+01  0.95002439212E+02  0.13005696068E+02  0.95977791734E+02  0.00000000000E+00 0. -1.
        -13    1    3    3    0    0 -0.41025963616E+01 -0.19875655266E+02  0.20229529940E+01  0.20395227578E+02  0.00000000000E+00 0.  1.
         13    1    3    3    0    0 -0.49389231894E+02 -0.22683147565E+02 -0.21875787367E+03  0.22540813806E+03  0.00000000000E+00 0. -1.
         21    1    1    2  503  502 -0.87848096586E+02 -0.27062502291E+02  0.10173294846E+03  0.13711039314E+03  0.00000000000E+00 0. -1.
          3    1    1    2  501    0  0.18473936697E+03 -0.30750597781E+02  0.83895968692E+03  0.85960897462E+03  0.00000000000E+00 0. -1.
<scales pt_clust_5="13000.00000" pt_clust_6="13000.00000" pt_clust_7="13000.00000" pt_clust_8="13000.00000" pt_clust_9="91.92207" pt_clust_10="13000.00000"></scales>
<clustering>
<clus scale="   91.922">  1  9  2 -1</clus>
<clus scale="   92.836">  5  6 -1 -1</clus>
<clus scale="   93.662">  7  8 -1 -1</clus>
<clus scale="  116.739">  2  7  1 -1</clus>
<clus scale="  113.166">  5 10 -1 -1</clus>
<clus scale="   91.922">  1  5  2 -1</clus>
</clustering>
</event>
<event>
10    2  0.4951045E-006  0.1784841E+03  0.7546771E-02  0.1195640E+00
         21   -1    0    0  501  502  0.00000000000E+00  0.00000000000E+00  0.36751828208E+03  0.36751828208E+03  0.00000000000E+00 0. -1.
         -3   -1    0    0    0  501 -0.00000000000E+00 -0.00000000000E+00 -0.66981290645E+02  0.66981290645E+02  0.00000000000E+00 0.  1.
         23    2    1    2    0    0 -0.33602398780E+02  0.20720616189E+02  0.92405951756E+02  0.13598920094E+03  0.91628258273E+02 0.  0.
         23    2    1    2    0    0 -0.69659394672E+01 -0.32986803182E+02  0.13136354927E+03  0.16953536882E+03  0.10173104593E+03 0.  0.
        -11    1    4    4    0    0 -0.28620167845E+02  0.27846995435E+02  0.32666024714E+02  0.51591068343E+02  0.00000000000E+00 0.  1.
         11    1    4    4    0    0  0.21654228377E+02 -0.60833798617E+02  0.98697524561E+02  0.11794430048E+03  0.00000000000E+00 0. -1.
        -11    1    3    3    0    0 -0.11775882441E+02 -0.30282451288E+02  0.68034360274E+02  0.75394777281E+02  0.00000000000E+00 0. -1.
         11    1    3    3    0    0 -0.21826516339E+02  0.51003067477E+02  0.24371591482E+02  0.60594423662E+02  0.00000000000E+00 0.  1.
         21    1    1    2  503  502 -0.50150406321E+01 -0.24573333396E+02  0.64350750291E+02  0.69065319877E+02  0.00000000000E+00 0. -1.
         -3    1    1    2    0  503  0.45583378879E+02  0.36839520389E+02  0.12416740117E+02  0.59909683088E+02  0.00000000000E+00 0.  1.
<scales pt_clust_5="13000.00000" pt_clust_6="13000.00000" pt_clust_7="13000.00000" pt_clust_8="13000.00000" pt_clust_9="25.07986" pt_clust_10="13000.00000"></scales>
<clustering>
<clus scale="   25.080">  1  9  2 -1</clus>
<clus scale="   91.628">  7  8 -1 -1</clus>
<clus scale="   98.925">  2  7  1 -1</clus>
<clus scale="  101.731">  5  6 -1 -1</clus>
<clus scale="   48.046">  5 10 -1 -1</clus>
<clus scale="   25.080">  1  5  2 -1</clus>
</clustering>
</event>
<event>
10    2  0.4951045E-006  0.2466605E+03  0.7546771E-02  0.1139141E+00
         21   -1    0    0  503  502  0.00000000000E+00  0.00000000000E+00  0.18715394831E+03  0.18715394831E+03  0.00000000000E+00 0.  1.
         -2   -1    0    0    0  501 -0.00000000000E+00 -0.00000000000E+00 -0.34975693551E+03  0.34975693551E+03  0.00000000000E+00 0.  1.
         23    2    1    2    0    0 -0.10093531028E+03  0.59267199100E+02 -0.52655165154E+02  0.15654060912E+03  0.89620634547E+02 0.  0.
         23    2    1    2    0    0  0.47457602187E+02  0.31588816034E+02 -0.18553466603E+03  0.21500356830E+03  0.92484294783E+02 0.  0.
        -11    1    4    4    0    0  0.28519175663E+02 -0.31051612508E+02 -0.87587469011E+02  0.97206536548E+02  0.00000000000E+00 0. -1.
         11    1    4    4    0    0  0.18938426524E+02  0.62640428541E+02 -0.97947197018E+02  0.11779703176E+03  0.00000000000E+00 0.  1.
        -13    1    3    3    0    0 -0.40994157347E+02  0.68538239267E+02 -0.53065861604E+02  0.95885331757E+02  0.00000000000E+00 0.  1.
         13    1    3    3    0    0 -0.59941152934E+02 -0.92710401664E+01  0.41069644933E+00  0.60655277367E+02  0.00000000000E+00 0. -1.
         21    1    1    2  503  501  0.27948702692E+02 -0.75288210588E+01  0.72608954063E+02  0.78165678778E+02  0.00000000000E+00 0.  1.
         -2    1    1    2    0  502  0.25529005402E+02 -0.83327194075E+02  0.29778899178E+01  0.87201027618E+02  0.00000000000E+00 0.  1.
<scales pt_clust_5="13000.00000" pt_clust_6="13000.00000" pt_clust_7="13000.00000" pt_clust_8="13000.00000" pt_clust_9="28.94500" pt_clust_10="13000.00000"></scales>
<clustering>
<clus scale="   28.945">  1  9  2 -1</clus>
<clus scale="   89.621">  7  8 -1 -1</clus>
<clus scale="   92.484">  5  6 -1 -1</clus>
<clus scale="   93.880">  5 10 -1 -1</clus>
<clus scale="  137.392">  2  7  1 -1</clus>
<clus scale="   28.945">  1  5  2 -1</clus>
</clustering>
</event>
<event>
10    2  0.4951045E-006  0.5194038E+03  0.7546771E-02  0.1030346E+00
         -3   -1    0    0    0  501 -0.00000000000E+00  0.00000000000E+00  0.12524391363E+04  0.12524391363E+04  0.00000000000E+00 0.  1.
         21   -1    0    0  503  502  0.00000000000E+00 -0.00000000000E+00 -0.49283499892E+03  0.49283499892E+03  0.00000000000E+00 0. -1.
         23    2    1    2    0    0  0.21357613646E+03 -0.17479348963E+03  0.54939848497E+03  0.62137594845E+03  0.90010243529E+02 0.  0.
         23    2    1    2    0    0 -0.18605281798E+03  0.29772553415E+03  0.40513077264E+03  0.54449402950E+03  0.95323976313E+02 0.  0.
        -11    1    4    4    0    0 -0.48699507847E+02  0.26560717734E+02  0.35195120058E+02  0.65694826790E+02  0.00000000000E+00 0. -1.
         11    1    4    4    0    0 -0.13735331013E+03  0.27116481641E+03  0.36993565258E+03  0.47879920271E+03  0.00000000000E+00 0.  1.
        -13    1    3    3    0    0  0.41802359380E+02 -0.61202855772E+02  0.81485924316E+02  0.11015072703E+03  0.00000000000E+00 0. -1.
         13    1    3    3    0    0  0.17177377708E+03 -0.11359063386E+03  0.46791256066E+03  0.51122522142E+03  0.00000000000E+00 0.  1.
         21    1    1    2  503  501 -0.12580115006E+03 -0.25270650167E+02 -0.34921097814E+03  0.37203876460E+03  0.00000000000E+00 0. -1.
         -3    1    1    2    0  502  0.98277831580E+02 -0.97661394348E+02  0.15428585790E+03  0.20736539266E+03  0.00000000000E+00 0.  1.
<scales pt_clust_5="13000.00000" pt_clust_6="13000.00000" pt_clust_7="13000.00000" pt_clust_8="13000.00000" pt_clust_9="128.31420" pt_clust_10="13000.00000"></scales>
<clustering>
<clus scale="   90.010">  7  8 -1 -1</clus>
<clus scale="   95.324">  5  6 -1 -1</clus>
<clus scale="  128.314">  2  9  1 -1</clus>
<clus scale="  126.043">  5 10 -1 -1</clus>
<clus scale="  270.678">  1  7  2 -1</clus>
<clus scale="  128.314">  2  5  1 -1</clus>
</clustering>
</event>
<event>
10    2  0.4951045E-006  0.3351030E+03  0.7546771E-02  0.1095606E+00
          2   -1    0    0  503    0 -0.00000000000E+00  0.00000000000E+00  0.37812085970E+03  0.37812085970E+03  0.00000000000E+00 0. -1.
         21   -1    0    0  501  502  0.00000000000E+00 -0.00000000000E+00 -0.25647505043E+03  0.25647505043E+03  0.00000000000E+00 0. -1.
         23    2    1    2    0    0 -0.73934672102E+02 -0.11961064517E+03  0.16706685626E+03  0.23668189041E+03  0.91290419051E+02 0.  0.
         23    2    1    2    0    0 -0.85480886388E+02 -0.30117438700E+02  0.60560328302E+01  0.12820328963E+03  0.90473011926E+02 0.  0.
        -13    1    4    4    0    0 -0.79767762451E+02  0.16139764427E+02  0.18500557022E+01  0.81405224822E+02  0.00000000000E+00 0. -1.
         13    1    4    4    0    0 -0.57131239369E+01 -0.46257203127E+02  0.42059771279E+01  0.46798064809E+02  0.00000000000E+00 0.  1.
        -13    1    3    3    0    0 -0.38685843543E+02 -0.65375987256E+01  0.10973152698E+02  0.40739965241E+02  0.00000000000E+00 0.  1.
         13    1    3    3    0    0 -0.35248828559E+02 -0.11307304644E+03  0.15609370356E+03  0.19594192517E+03  0.00000000000E+00 0. -1.
         21    1    1    2  503  502 -0.10597169460E+01  0.31329438972E+02 -0.62563256692E+02  0.69977266553E+02  0.00000000000E+00 0. -1.
          2    1    1    2  501    0  0.16047527544E+03  0.11839864490E+03  0.11086176877E+02  0.19973346354E+03  0.00000000000E+00 0. -1.
<scales pt_clust_5="13000.00000" pt_clust_6="13000.00000" pt_clust_7="13000.00000" pt_clust_8="13000.00000" pt_clust_9="31.34736" pt_clust_10="13000.00000"></scales>
<clustering>
<clus scale="   31.347">  2  9  1 -1</clus>
<clus scale="   90.473">  5  6 -1 -1</clus>
<clus scale="   91.290">  7  8 -1 -1</clus>
<clus scale="  163.698">  1  7  2 -1</clus>
<clus scale="  128.979">  5 10 -1 -1</clus>
<clus scale="   31.347">  2  5  1 -1</clus>
</clustering>
</event>
<event>
10    2  0.4951045E-006  0.7414099E+03  0.7546771E-02  0.1022923E+00
          2   -1    0    0  503    0 -0.00000000000E+00  0.00000000000E+00  0.20469534553E+04  0.20469534553E+04  0.00000000000E+00 0. -1.
         21   -1    0    0  501  502  0.00000000000E+00 -0.00000000000E+00 -0.12522131584E+03  0.12522131584E+03  0.00000000000E+00 0. -1.
         23    2    1    2    0    0 -0.54979438520E+02 -0.48351785692E+02  0.22846956609E+03  0.25639533962E+03  0.90441106296E+02 0.  0.
         23    2    1    2    0    0  0.33285065917E+03  0.10436811313E+03  0.13282163216E+04  0.13762797230E+04  0.91131851911E+02 0.  0.
        -11    1    4    4    0    0  0.22649270451E+03  0.87179388886E+02  0.10557618978E+04  0.10832969934E+04  0.00000000000E+00 0. -1.
         11    1    4    4    0    0  0.10635795466E+03  0.17188724245E+02  0.27245442385E+03  0.29298272959E+03  0.00000000000E+00 0.  1.
        -13    1    3    3    0    0 -0.72975633981E+02 -0.15926948993E+02  0.18342061543E+03  0.19804603763E+03  0.00000000000E+00 0. -1.
         13    1    3    3    0    0  0.17996195461E+02 -0.32424836699E+02  0.45048950668E+02  0.58349301986E+02  0.00000000000E+00 0.  1.
         21    1    1    2  503  502  0.25903944359E+02 -0.24419275338E+02 -0.25444035194E+02  0.43757448147E+02  0.00000000000E+00 0. -1.
          2    1    1    2  501    0 -0.30377516501E+03 -0.31597052101E+02  0.39049028698E+03  0.49574226046E+03  0.00000000000E+00 0. -1.
<scales pt_clust_5="13000.00000" pt_clust_6="13000.00000" pt_clust_7="13000.00000" pt_clust_8="13000.00000" pt_clust_9="35.59937" pt_clust_10="13000.00000"></scales>
<clustering>
<clus scale="   35.599">  2  9  1 -1</clus>
<clus scale="   90.441">  7  8 -1 -1</clus>
<clus scale="   91.132">  5  6 -1 -1</clus>
<clus scale="  116.169">  1  7  2 -1</clus>
<clus scale="  305.937">  5 10 -1 -1</clus>
<clus scale="   35.599">  2  5  1 -1</clus>
</clustering>
</event>
<event>
10    2  0.4951045E-006  0.3512237E+03  0.7546771E-02  0.1111298E+00
          1   -1    0    0  502    0 -0.00000000000E+00  0.00000000000E+00  0.11325642335E+04  0.11325642335E+04  0.00000000000E+00 0. -1.
         21   -1    0    0  503  502  0.00000000000E+00 -0.00000000000E+00 -0.70768154873E+02  0.70768154873E+02  0.00000000000E+00 0. -1.
         23    2    1    2    0    0 -0.27281364668E+02 -0.58413757294E+00  0.16964755457E+03  0.19437105240E+03  0.90858126563E+02 0.  0.
         23    2    1    2    0    0 -0.43473945329E+02 -0.17426702150E+03  0.51593932667E+03  0.55400284056E+03  0.92015106586E+02 0.  0.
        -11    1    4    4    0    0 -0.50893331769E+02 -0.35580096411E+02  0.13709088615E+03  0.15049912141E+03  0.00000000000E+00 0.  1.
         11    1    4    4    0    0  0.74193864405E+01 -0.13868692509E+03  0.37884844051E+03  0.40350371915E+03  0.00000000000E+00 0. -1.
        -13    1    3    3    0    0 -0.19834944995E+02  0.34990847931E+02  0.14495227864E+03  0.15042921114E+03  0.00000000000E+00 0. -1.
         13    1    3    3    0    0 -0.74464196733E+01 -0.35574985504E+02  0.24695275935E+02  0.43941841257E+02  0.00000000000E+00 0.  1.
         21    1    1    2  503  501 -0.49074365309E+02  0.84286911317E+02  0.95021756022E+02  0.13616795096E+03  0.00000000000E+00 0. -1.
          1    1    1    2  501    0  0.11982967531E+03  0.90564247758E+02  0.28118744135E+03  0.31879054445E+03  0.00000000000E+00 0. -1.
<scales pt_clust_5="13000.00000" pt_clust_6="13000.00000" pt_clust_7="13000.00000" pt_clust_8="13000.00000" pt_clust_9="99.18283" pt_clust_10="13000.00000"></scales>
<clustering>
<clus scale="   90.858">  7  8 -1 -1</clus>
<clus scale="   92.015">  5  6 -1 -1</clus>
<clus scale="   94.867">  1  7  2 -1</clus>
<clus scale="   99.183">  2  9  1 -1</clus>
<clus scale="  155.671">  5 10 -1 -1</clus>
<clus scale="   99.183">  2  5  1 -1</clus>
</clustering>
</event>
<event>
10    2  0.6098609E-006  0.2353977E+03  0.7546771E-02  0.1135451E+00
         21   -1    0    0  503  502  0.00000000000E+00  0.00000000000E+00  0.23593650857E+03  0.23593650857E+03  0.00000000000E+00 0. -1.
         -1   -1    0    0    0  501 -0.00000000000E+00 -0.00000000000E+00 -0.95339178682E+03  0.95339178682E+03  0.00000000000E+00 0.  1.
         23    2    1    2    0    0 -0.70667720140E+02  0.12402710582E+03 -0.37726852372E+03  0.41390196281E+03  0.92772011813E+02 0.  0.
         23    2    1    2    0    0  0.13560862814E+02 -0.23908193573E+02 -0.19800445274E+03  0.21957688574E+03  0.90844629572E+02 0.  0.
        -11    1    3    3    0    0 -0.20283812264E+02 -0.69154856209E+01 -0.17247287229E+02  0.27508651332E+02  0.00000000000E+00 0. -1.
         11    1    3    3    0    0 -0.50383907876E+02  0.13094259145E+03 -0.36002123649E+03  0.38639331148E+03  0.00000000000E+00 0.  1.
        -13    1    4    4    0    0  0.80644935059E+01  0.26430372894E+02 -0.13945950919E+03  0.14217086681E+03  0.00000000000E+00 0.  1.
         13    1    4    4    0    0  0.54963693076E+01 -0.50338566467E+02 -0.58544943556E+02  0.77406018923E+02  0.00000000000E+00 0. -1.
         21    1    1    2  503  501 -0.10597013902E+03 -0.75537845160E+02  0.16322813682E+03  0.20875598450E+03  0.00000000000E+00 0. -1.
         -1    1    1    2    0  502  0.16307699635E+03 -0.24581067091E+02 -0.30541043860E+03  0.34709346235E+03  0.00000000000E+00 0.  1.
<scales pt_clust_5="13000.00000" pt_clust_6="13000.00000" pt_clust_7="13000.00000" pt_clust_8="13000.00000" pt_clust_9="130.13699" pt_clust_10="13000.00000"></scales>
<clustering>
<clus scale="   90.845">  7  8 -1 -1</clus>
<clus scale="   92.772">  5  6 -1 -1</clus>
<clus scale="  130.137">  1  9  2 -1</clus>
<clus scale="  131.432">  7 10 -1 -1</clus>
<clus scale="  172.864">  2  5  1 -1</clus>
<clus scale="  130.137">  1  5  2 -1</clus>
</clustering>
</event>
<event>
10    2  0.4951045E-006  0.1833950E+03  0.7546771E-02  0.1172878E+00
         21   -1    0    0  501  502  0.00000000000E+00  0.00000000000E+00  0.25021682045E+03  0.25021682045E+03  0.00000000000E+00 0.  1.
          2   -1    0    0  503    0 -0.00000000000E+00 -0.00000000000E+00 -0.40495357697E+03  0.40495357697E+03  0.00000000000E+00 0. -1.
         23    2    1    2    0    0 -0.97523459301E+02  0.65978733895E+02 -0.12535122297E+03  0.19410934891E+03  0.90008287360E+02 0.  0.
         23    2    1    2    0    0  0.66962666294E+02 -0.46459040302E+02 -0.16506462342E+03  0.21325403644E+03  0.10764995611E+03 0.  0.
        -13    1    4    4    0    0  0.23636493524E+02 -0.75703166144E+01  0.11488715888E+02  0.27349298209E+02  0.00000000000E+00 0.  1.
         13    1    4    4    0    0  0.43326172769E+02 -0.38888723688E+02 -0.17655333930E+03  0.18590473823E+03  0.00000000000E+00 0. -1.
        -13    1    3    3    0    0 -0.50223673586E+02  0.38968011432E+02 -0.71591357353E+01  0.63970122150E+02  0.00000000000E+00 0.  1.
         13    1    3    3    0    0 -0.47299785715E+02  0.27010722463E+02 -0.11819208723E+03  0.13013922676E+03  0.00000000000E+00 0. -1.
         21    1    1    2  503  502 -0.20307070205E+02 -0.17139357991E+02  0.17899264351E+03  0.18095441725E+03  0.00000000000E+00 0.  1.
          2    1    1    2  501    0  0.50867863212E+02 -0.23803356020E+01 -0.43313553645E+02  0.66852594824E+02  0.00000000000E+00 0. -1.
<scales pt_clust_5="13000.00000" pt_clust_6="13000.00000" pt_clust_7="13000.00000" pt_clust_8="13000.00000" pt_clust_9="26.57320" pt_clust_10="13000.00000"></scales>
<clustering>
<clus scale="   26.573">  1  9  2 -1</clus>
<clus scale="   90.008">  7  8 -1 -1</clus>
<clus scale="  107.650">  5  6 -1 -1</clus>
<clus scale="   47.755">  5 10 -1 -1</clus>
<clus scale="  151.546">  2  7  1 -1</clus>
<clus scale="   26.573">  1  5  2 -1</clus>
</clustering>
</event>
<event>
10    2  0.4951045E-006  0.1386740E+03  0.7546771E-02  0.1232551E+00
         21   -1    0    0  501  502  0.00000000000E+00  0.00000000000E+00  0.21707626945E+03  0.21707626945E+03  0.00000000000E+00 0.  1.
          2   -1    0    0  503    0 -0.00000000000E+00 -0.00000000000E+00 -0.12917123971E+03  0.12917123971E+03  0.00000000000E+00 0. -1.
         23    2    1    2    0    0  0.69456996033E+01  0.29945617018E+02 -0.37025526845E+02  0.10353770383E+03  0.91674335312E+02 0.  0.
         23    2    1    2    0    0  0.42011425091E+01 -0.54379924212E+01  0.46148382359E+02  0.10208640885E+03  0.90800552409E+02 0.  0.
        -11    1    4    4    0    0  0.52179222095E+01 -0.26244671429E+02 -0.19566341752E+02  0.33148924872E+02  0.00000000000E+00 0. -1.
         11    1    4    4    0    0 -0.10167797003E+01  0.20806679008E+02  0.65714724111E+02  0.68937483978E+02  0.00000000000E+00 0.  1.
        -11    1    3    3    0    0 -0.19543661449E+02  0.53118530032E+02 -0.38265428696E+02  0.68321123884E+02  0.00000000000E+00 0. -1.
         11    1    3    3    0    0  0.26489361052E+02 -0.23172913014E+02  0.12399018503E+01  0.35216579946E+02  0.00000000000E+00 0.  1.
         21    1    1    2  503  502  0.23435631287E+02 -0.11971121996E+02  0.96335474754E+02  0.99865210517E+02  0.00000000000E+00 0.  1.
          2    1    1    2  501    0 -0.34582473399E+02 -0.12536502600E+02 -0.17553300530E+02  0.40758185968E+02  0.00000000000E+00 0. -1.
<scales pt_clust_5="13000.00000" pt_clust_6="13000.00000" pt_clust_7="13000.00000" pt_clust_8="13000.00000" pt_clust_9="26.31609" pt_clust_10="13000.00000"></scales>
<clustering>
<clus scale="   26.316">  1  9  2 -1</clus>
<clus scale="   90.801">  5  6 -1 -1</clus>
<clus scale="   35.084">  5 10 -1 -1</clus>
<clus scale="   91.674">  7  8 -1 -1</clus>
<clus scale="   96.405">  2  7  1 -1</clus>
<clus scale="   26.316">  1  5  2 -1</clus>
</clustering>
</event>
<event>
10    2  0.4951045E-006  0.1764779E+03  0.7546771E-02  0.1180287E+00
         21   -1    0    0  503  502  0.00000000000E+00  0.00000000000E+00  0.93262246207E+02  0.93262246207E+02  0.00000000000E+00 0. -1.
         -3   -1    0    0    0  501 -0.00000000000E+00 -0.00000000000E+00 -0.62584315404E+03  0.62584315404E+03  0.00000000000E+00 0.  1.
         23    2    1    2    0    0 -0.93160130141E+02 -0.49905056182E+01 -0.37455154657E+03  0.40099953692E+03  0.10866486359E+03 0.  0.
         23    2    1    2    0    0  0.91567828056E+02  0.73881897557E+00 -0.18503790554E+03  0.22679354843E+03  0.93867321980E+02 0.  0.
        -13    1    3    3    0    0 -0.86764204439E+02 -0.37457056520E+02 -0.34108791387E+03  0.35393788048E+03  0.00000000000E+00 0.  1.
         13    1    3    3    0    0 -0.63959257021E+01  0.32466550902E+02 -0.33463632708E+02  0.47061656442E+02  0.00000000000E+00 0. -1.
        -13    1    4    4    0    0  0.87491299513E+01 -0.30241773196E+02 -0.97143035069E+02  0.10211699850E+03  0.00000000000E+00 0. -1.
         13    1    4    4    0    0  0.82818698105E+02  0.30980592172E+02 -0.87894870468E+02  0.12467654993E+03  0.00000000000E+00 0.  1.
         21    1    1    2  503  501  0.34709307993E-01 -0.33889759049E+02  0.38649745198E+02  0.51403499657E+02  0.00000000000E+00 0. -1.
         -3    1    1    2    0  502  0.15575927770E+01  0.38141445692E+02 -0.11641200923E+02  0.39908815238E+02  0.00000000000E+00 0.  1.
<scales pt_clust_5="13000.00000" pt_clust_6="13000.00000" pt_clust_7="13000.00000" pt_clust_8="13000.00000" pt_clust_9="33.88978" pt_clust_10="13000.00000"></scales>
<clustering>
<clus scale="   33.890">  1  9  2 -1</clus>
<clus scale="   93.867">  7  8 -1 -1</clus>
<clus scale="   28.255">  7 10 -1 -1</clus>
<clus scale="  108.665">  5  6 -1 -1</clus>
<clus scale="  143.837">  2  5  1 -1</clus>
<clus scale="   33.890">  1  5  2 -1</clus>
</clustering>
</event>
<event>
10    2  0.4951045E-006  0.1395262E+03  0.7546771E-02  0.1231368E+00
         -2   -1    0    0    0  501 -0.00000000000E+00  0.00000000000E+00  0.18885123602E+03  0.18885123602E+03  0.00000000000E+00 0.  1.
         21   -1    0    0  501  502  0.00000000000E+00 -0.00000000000E+00 -0.12553632069E+03  0.12553632069E+03  0.00000000000E+00 0. -1.
         23    2    1    2    0    0 -0.24014493335E+02 -0.21329143721E+02  0.10252621587E+03  0.14132694669E+03  0.91815318216E+02 0.  0.
         23    2    1    2    0    0  0.51418093647E+01 -0.13311558932E+01  0.16550374491E+02  0.96945067114E+02  0.95374110546E+02 0.  0.
        -11    1    4    4    0    0  0.16396148218E+02 -0.29409896548E+02  0.44470161979E+02  0.55779664733E+02  0.00000000000E+00 0.  1.
         11    1    4    4    0    0 -0.11254338854E+02  0.28078740654E+02 -0.27919787488E+02  0.41165402381E+02  0.00000000000E+00 0. -1.
        -13    1    3    3    0    0 -0.65640932432E+01 -0.51477384030E+02  0.90779302265E+02  0.10456524330E+03  0.00000000000E+00 0.  1.
         13    1    3    3    0    0 -0.17450400092E+02  0.30148240310E+02  0.11746913605E+02  0.36761703393E+02  0.00000000000E+00 0. -1.
         21    1    1    2  503  502 -0.10042747581E+02  0.20378496009E+02 -0.22335953538E+02  0.31859609210E+02  0.00000000000E+00 0.  1.
         -2    1    1    2    0  503  0.28915431551E+02  0.22818036050E+01 -0.33425721492E+02  0.44255933690E+02  0.00000000000E+00 0.  1.
<scales pt_clust_5="13000.00000" pt_clust_6="13000.00000" pt_clust_7="13000.00000" pt_clust_8="13000.00000" pt_clust_9="22.71871" pt_clust_10="13000.00000"></scales>
<clustering>
<clus scale="   22.719">  2  9  1 -1</clus>
<clus scale="   91.815">  7  8 -1 -1</clus>
<clus scale="   95.374">  5  6 -1 -1</clus>
<clus scale="   27.004">  5 10 -1 -1</clus>
<clus scale="   96.982">  1  7  2 -1</clus>
<clus scale="   22.719">  2  5  1 -1</clus>
</clustering>
</event>
<event>
10    2  0.4951045E-006  0.2644687E+03  0.7546771E-02  0.1121592E+00
         -4   -1    0    0    0  501 -0.00000000000E+00  0.00000000000E+00  0.74995443345E+02  0.74995443345E+02  0.00000000000E+00 0.  1.
         21   -1    0    0  503  502  0.00000000000E+00 -0.00000000000E+00 -0.19825306779E+04  0.19825306779E+04  0.00000000000E+00 0. -1.
         23    2    1    2    0    0 -0.72686222678E+02 -0.12346761498E+03 -0.27528041776E+03  0.32432067674E+03  0.94218119508E+02 0.  0.
         23    2    1    2    0    0  0.94218537633E+01  0.64171080232E+02 -0.21003938238E+03  0.23739733506E+03  0.89633998437E+02 0.  0.
        -11    1    4    4    0    0 -0.38661885697E+02  0.18845681637E+02 -0.10278925446E+03  0.11142500596E+03  0.00000000000E+00 0.  1.
         11    1    4    4    0    0  0.48083739460E+02  0.45325398595E+02 -0.10725012793E+03  0.12597232910E+03  0.00000000000E+00 0. -1.
        -13    1    3    3    0    0 -0.90389514480E+02 -0.77863568071E+02 -0.22174005382E+03  0.25179684475E+03  0.00000000000E+00 0.  1.
         13    1    3    3    0    0  0.17703291802E+02 -0.45604046911E+02 -0.53540363944E+02  0.72523831990E+02  0.00000000000E+00 0. -1.
         21    1    1    2  503  501  0.16278063862E+03 -0.10296249188E+03 -0.11351132537E+04  0.11513387468E+04  0.00000000000E+00 0. -1.
         -4    1    1    2    0  502 -0.99516269705E+02  0.16225902663E+03 -0.28710218067E+03  0.34446936265E+03  0.00000000000E+00 0.  1.
<scales pt_clust_5="13000.00000" pt_clust_6="13000.00000" pt_clust_7="13000.00000" pt_clust_8="13000.00000" pt_clust_9="194.71051" pt_clust_10="13000.00000"></scales>
<clustering>
<clus scale="   89.634">  5  6 -1 -1</clus>
<clus scale="   94.218">  7  8 -1 -1</clus>
<clus scale="  171.478">  1  7  2 -1</clus>
<clus scale="  168.263">  5 10 -1 -1</clus>
<clus scale="  194.711">  2  9  1 -1</clus>
<clus scale="  194.711">  2  5  1 -1</clus>
</clustering>
</event>
<event>
10    2  0.4951045E-006  0.3994689E+03  0.7546771E-02  0.1085911E+00
          2   -1    0    0  502    0 -0.00000000000E+00  0.00000000000E+00  0.61165404879E+03  0.61165404879E+03  0.00000000000E+00 0. -1.
         21   -1    0    0  503  502  0.00000000000E+00 -0.00000000000E+00 -0.24424908577E+03  0.24424908577E+03  0.00000000000E+00 0.  1.
         23    2    1    2    0    0 -0.62562505979E+02 -0.59917049068E+02  0.57649800445E+02  0.13789015728E+03  0.90476936621E+02 0.  0.
         23    2    1    2    0    0 -0.10143819300E+03  0.99437053433E+02  0.31935984492E+03  0.36094881485E+03  0.90088299994E+02 0.  0.
        -11    1    4    4    0    0 -0.48880374954E+02  0.72436085627E+02  0.27053656568E+03  0.28429968507E+03  0.00000000000E+00 0. -1.
         11    1    4    4    0    0 -0.52557818050E+02  0.27000967806E+02  0.48823279237E+02  0.76649129780E+02  0.00000000000E+00 0.  1.
        -13    1    3    3    0    0 -0.69613070589E+02 -0.35882384403E+02  0.36938882011E+01  0.78403889682E+02  0.00000000000E+00 0.  1.
         13    1    3    3    0    0  0.70505646094E+01 -0.24034664665E+02  0.53955912244E+02  0.59486267599E+02  0.00000000000E+00 0. -1.
         21    1    1    2  503  501 -0.22049284489E+02  0.29600304453E+02 -0.12304220858E+03  0.12845907544E+03  0.00000000000E+00 0.  1.
          2    1    1    2  501    0  0.18604998347E+03 -0.69120308818E+02  0.11343752624E+03  0.22860508699E+03  0.00000000000E+00 0. -1.
<scales pt_clust_5="13000.00000" pt_clust_6="13000.00000" pt_clust_7="13000.00000" pt_clust_8="13000.00000" pt_clust_9="36.91001" pt_clust_10="13000.00000"></scales>
<clustering>
<clus scale="   36.910">  2  9  1 -1</clus>
<clus scale="   90.088">  5  6 -1 -1</clus>
<clus scale="   90.477">  7  8 -1 -1</clus>
<clus scale="  124.818">  1  7  2 -1</clus>
<clus scale="  169.759">  5 10 -1 -1</clus>
<clus scale="   36.910">  2  5  1 -1</clus>
</clustering>
</event>
<event>
10    2  0.4951045E-006  0.2914668E+03  0.7546771E-02  0.1110793E+00
          1   -1    0    0  503    0 -0.00000000000E+00  0.00000000000E+00  0.68138076781E+03  0.68138076781E+03  0.00000000000E+00 0. -1.
         21   -1    0    0  501  502  0.00000000000E+00 -0.00000000000E+00 -0.22105957782E+03  0.22105957782E+03  0.00000000000E+00 0.  1.
         23    2    1    2    0    0  0.34714280305E+02 -0.12345853120E+03  0.19018919365E+03  0.24766052484E+03  0.93363354673E+02 0.  0.
         23    2    1    2    0    0  0.80998845034E+02  0.67106791818E+02  0.16970623246E+03  0.22142131037E+03  0.95723857750E+02 0.  0.
        -11    1    3    3    0    0  0.21833369216E+02 -0.76960106760E+02  0.39074999935E+02  0.89030386182E+02  0.00000000000E+00 0.  1.
         11    1    3    3    0    0  0.12880911089E+02 -0.46498424442E+02  0.15111419372E+03  0.15863013865E+03  0.00000000000E+00 0. -1.
        -11    1    4    4    0    0  0.61285623556E+02  0.56295402516E+02  0.44804504828E+02  0.94512134946E+02  0.00000000000E+00 0.  1.
         11    1    4    4    0    0  0.19713221477E+02  0.10811389302E+02  0.12490172764E+03  0.12690917542E+03  0.00000000000E+00 0. -1.
         21    1    1    2  503  502  0.18100070721E+02 -0.27510861302E+02 -0.14104197291E+03  0.14483541753E+03  0.00000000000E+00 0.  1.
          1    1    1    2  501    0 -0.13381319606E+03  0.83862600685E+02  0.24146773677E+03  0.28852309290E+03  0.00000000000E+00 0. -1.
<scales pt_clust_5="13000.00000" pt_clust_6="13000.00000" pt_clust_7="13000.00000" pt_clust_8="13000.00000" pt_clust_9="32.93114" pt_clust_10="13000.00000"></scales>
<clustering>
<clus scale="   32.931">  2  9  1 -1</clus>
<clus scale="   93.363">  5  6 -1 -1</clus>
<clus scale="   95.724">  7  8 -1 -1</clus>
<clus scale="  148.959">  7 10 -1 -1</clus>
<clus scale="  168.141">  1  5  2 -1</clus>
<clus scale="   32.931">  2  5  1 -1</clus>
</clustering>
</event>
<event>
10    2  0.4951045E-006  0.1315068E+03  0.7546771E-02  0.1239247E+00
         -2   -1    0    0    0  501 -0.00000000000E+00  0.00000000000E+00  0.53951238137E+03  0.53951238137E+03  0.00000000000E+00 0.  1.
         21   -1    0    0  501  502  0.00000000000E+00 -0.00000000000E+00 -0.69052968356E+02  0.69052968356E+02  0.00000000000E+00 0. -1.
         23    2    1    2    0    0 -0.42189992049E+01  0.27941343301E+02  0.19190149645E+03  0.21479160957E+03  0.92253631800E+02 0.  0.
         23    2    1    2    0    0  0.54528177272E+01 -0.49711514446E+02  0.24539126376E+03  0.26652771269E+03  0.91209546722E+02 0.  0.
        -13    1    3    3    0    0  0.37864394952E+02  0.36927266976E+02  0.11721654921E+03  0.12859648075E+03  0.00000000000E+00 0. -1.
         13    1    3    3    0    0 -0.42083394157E+02 -0.89859236753E+01  0.74684947245E+02  0.86195128824E+02  0.00000000000E+00 0.  1.
        -13    1    4    4    0    0  0.14905295467E+02  0.23421501792E+02  0.95908062034E+02  0.99845335105E+02  0.00000000000E+00 0. -1.
         13    1    4    4    0    0 -0.94524777397E+01 -0.73133016238E+02  0.14948320172E+03  0.16668237758E+03  0.00000000000E+00 0.  1.
         21    1    1    2  503  502 -0.27535240395E+02  0.54832263647E+01 -0.39388729988E+02  0.48370727564E+02  0.00000000000E+00 0. -1.
         -2    1    1    2    0  503  0.26301421873E+02  0.16286944781E+02  0.72555382787E+02  0.78875299899E+02  0.00000000000E+00 0.  1.
<scales pt_clust_5="13000.00000" pt_clust_6="13000.00000" pt_clust_7="13000.00000" pt_clust_8="13000.00000" pt_clust_9="28.07588" pt_clust_10="13000.00000"></scales>
<clustering>
<clus scale="   28.076">  2  9  1 -1</clus>
<clus scale="   91.210">  7  8 -1 -1</clus>
<clus scale="   28.461">  7 10 -1 -1</clus>
<clus scale="   92.254">  5  6 -1 -1</clus>
<clus scale="   98.576">  1  5  2 -1</clus>
<clus scale="   28.076">  2  5  1 -1</clus>
</clustering>
</event>
<event>
10    2  0.4951045E-006  0.3518654E+03  0.7546771E-02  0.1102864E+00
         -1   -1    0    0    0  501 -0.00000000000E+00  0.00000000000E+00  0.44315675170E+03  0.44315675170E+03  0.00000000000E+00 0.  1.
         21   -1    0    0  503  502  0.00000000000E+00 -0.00000000000E+00 -0.57590197653E+03  0.57590197653E+03  0.00000000000E+00 0. -1.
         23    2    1    2    0    0  0.78932528285E+02  0.17761051073E+02  0.97587075354E+02  0.15242995279E+03  0.84651369014E+02 0.  0.
         23    2    1    2    0    0 -0.81871434834E+02 -0.33559682391E+02  0.20829137257E+03  0.24410033610E+03  0.91490404290E+02 0.  0.
        -13    1    3    3    0    0  0.64729927967E+02 -0.26447204001E+02  0.50146390611E+02  0.86046956166E+02  0.00000000000E+00 0.  1.
         13    1    3    3    0    0  0.14202600318E+02  0.44208255074E+02  0.47440684743E+02  0.66382996628E+02  0.00000000000E+00 0. -1.
        -13    1    4    4    0    0 -0.22912689347E+02  0.24541842818E+02  0.11297208376E+03  0.11785578090E+03  0.00000000000E+00 0. -1.
         13    1    4    4    0    0 -0.58958745487E+02 -0.58101525209E+02  0.95319288807E+02  0.12624455521E+03  0.00000000000E+00 0.  1.
         21    1    1    2  503  501  0.74765963833E+02 -0.13984464975E+03 -0.42139822449E+03  0.45024764188E+03  0.00000000000E+00 0. -1.
         -1    1    1    2    0  502 -0.71827057283E+02  0.15564328107E+03 -0.17225448259E+02  0.17228079745E+03  0.00000000000E+00 0.  1.
<scales pt_clust_5="13000.00000" pt_clust_6="13000.00000" pt_clust_7="13000.00000" pt_clust_8="13000.00000" pt_clust_9="159.59274" pt_clust_10="13000.00000"></scales>
<clustering>
<clus scale="   84.651">  5  6 -1 -1</clus>
<clus scale="   91.490">  7  8 -1 -1</clus>
<clus scale="  117.097">  1  5  2 -1</clus>
<clus scale="  159.593">  2  9  1 -1</clus>
<clus scale="   59.542">  7 10 -1 -1</clus>
<clus scale="  159.593">  2  5  1 -1</clus>
</clustering>
</event>
<event>
10    2  0.4951045E-006  0.2507665E+03  0.7546771E-02  0.1150576E+00
         21   -1    0    0  501  502  0.00000000000E+00  0.00000000000E+00  0.12571683561E+03  0.12571683561E+03  0.00000000000E+00 0. -1.
          1   -1    0    0  503    0 -0.00000000000E+00 -0.00000000000E+00 -0.35264416655E+03  0.35264416655E+03  0.00000000000E+00 0. -1.
         23    2    1    2    0    0  0.44388560671E+02 -0.64889748990E+01 -0.79050003136E+02  0.12364866585E+03  0.83831011304E+02 0.  0.
         23    2    1    2    0    0 -0.14679764473E+03  0.48504857445E+02 -0.78010179453E+02  0.19557216497E+03  0.90887919545E+02 0.  0.
        -11    1    3    3    0    0  0.38899940370E+02 -0.29668964051E+02 -0.85906667506E+02  0.98860549820E+02  0.00000000000E+00 0. -1.
         11    1    3    3    0    0  0.54886203013E+01  0.23179989152E+02  0.68566643701E+01  0.24788116027E+02  0.00000000000E+00 0.  1.
        -11    1    4    4    0    0 -0.91842351842E+02 -0.70782051086E+01 -0.72483430159E+02  0.11721333639E+03  0.00000000000E+00 0.  1.
         11    1    4    4    0    0 -0.54955292889E+02  0.55583062554E+02 -0.55267492940E+01  0.78358828584E+02  0.00000000000E+00 0. -1.
         21    1    1    2  503  502  0.28800646154E+02 -0.40518797451E+02  0.97941372335E+01  0.50667300006E+02  0.00000000000E+00 0. -1.
          1    1    1    2  501    0  0.73608437906E+02 -0.14970850946E+01 -0.79661285586E+02  0.10847287134E+03  0.00000000000E+00 0. -1.
<scales pt_clust_5="13000.00000" pt_clust_6="13000.00000" pt_clust_7="13000.00000" pt_clust_8="13000.00000" pt_clust_9="49.71167" pt_clust_10="13000.00000"></scales>
<clustering>
<clus scale="   49.712">  1  9  2 -1</clus>
<clus scale="   83.831">  5  6 -1 -1</clus>
<clus scale="   90.888">  7  8 -1 -1</clus>
<clus scale="   78.324">  7 10 -1 -1</clus>
<clus scale="   99.473">  2  5  1 -1</clus>
<clus scale="   49.712">  1  5  2 -1</clus>
</clustering>
</event>
<event>
10    2  0.4951045E-006  0.2609347E+03  0.7546771E-02  0.1143066E+00
         21   -1    0    0  503  502  0.00000000000E+00  0.00000000000E+00  0.17023701124E+03  0.17023701124E+03  0.00000000000E+00 0.  1.
         -1   -1    0    0    0  501 -0.00000000000E+00 -0.00000000000E+00 -0.44758590159E+03  0.44758590159E+03  0.00000000000E+00 0.  1.
         23    2    1    2    0    0 -0.53467765990E+02 -0.92824493076E+00  0.92779511925E+02  0.14004271673E+03  0.90245559657E+02 0.  0.
         23    2    1    2    0    0  0.41049332683E+02  0.76847372864E+02 -0.30215325168E+03  0.32728433360E+03  0.90707668312E+02 0.  0.
        -11    1    4    4    0    0 -0.27165082957E+02  0.78483258513E+01 -0.80626829211E+02  0.85441345609E+02  0.00000000000E+00 0. -1.
         11    1    4    4    0    0  0.68214415640E+02  0.68999047013E+02 -0.22152642247E+03  0.24184298799E+03  0.00000000000E+00 0.  1.
        -11    1    3    3    0    0 -0.37339869319E+02 -0.43415700677E+02  0.37365005584E+02  0.68376403446E+02  0.00000000000E+00 0. -1.
         11    1    3    3    0    0 -0.16127896671E+02  0.42487455746E+02  0.55414506341E+02  0.71666313285E+02  0.00000000000E+00 0.  1.
         21    1    1    2  503  501  0.31007890152E+01  0.27973563602E+02 -0.48132086455E+01  0.28553495943E+02  0.00000000000E+00 0. -1.
         -1    1    1    2    0  502  0.93176442924E+01 -0.10389269154E+03 -0.63161941952E+02  0.12194236655E+03  0.00000000000E+00 0.  1.
<scales pt_clust_5="13000.00000" pt_clust_6="13000.00000" pt_clust_7="13000.00000" pt_clust_8="13000.00000" pt_clust_9="28.14490" pt_clust_10="13000.00000"></scales>
<clustering>
<clus scale="   28.145">  1  9  2 -1</clus>
<clus scale="   90.246">  7  8 -1 -1</clus>
<clus scale="   90.708">  5  6 -1 -1</clus>
<clus scale="   99.196">  5 10 -1 -1</clus>
<clus scale="  105.594">  2  7  1 -1</clus>
<clus scale="   28.145">  1  5  2 -1</clus>
</clustering>
</event>
<event>
10    2  0.4951045E-006  0.4883598E+03  0.7546771E-02  0.1031303E+00
         21   -1    0    0  501  502  0.00000000000E+00  0.00000000000E+00  0.32266644634E+03  0.32266644634E+03  0.00000000000E+00 0. -1.
          2   -1    0    0  503    0 -0.00000000000E+00 -0.00000000000E+00 -0.64856690349E+03  0.64856690349E+03  0.00000000000E+00 0. -1.
         23    2    1    2    0    0  0.29618689919E+03 -0.43581212121E+01 -0.13457863296E+03  0.33709305736E+03  0.88173966663E+02 0.  0.
         23    2    1    2    0    0  0.22785062674E+01 -0.65773459618E+01 -0.21831007096E+03  0.23941422621E+03  0.98037908779E+02 0.  0.
        -13    1    3    3    0    0  0.87605937615E+02 -0.41735624331E+02 -0.37919607739E+02  0.10418521630E+03  0.00000000000E+00 0.  1.
         13    1    3    3    0    0  0.20858096158E+03  0.37377503119E+02 -0.96659025218E+02  0.23290784106E+03  0.00000000000E+00 0. -1.
        -13    1    4    4    0    0  0.12913238489E+01 -0.45801914436E+02 -0.55637119012E+02  0.72076153444E+02  0.00000000000E+00 0.  1.
         13    1    4    4    0    0  0.98718241851E+00  0.39224568475E+02 -0.16267295195E+03  0.16733807276E+03  0.00000000000E+00 0. -1.
         21    1    1    2  503  502  0.19138301628E+02 -0.83014008457E+01  0.70552359436E+02  0.73571891828E+02  0.00000000000E+00 0.  1.
          2    1    1    2  501    0 -0.31760370709E+03  0.19236868020E+02 -0.43564112667E+02  0.32115417444E+03  0.00000000000E+00 0. -1.
<scales pt_clust_5="13000.00000" pt_clust_6="13000.00000" pt_clust_7="13000.00000" pt_clust_8="13000.00000" pt_clust_9="20.86116" pt_clust_10="13000.00000"></scales>
<clustering>
<clus scale="   20.861">  1  9  2 -1</clus>
<clus scale="   88.174">  5  6 -1 -1</clus>
<clus scale="   98.038">  7  8 -1 -1</clus>
<clus scale="  307.353">  7 10 -1 -1</clus>
<clus scale="  316.546">  2  5  1 -1</clus>
<clus scale="   20.861">  1  5  2 -1</clus>
</clustering>
</event>
<event>
10    2  0.4951045E-006  0.2404309E+03  0.7546771E-02  0.1143569E+00
         21   -1    0    0  503  502  0.00000000000E+00  0.00000000000E+00  0.14615112537E+03  0.14615112537E+03  0.00000000000E+00 0. -1.
          1   -1    0    0  502    0 -0.00000000000E+00 -0.00000000000E+00 -0.30585893572E+03  0.30585893572E+03  0.00000000000E+00 0. -1.
         23    2    1    2    0    0 -0.27371913392E+02 -0.93133402556E+02 -0.28702258491E+02  0.13636934218E+03  0.91376832567E+02 0.  0.
         23    2    1    2    0    0 -0.78801308736E+01  0.49921066570E+02 -0.18206572302E+03  0.20687817303E+03  0.84240380030E+02 0.  0.
        -13    1    4    4    0    0 -0.34216233476E+02  0.59185707362E+02 -0.10905396075E+03  0.12871078022E+03  0.00000000000E+00 0. -1.
         13    1    4    4    0    0  0.26336102602E+02 -0.92646407916E+01 -0.73011762274E+02  0.78167392815E+02  0.00000000000E+00 0.  1.
        -13    1    3    3    0    0 -0.29067095738E+02 -0.22792024039E+01 -0.34674177923E+02  0.45303304878E+02  0.00000000000E+00 0.  1.
         13    1    3    3    0    0  0.16951823458E+01 -0.90854200152E+02  0.59719194314E+01  0.91066037303E+02  0.00000000000E+00 0. -1.
         21    1    1    2  503  501 -0.24912082072E+02  0.88517886767E+01  0.18079357125E+02  0.32028567716E+02  0.00000000000E+00 0. -1.
          1    1    1    2  501    0  0.60164126337E+02  0.34360547309E+02  0.32980814043E+02  0.76733978160E+02  0.00000000000E+00 0. -1.
<scales pt_clust_5="13000.00000" pt_clust_6="13000.00000" pt_clust_7="13000.00000" pt_clust_8="13000.00000" pt_clust_9="26.43797" pt_clust_10="13000.00000"></scales>
<clustering>
<clus scale="   26.438">  1  9  2 -1</clus>
<clus scale="   84.240">  5  6 -1 -1</clus>
<clus scale="   62.140">  5 10 -1 -1</clus>
<clus scale="   91.377">  7  8 -1 -1</clus>
<clus scale="  133.358">  2  7  1 -1</clus>
<clus scale="   26.438">  1  5  2 -1</clus>
</clustering>
</event>
<event>
10    2  0.4951045E-006  0.3263904E+03  0.7546771E-02  0.1081798E+00
         21   -1    0    0  503  502  0.00000000000E+00  0.00000000000E+00  0.86093085974E+02  0.86093085974E+02  0.00000000000E+00 0. -1.
          2   -1    0    0  502    0 -0.00000000000E+00 -0.00000000000E+00 -0.10927806393E+04  0.10927806393E+04  0.00000000000E+00 0. -1.
         23    2    1    2    0    0  0.21061417142E+03 -0.13391455408E+03 -0.44336781713E+03  0.51649477192E+03  0.88884144609E+02 0.  0.
         23    2    1    2    0    0  0.91353542305E+01  0.66637787273E+02 -0.19466525872E+03  0.22523886077E+03  0.91180765836E+02 0.  0.
        -11    1    3    3    0    0  0.18209551556E+03 -0.12240077519E+03 -0.43043620538E+03  0.48313150741E+03  0.00000000000E+00 0. -1.
         11    1    3    3    0    0  0.28518655859E+02 -0.11513778892E+02 -0.12931611747E+02  0.33363264510E+02  0.00000000000E+00 0.  1.
        -11    1    4    4    0    0 -0.25667258071E+02  0.13404381195E+02 -0.13486988169E+03  0.13794335997E+03  0.00000000000E+00 0.  1.
         11    1    4    4    0    0  0.34802612301E+02  0.53233406078E+02 -0.59795377024E+02  0.87295500795E+02  0.00000000000E+00 0. -1.
         21    1    1    2  503  501 -0.26674910310E+02 -0.43976619563E+00 -0.21877256611E+02  0.34501573749E+02  0.00000000000E+00 0. -1.
          2    1    1    2  501    0 -0.19307461534E+03  0.67716533001E+02 -0.34677722084E+03  0.40263851881E+03  0.00000000000E+00 0. -1.
<scales pt_clust_5="13000.00000" pt_clust_6="13000.00000" pt_clust_7="13000.00000" pt_clust_8="13000.00000" pt_clust_9="26.67854" pt_clust_10="13000.00000"></scales>
<clustering>
<clus scale="   26.679">  1  9  2 -1</clus>
<clus scale="   88.884">  5  6 -1 -1</clus>
<clus scale="   91.181">  7  8 -1 -1</clus>
<clus scale="  213.391">  7 10 -1 -1</clus>
<clus scale="  255.433">  2  5  1 -1</clus>
<clus scale="   26.679">  1  5  2 -1</clus>
</clustering>
</event>
<event>
10    2  0.4951045E-006  0.1589273E+03  0.7546771E-02  0.1209633E+00
         21   -1    0    0  501  502  0.00000000000E+00  0.00000000000E+00  0.94700191362E+03  0.94700191362E+03  0.00000000000E+00 0. -1.
          1   -1    0    0  503    0 -0.00000000000E+00 -0.00000000000E+00 -0.67617820317E+02  0.67617820317E+02  0.00000000000E+00 0. -1.
         23    2    1    2    0    0  0.60623645697E+02  0.20076356553E+01  0.11399179937E+02  0.10958258830E+03  0.90549132169E+02 0.  0.
         23    2    1    2    0    0  0.32890705009E+02 -0.17029469639E+02  0.21903866929E+03  0.24088192172E+03  0.93136245667E+02 0.  0.
        -11    1    3    3    0    0 -0.24168894884E+02  0.98433215693E+00  0.24009877312E+01  0.24307799814E+02  0.00000000000E+00 0.  1.
         11    1    3    3    0    0  0.84792540581E+02  0.10233034983E+01  0.89981922061E+01  0.85274788485E+02  0.00000000000E+00 0. -1.
        -13    1    4    4    0    0 -0.20778230500E+02 -0.34529502988E+02  0.12354074133E+03  0.12994743632E+03  0.00000000000E+00 0.  1.
         13    1    4    4    0    0  0.53668935509E+02  0.17500033349E+02  0.95497927959E+02  0.11093448540E+03  0.00000000000E+00 0. -1.
         21    1    1    2  503  502 -0.93861873698E+02 -0.26467653018E+02  0.39618322324E+03  0.40800947829E+03  0.00000000000E+00 0. -1.
          1    1    1    2  501    0  0.34752299246E+00  0.41489487002E+02  0.25276302084E+03  0.25614574563E+03  0.00000000000E+00 0. -1.
<scales pt_clust_5="13000.00000" pt_clust_6="13000.00000" pt_clust_7="13000.00000" pt_clust_8="13000.00000" pt_clust_9="97.52224" pt_clust_10="13000.00000"></scales>
<clustering>
<clus scale="   90.549">  5  6 -1 -1</clus>
<clus scale="   93.136">  7  8 -1 -1</clus>
<clus scale="   41.491">  7 10 -1 -1</clus>
<clus scale="   97.522">  1  9  2 -1</clus>
<clus scale="  103.540">  2  5  1 -1</clus>
<clus scale="   97.522">  1  5  2 -1</clus>
</clustering>
</event>
<event>
10    2  0.4951045E-006  0.1909256E+03  0.7546771E-02  0.1183171E+00
         -1   -1    0    0    0  501 -0.00000000000E+00  0.00000000000E+00  0.37456672296E+03  0.37456672296E+03  0.00000000000E+00 0.  1.
         21   -1    0    0  503  502  0.00000000000E+00 -0.00000000000E+00 -0.12409351244E+03  0.12409351244E+03  0.00000000000E+00 0.  1.
         23    2    1    2    0    0 -0.29612011263E+01 -0.56574953097E+02  0.11330956126E+03  0.15786605599E+03  0.94197350973E+02 0.  0.
         23    2    1    2    0    0  0.44578093154E+01 -0.50136979235E+02  0.11123672532E+03  0.15083509978E+03  0.88566525929E+02 0.  0.
        -11    1    3    3    0    0  0.22908299005E+02  0.18863226780E+02  0.37625133317E+02  0.47919329555E+02  0.00000000000E+00 0. -1.
         11    1    3    3    0    0 -0.25869500132E+02 -0.75438179878E+02  0.75684427943E+02  0.10994672643E+03  0.00000000000E+00 0.  1.
        -11    1    4    4    0    0 -0.71837142333E+01 -0.69244337325E+02  0.10761515876E+03  0.12816944408E+03  0.00000000000E+00 0.  1.
         11    1    4    4    0    0  0.11641523549E+02  0.19107358089E+02  0.36215665552E+01  0.22665655693E+02  0.00000000000E+00 0. -1.
         21    1    1    2  503  501 -0.19941049719E+02  0.21640338226E+02 -0.60509902912E+02  0.67285942461E+02  0.00000000000E+00 0.  1.
         -1    1    1    2    0  502  0.18444441530E+02  0.85071594106E+02  0.86436826862E+02  0.12267313718E+03  0.00000000000E+00 0.  1.
<scales pt_clust_5="13000.00000" pt_clust_6="13000.00000" pt_clust_7="13000.00000" pt_clust_8="13000.00000" pt_clust_9="29.42702" pt_clust_10="13000.00000"></scales>
<clustering>
<clus scale="   29.427">  2  9  1 -1</clus>
<clus scale="   88.567">  7  8 -1 -1</clus>
<clus scale="   92.426">  7 10 -1 -1</clus>
<clus scale="   94.197">  5  6 -1 -1</clus>
<clus scale="  106.484">  1  5  2 -1</clus>
<clus scale="   29.427">  2  5  1 -1</clus>
</clustering>
</event>
<event>
10    2  0.4951045E-006  0.1969588E+03  0.7546771E-02  0.1183412E+00
         21   -1    0    0  501  502  0.00000000000E+00  0.00000000000E+00  0.82687681218E+02  0.82687681218E+02  0.00000000000E+00 0.  1.
          2   -1    0    0  503    0 -0.00000000000E+00 -0.00000000000E+00 -0.65067298253E+03  0.65067298253E+03  0.00000000000E+00 0. -1.
         23    2    1    2    0    0 -0.38075908782E+02 -0.16717266996E+02 -0.11311190912E+03  0.15136409685E+03  0.91583535557E+02 0.  0.
         23    2    1    2    0    0  0.57747451163E+02  0.99242000568E+01 -0.47018427898E+03  0.48253209017E+03  0.91272690242E+02 0.  0.
        -13    1    4    4    0    0  0.30009406757E+02 -0.40800503026E+02 -0.21988728957E+03  0.22564499919E+03  0.00000000000E+00 0.  1.
         13    1    4    4    0    0  0.27738044406E+02  0.50724703083E+02 -0.25029698941E+03  0.25688709099E+03  0.00000000000E+00 0. -1.
        -13    1    3    3    0    0 -0.35561930525E+02  0.11951496827E+02 -0.30933625860E+01  0.37643831781E+02  0.00000000000E+00 0.  1.
         13    1    3    3    0    0 -0.25139782566E+01 -0.28668763824E+02 -0.11001854654E+03  0.11372026507E+03  0.00000000000E+00 0. -1.
         21    1    1    2  503  502  0.23971033511E+02  0.19056691808E+01  0.41767762426E+02  0.48195310982E+02  0.00000000000E+00 0.  1.
          2    1    1    2  501    0 -0.43642575892E+02  0.48873977588E+01 -0.26456875635E+02  0.51269165740E+02  0.00000000000E+00 0. -1.
<scales pt_clust_5="13000.00000" pt_clust_6="13000.00000" pt_clust_7="13000.00000" pt_clust_8="13000.00000" pt_clust_9="24.04666" pt_clust_10="13000.00000"></scales>
<clustering>
<clus scale="   24.047">  1  9  2 -1</clus>
<clus scale="   91.273">  5  6 -1 -1</clus>
<clus scale="   36.178">  5 10 -1 -1</clus>
<clus scale="   91.584">  7  8 -1 -1</clus>
<clus scale="   96.474">  2  7  1 -1</clus>
<clus scale="   24.047">  1  5  2 -1</clus>
</clustering>
</event>
<event>
10    2  0.4951045E-006  0.2169371E+03  0.7546771E-02  0.1171497E+00
         21   -1    0    0  501  502  0.00000000000E+00  0.00000000000E+00  0.23796869323E+03  0.23796869323E+03  0.00000000000E+00 0.  1.
         -2   -1    0    0    0  501 -0.00000000000E+00 -0.00000000000E+00 -0.32659348310E+03  0.32659348310E+03  0.00000000000E+00 0.  1.
         23    2    1    2    0    0 -0.34349665065E+02  0.51362999862E+02  0.83825227942E+02  0.13826526079E+03  0.90953593978E+02 0.  0.
         23    2    1    2    0    0 -0.41804361930E+02 -0.12764506625E+02 -0.26904181963E+03  0.28795692305E+03  0.92871693837E+02 0.  0.
        -11    1    4    4    0    0 -0.12935145295E+01 -0.41625358446E+02 -0.19043024338E+03  0.19493081142E+03  0.00000000000E+00 0.  1.
         11    1    4    4    0    0 -0.40510847401E+02  0.28860851821E+02 -0.78611576249E+02  0.93026111632E+02  0.00000000000E+00 0. -1.
        -13    1    3    3    0    0 -0.53950756727E+01  0.29049870460E+02  0.95440629574E+02  0.99909537026E+02  0.00000000000E+00 0.  1.
         13    1    3    3    0    0 -0.28954589393E+02  0.22313129402E+02 -0.11615401632E+02  0.38355723767E+02  0.00000000000E+00 0. -1.
         21    1    1    2  503  502  0.35954263790E+02 -0.36738086610E+02  0.79381019154E+02  0.94571360857E+02  0.00000000000E+00 0.  1.
         -2    1    1    2    0  503  0.40199763206E+02 -0.18604066273E+01  0.17210782663E+02  0.43768631627E+02  0.00000000000E+00 0.  1.
<scales pt_clust_5="13000.00000" pt_clust_6="13000.00000" pt_clust_7="13000.00000" pt_clust_8="13000.00000" pt_clust_9="51.40424" pt_clust_10="13000.00000"></scales>
<clustering>
<clus scale="   51.404">  1  9  2 -1</clus>
<clus scale="   90.954">  7  8 -1 -1</clus>
<clus scale="   92.872">  5  6 -1 -1</clus>
<clus scale="   48.359">  5 10 -1 -1</clus>
<clus scale="   94.487">  2  7  1 -1</clus>
<clus scale="   51.404">  1  5  2 -1</clus>
</clustering>
</event>
<event>
10    2  0.4951045E-006  0.3407950E+03  0.7546771E-02  0.1087656E+00
         -1   -1    0    0    0  501 -0.00000000000E+00  0.00000000000E+00  0.67191522828E+03  0.67191522828E+03  0.00000000000E+00 0.  1.
         21   -1    0    0  501  502  0.00000000000E+00 -0.00000000000E+00 -0.16217492448E+03  0.16217492448E+03  0.00000000000E+00 0.  1.
         23    2    1    2    0    0  0.18571050348E+03 -0.58455632788E+02  0.22814378371E+03  0.31391179477E+03  0.92658387341E+02 0.  0.
         23    2    1    2    0    0 -0.71447250008E+01 -0.10254948623E+02  0.30758017950E+03  0.32143566362E+03  0.92515447119E+02 0.  0.
        -13    1    3    3    0    0  0.38297906430E+02  0.25449328028E+02  0.47078554045E+02  0.65808724231E+02  0.00000000000E+00 0.  1.
         13    1    3    3    0    0  0.14741259705E+03 -0.83904960816E+02  0.18106522966E+03  0.24810307054E+03  0.00000000000E+00 0. -1.
        -13    1    4    4    0    0 -0.39697333232E+02  0.19616984882E+02  0.10258711077E+03  0.11173548970E+03  0.00000000000E+00 0.  1.
         13    1    4    4    0    0  0.32552608231E+02 -0.29871933505E+02  0.20499306873E+03  0.20970017392E+03  0.00000000000E+00 0. -1.
         21    1    1    2  503  502 -0.60059828790E+02  0.44224606794E+02 -0.21616104561E+02  0.77654715612E+02  0.00000000000E+00 0.  1.
         -1    1    1    2    0  503 -0.11850594969E+03  0.24485974617E+02 -0.43675548526E+01  0.12108797876E+03  0.00000000000E+00 0.  1.
<scales pt_clust_5="13000.00000" pt_clust_6="13000.00000" pt_clust_7="13000.00000" pt_clust_8="13000.00000" pt_clust_9="74.58551" pt_clust_10="13000.00000"></scales>
<clustering>
<clus scale="   74.586">  2  9  1 -1</clus>
<clus scale="   92.515">  7  8 -1 -1</clus>
<clus scale="   92.658">  5  6 -1 -1</clus>
<clus scale="  159.728">  7 10 -1 -1</clus>
<clus scale="  191.907">  1  5  2 -1</clus>
<clus scale="   74.586">  2  5  1 -1</clus>
</clustering>
</event>
<event>
10    2  0.4951045E-006  0.2473991E+03  0.7546771E-02  0.1153860E+00
         21   -1    0    0  501  502  0.00000000000E+00  0.00000000000E+00  0.22212830333E+03  0.22212830333E+03  0.00000000000E+00 0. -1.
          1   -1    0    0  503    0 -0.00000000000E+00 -0.00000000000E+00 -0.19533356130E+03  0.19533356130E+03  0.00000000000E+00 0. -1.
         23    2    1    2    0    0  0.25676551889E+02  0.31387276649E+02 -0.65450120189E+01  0.98924050254E+02  0.89992689058E+02 0.  0.
         23    2    1    2    0    0 -0.11962924488E+03  0.54892593242E+02  0.21025459221E+01  0.15964033417E+03  0.90312028949E+02 0.  0.
        -11    1    4    4    0    0 -0.57201394118E+02 -0.17411446632E+02  0.18774601797E+02  0.62670915388E+02  0.00000000000E+00 0.  1.
         11    1    4    4    0    0 -0.62427850759E+02  0.72304039874E+02 -0.16672055875E+02  0.96969418785E+02  0.00000000000E+00 0. -1.
        -13    1    3    3    0    0 -0.24799060124E+02  0.24781585611E+02  0.21177788108E+02  0.40958748486E+02  0.00000000000E+00 0. -1.
         13    1    3    3    0    0  0.50475612012E+02  0.66056910382E+01 -0.27722800127E+02  0.57965301768E+02  0.00000000000E+00 0.  1.
         21    1    1    2  503  502  0.12453586850E+02 -0.62820706169E+02 -0.96181548617E+01  0.64761422559E+02  0.00000000000E+00 0. -1.
          1    1    1    2  501    0  0.81499106139E+02 -0.23459163722E+02  0.40855362983E+02  0.94136057642E+02  0.00000000000E+00 0. -1.
<scales pt_clust_5="13000.00000" pt_clust_6="13000.00000" pt_clust_7="13000.00000" pt_clust_8="13000.00000" pt_clust_9="64.04324" pt_clust_10="13000.00000"></scales>
<clustering>
<clus scale="   64.043">  1  9  2 -1</clus>
<clus scale="   89.993">  7  8 -1 -1</clus>
<clus scale="   90.312">  5  6 -1 -1</clus>
<clus scale="   95.864">  2  7  1 -1</clus>
<clus scale="  104.238">  5 10 -1 -1</clus>
<clus scale="   64.043">  1  5  2 -1</clus>
</clustering>
</event>
<event>
10    2  0.4951045E-006  0.1656954E+03  0.7546771E-02  0.1208140E+00
          1   -1    0    0  503    0 -0.00000000000E+00  0.00000000000E+00  0.26589034331E+03  0.26589034331E+03  0.00000000000E+00 0. -1.
         21   -1    0    0  501  502  0.00000000000E+00 -0.00000000000E+00 -0.14302668582E+03  0.14302668582E+03  0.00000000000E+00 0. -1.
         23    2    1    2    0    0 -0.62543668351E+01  0.19763337397E+02  0.10098064302E+03  0.13910957722E+03  0.93405982675E+02 0.  0.
         23    2    1    2    0    0 -0.20342975352E+01  0.36262608659E+02  0.12131914443E+03  0.15222490045E+03  0.84468753750E+02 0.  0.
        -11    1    4    4    0    0 -0.29714054502E+02 -0.79893236888E+01  0.15998992261E+02  0.34680283755E+02  0.00000000000E+00 0.  1.
         11    1    4    4    0    0  0.27679756967E+02  0.44251932348E+02  0.10532015217E+03  0.11754461670E+03  0.00000000000E+00 0. -1.
        -11    1    3    3    0    0  0.35692800228E+02 -0.16477104414E+02  0.32519496373E+02  0.51019492376E+02  0.00000000000E+00 0.  1.
         11    1    3    3    0    0 -0.41947167063E+02  0.36240441811E+02  0.68461146646E+02  0.88090084841E+02  0.00000000000E+00 0. -1.
         21    1    1    2  503  502  0.21048316131E+01 -0.27584188377E+02 -0.73732514847E+02  0.78751517511E+02  0.00000000000E+00 0. -1.
          1    1    1    2  501    0  0.61838327571E+01 -0.28441757679E+02 -0.25703615116E+02  0.38831033948E+02  0.00000000000E+00 0. -1.
<scales pt_clust_5="13000.00000" pt_clust_6="13000.00000" pt_clust_7="13000.00000" pt_clust_8="13000.00000" pt_clust_9="27.66438" pt_clust_10="13000.00000"></scales>
<clustering>
<clus scale="   27.664">  2  9  1 -1</clus>
<clus scale="   84.469">  5  6 -1 -1</clus>
<clus scale="   42.385">  5 10 -1 -1</clus>
<clus scale="   93.406">  7  8 -1 -1</clus>
<clus scale="   94.329">  1  7  2 -1</clus>
<clus scale="   27.664">  2  5  1 -1</clus>
</clustering>
</event>
<event>
10    2  0.4951045E-006  0.4630683E+03  0.7546771E-02  0.1037443E+00
         21   -1    0    0  501  502  0.00000000000E+00  0.00000000000E+00  0.32770465660E+03  0.32770465660E+03  0.00000000000E+00 0. -1.
          2   -1    0    0  503    0 -0.00000000000E+00 -0.00000000000E+00 -0.54222531007E+03  0.54222531007E+03  0.00000000000E+00 0. -1.
         23    2    1    2    0    0 -0.29028501275E+03  0.10205507172E+03 -0.97837722234E+02  0.33529353467E+03  0.90382012653E+02 0.  0.
         23    2    1    2    0    0  0.12064257481E+03  0.89275641022E+02 -0.14422359536E+03  0.22709311843E+03  0.90807863346E+02 0.  0.
        -11    1    3    3    0    0 -0.13362725441E+03  0.57713823194E-01 -0.45644150627E+02  0.14120777223E+03  0.00000000000E+00 0.  1.
         11    1    3    3    0    0 -0.15665775834E+03  0.10199735790E+03 -0.52193571606E+02  0.19408576244E+03  0.00000000000E+00 0. -1.
        -11    1    4    4    0    0  0.11012441258E+03  0.37913137687E+02 -0.12601139748E+03  0.17159156317E+03  0.00000000000E+00 0.  1.
         11    1    4    4    0    0  0.10518162230E+02  0.51362503335E+02 -0.18212197880E+02  0.55501555268E+02  0.00000000000E+00 0. -1.
         21    1    1    2  503  502  0.37049125539E+02  0.22481904322E+02  0.35210645602E+02  0.55837830266E+02  0.00000000000E+00 0. -1.
          2    1    1    2  501    0  0.13259331240E+03 -0.21381261706E+03 -0.76699814793E+01  0.25170548330E+03  0.00000000000E+00 0. -1.
<scales pt_clust_5="13000.00000" pt_clust_6="13000.00000" pt_clust_7="13000.00000" pt_clust_8="13000.00000" pt_clust_9="43.33675" pt_clust_10="13000.00000"></scales>
<clustering>
<clus scale="   43.337">  1  9  2 -1</clus>
<clus scale="   90.382">  5  6 -1 -1</clus>
<clus scale="   90.808">  7  8 -1 -1</clus>
<clus scale="  252.466">  7 10 -1 -1</clus>
<clus scale="  309.940">  2  5  1 -1</clus>
<clus scale="   43.337">  1  5  2 -1</clus>
</clustering>
</event>
<event>
10    2  0.4951045E-006  0.1611281E+03  0.7546771E-02  0.1210827E+00
         21   -1    0    0  501  502  0.00000000000E+00  0.00000000000E+00  0.34316776267E+03  0.34316776267E+03  0.00000000000E+00 0.  1.
          1   -1    0    0  503    0 -0.00000000000E+00 -0.00000000000E+00 -0.21227535012E+03  0.21227535012E+03  0.00000000000E+00 0. -1.
         23    2    1    2    0    0 -0.16839192828E+02 -0.23210180995E+02 -0.13389293638E+03  0.16486224853E+03  0.91814877126E+02 0.  0.
         23    2    1    2    0    0  0.34628867325E+02  0.70719017456E+02  0.13732224798E+02  0.12264427042E+03  0.93019918229E+02 0.  0.
        -11    1    4    4    0    0  0.13404931563E+02  0.29516196473E+02 -0.40128789426E+02  0.51586992404E+02  0.00000000000E+00 0. -1.
         11    1    4    4    0    0  0.21223935761E+02  0.41202820982E+02  0.53861014224E+02  0.71057278018E+02  0.00000000000E+00 0.  1.
        -13    1    3    3    0    0 -0.18627925632E+02  0.13346558328E+02 -0.12515175515E+03  0.12723243317E+03  0.00000000000E+00 0. -1.
         13    1    3    3    0    0  0.17887328036E+01 -0.36556739324E+02 -0.87411812291E+01  0.37629815364E+02  0.00000000000E+00 0.  1.
         21    1    1    2  503  502  0.13463114234E+02 -0.29909952808E+02  0.21350753644E+03  0.21601233493E+03  0.00000000000E+00 0.  1.
          1    1    1    2  501    0 -0.31252788730E+02 -0.17598883652E+02  0.37545587688E+02  0.51924258916E+02  0.00000000000E+00 0. -1.
<scales pt_clust_5="13000.00000" pt_clust_6="13000.00000" pt_clust_7="13000.00000" pt_clust_8="13000.00000" pt_clust_9="32.80032" pt_clust_10="13000.00000"></scales>
<clustering>
<clus scale="   32.800">  1  9  2 -1</clus>
<clus scale="   91.815">  7  8 -1 -1</clus>
<clus scale="   93.020">  5  6 -1 -1</clus>
<clus scale="   38.609">  5 10 -1 -1</clus>
<clus scale="   96.854">  2  7  1 -1</clus>
<clus scale="   32.800">  1  5  2 -1</clus>
</clustering>
</event>
<event>
10    2  0.4951045E-006  0.3648980E+03  0.7546771E-02  0.1107208E+00
         21   -1    0    0  501  502  0.00000000000E+00  0.00000000000E+00  0.14010915178E+03  0.14010915178E+03  0.00000000000E+00 0.  1.
          2   -1    0    0  503    0 -0.00000000000E+00 -0.00000000000E+00 -0.58254669571E+03  0.58254669571E+03  0.00000000000E+00 0. -1.
         23    2    1    2    0    0 -0.29485894638E+02  0.30379872061E+01 -0.77769067556E+02  0.12071819321E+03  0.87442592339E+02 0.  0.
         23    2    1    2    0    0  0.40460802311E+02  0.14108825228E+03 -0.87384129378E+02  0.19276136767E+03  0.89319579842E+02 0.  0.
        -11    1    3    3    0    0 -0.52788643044E+02 -0.54554018175E+01 -0.79797103394E+02  0.95833083814E+02  0.00000000000E+00 0. -1.
         11    1    3    3    0    0  0.23302748406E+02  0.84933890236E+01  0.20280358372E+01  0.24885109397E+02  0.00000000000E+00 0.  1.
        -13    1    4    4    0    0  0.40538991955E+02  0.10365021123E+03 -0.16384028706E+02  0.11249538903E+03  0.00000000000E+00 0.  1.
         13    1    4    4    0    0 -0.78189643403E-01  0.37438041051E+02 -0.71000100672E+02  0.80265978638E+02  0.00000000000E+00 0. -1.
         21    1    1    2  503  502 -0.18488979880E+02  0.86621324051E+01  0.46658887606E+02  0.50930606784E+02  0.00000000000E+00 0.  1.
          2    1    1    2  501    0  0.75140722065E+01 -0.15278837189E+03 -0.32394323461E+03  0.35824567983E+03  0.00000000000E+00 0. -1.
<scales pt_clust_5="13000.00000" pt_clust_6="13000.00000" pt_clust_7="13000.00000" pt_clust_8="13000.00000" pt_clust_9="20.41751" pt_clust_10="13000.00000"></scales>
<clustering>
<clus scale="   20.418">  1  9  2 -1</clus>
<clus scale="   87.443">  5  6 -1 -1</clus>
<clus scale="   89.320">  7  8 -1 -1</clus>
<clus scale="   93.897">  2  5  1 -1</clus>
<clus scale="  148.912">  7 10 -1 -1</clus>
<clus scale="   20.418">  1  5  2 -1</clus>
</clustering>
</event>
<event>
10    2  0.4951045E-006  0.2777183E+03  0.7546771E-02  0.1133167E+00
          2   -1    0    0  502    0 -0.00000000000E+00  0.00000000000E+00  0.61830197184E+03  0.61830197184E+03  0.00000000000E+00 0. -1.
         21   -1    0    0  503  502  0.00000000000E+00 -0.00000000000E+00 -0.12281002718E+03  0.12281002718E+03  0.00000000000E+00 0. -1.
         23    2    1    2    0    0  0.65094276443E+02 -0.23522983450E+02  0.14474184497E+03  0.18418036273E+03  0.90452245709E+02 0.  0.
         23    2    1    2    0    0 -0.33948226392E+02  0.16056926433E+03  0.33477591730E+03  0.38366350216E+03  0.90486448502E+02 0.  0.
        -11    1    3    3    0    0  0.76229852417E+02  0.11351128812E+02  0.10333627760E+03  0.12891169378E+03  0.00000000000E+00 0. -1.
         11    1    3    3    0    0 -0.11135575974E+02 -0.34874112261E+02  0.41405567370E+02  0.55268668950E+02  0.00000000000E+00 0.  1.
        -13    1    4    4    0    0 -0.80287402652E+01  0.16000355520E+03  0.30211625051E+03  0.34196465778E+03  0.00000000000E+00 0. -1.
         13    1    4    4    0    0 -0.25919486127E+02  0.56570912855E+00  0.32659666791E+02  0.41698844382E+02  0.00000000000E+00 0.  1.
         21    1    1    2  503  501 -0.54516179296E+02 -0.64186947237E+02 -0.23139224582E+02  0.87334997080E+02  0.00000000000E+00 0. -1.
          2    1    1    2  501    0  0.23370129245E+02 -0.72859333639E+02  0.39113406961E+02  0.85933137051E+02  0.00000000000E+00 0. -1.
<scales pt_clust_5="13000.00000" pt_clust_6="13000.00000" pt_clust_7="13000.00000" pt_clust_8="13000.00000" pt_clust_9="84.21388" pt_clust_10="13000.00000"></scales>
<clustering>
<clus scale="   84.214">  2  9  1 -1</clus>
<clus scale="   90.452">  5  6 -1 -1</clus>
<clus scale="   90.486">  7  8 -1 -1</clus>
<clus scale="   95.202">  7 10 -1 -1</clus>
<clus scale="  111.293">  1  5  2 -1</clus>
<clus scale="   84.214">  2  5  1 -1</clus>
</clustering>
</event>
<event>
10    2  0.4951045E-006  0.3963566E+03  0.7546771E-02  0.1088476E+00
          1   -1    0    0  503    0 -0.00000000000E+00  0.00000000000E+00  0.30859173589E+03  0.30859173589E+03  0.00000000000E+00 0. -1.
         21   -1    0    0  501  502  0.00000000000E+00 -0.00000000000E+00 -0.65014429029E+03  0.65014429029E+03  0.00000000000E+00 0. -1.
         23    2    1    2    0    0  0.32302762629E+02  0.69744522668E+02  0.81802373784E+02  0.14470216406E+03  0.91319882887E+02 0.  0.
         23    2    1    2    0    0  0.63744167884E+02 -0.70667515440E+02  0.87119316793E+01  0.13256187099E+03  0.91866942958E+02 0.  0.
        -11    1    3    3    0    0  0.58087370523E+02  0.66945278678E+02  0.78792418906E+02  0.11859198214E+03  0.00000000000E+00 0.  1.
         11    1    3    3    0    0 -0.25784607895E+02  0.27992439905E+01  0.30099548781E+01  0.26110181914E+02  0.00000000000E+00 0. -1.
        -13    1    4    4    0    0  0.85168068534E+02 -0.60801750550E+02  0.19796849508E+02  0.10650055408E+03  0.00000000000E+00 0.  1.
         13    1    4    4    0    0 -0.21423900650E+02 -0.98657648893E+01 -0.11084917829E+02  0.26061316912E+02  0.00000000000E+00 0. -1.
         21    1    1    2  503  502 -0.18932505371E+03  0.20574475279E+03 -0.13982483157E+03  0.31261136062E+03  0.00000000000E+00 0. -1.
          1    1    1    2  501    0  0.93278123200E+02 -0.20482176002E+03 -0.29224202829E+03  0.36886063051E+03  0.00000000000E+00 0. -1.
<scales pt_clust_5="13000.00000" pt_clust_6="13000.00000" pt_clust_7="13000.00000" pt_clust_8="13000.00000" pt_clust_9="294.30216" pt_clust_10="13000.00000"></scales>
<clustering>
<clus scale="   91.320">  5  6 -1 -1</clus>
<clus scale="   91.867">  7  8 -1 -1</clus>
<clus scale="  119.361">  1  5  2 -1</clus>
<clus scale="  215.543">  7 10 -1 -1</clus>
<clus scale="  294.302">  2  9  1 -1</clus>
<clus scale="  294.302">  2  5  1 -1</clus>
</clustering>
</event>
<event>
10    2  0.4951045E-006  0.4420435E+03  0.7546771E-02  0.1044225E+00
          2   -1    0    0  503    0 -0.00000000000E+00  0.00000000000E+00  0.65512450995E+03  0.65512450995E+03  0.00000000000E+00 0. -1.
         21   -1    0    0  501  502  0.00000000000E+00 -0.00000000000E+00 -0.53200945390E+03  0.53200945390E+03  0.00000000000E+00 0. -1.
         23    2    1    2    0    0 -0.13368449829E+03 -0.24919641452E+03  0.47211522344E+03  0.55739587307E+03  0.88470204162E+02 0.  0.
         23    2    1    2    0    0  0.13434393035E+03 -0.28879678289E+02 -0.28519357048E+02  0.16725754284E+03  0.90991232944E+02 0.  0.
        -11    1    3    3    0    0 -0.40415466663E+01 -0.81156898294E+02  0.16705779993E+03  0.18577159298E+03  0.00000000000E+00 0.  1.
         11    1    3    3    0    0 -0.12964295162E+03 -0.16803951622E+03  0.30505742351E+03  0.37162428009E+03  0.00000000000E+00 0. -1.
        -13    1    4    4    0    0  0.11082459316E+03  0.17345480650E+02 -0.11939376610E+02  0.11280737947E+03  0.00000000000E+00 0. -1.
         13    1    4    4    0    0  0.23519337186E+02 -0.46225158939E+02 -0.16579980437E+02  0.54450163378E+02  0.00000000000E+00 0.  1.
         21    1    1    2  503  502  0.18021215765E+02  0.28377775817E+02 -0.16355583987E+03  0.16697477395E+03  0.00000000000E+00 0. -1.
          2    1    1    2  501    0 -0.18680647824E+02  0.24969831699E+03 -0.15692497046E+03  0.29550577400E+03  0.00000000000E+00 0. -1.
<scales pt_clust_5="13000.00000" pt_clust_6="13000.00000" pt_clust_7="13000.00000" pt_clust_8="13000.00000" pt_clust_9="33.61640" pt_clust_10="13000.00000"></scales>
<clustering>
<clus scale="   33.616">  2  9  1 -1</clus>
<clus scale="   88.470">  5  6 -1 -1</clus>
<clus scale="   90.991">  7  8 -1 -1</clus>
<clus scale="  267.310">  7 10 -1 -1</clus>
<clus scale="  292.589">  1  5  2 -1</clus>
<clus scale="   33.616">  2  5  1 -1</clus>
</clustering>
</event>
<event>
10    2  0.4951045E-006  0.3956234E+03  0.7546771E-02  0.1048116E+00
         21   -1    0    0  501  502  0.00000000000E+00  0.00000000000E+00  0.18077027016E+03  0.18077027016E+03  0.00000000000E+00 0. -1.
          1   -1    0    0  503    0 -0.00000000000E+00 -0.00000000000E+00 -0.92511164345E+03  0.92511164345E+03  0.00000000000E+00 0. -1.
         23    2    1    2    0    0  0.11619381924E+02 -0.33578791962E+03 -0.35125058390E+03  0.49422235006E+03  0.89388039520E+02 0.  0.
         23    2    1    2    0    0 -0.50737500657E+02  0.13255142244E+03 -0.13745883942E+03  0.21754130719E+03  0.91022602872E+02 0.  0.
        -11    1    4    4    0    0  0.16566075347E+02  0.51882144991E+02 -0.82822469226E+02  0.99124937478E+02  0.00000000000E+00 0. -1.
         11    1    4    4    0    0 -0.67303576004E+02  0.80669277445E+02 -0.54636370197E+02  0.11841636971E+03  0.00000000000E+00 0.  1.
        -13    1    3    3    0    0  0.50128859920E+02 -0.18789967955E+03 -0.18510286315E+03  0.26848139995E+03  0.00000000000E+00 0.  1.
         13    1    3    3    0    0 -0.38509477996E+02 -0.14788824006E+03 -0.16614772075E+03  0.22574095011E+03  0.00000000000E+00 0. -1.
         21    1    1    2  503  502  0.40407943385E+01 -0.40125222450E+02 -0.12742538241E+01  0.40348298829E+02  0.00000000000E+00 0.  1.
          1    1    1    2  501    0  0.35077324395E+02  0.24336171963E+03 -0.25435769614E+03  0.35376995753E+03  0.00000000000E+00 0. -1.
<scales pt_clust_5="13000.00000" pt_clust_6="13000.00000" pt_clust_7="13000.00000" pt_clust_8="13000.00000" pt_clust_9="40.32817" pt_clust_10="13000.00000"></scales>
<clustering>
<clus scale="   40.328">  1  9  2 -1</clus>
<clus scale="   89.388">  7  8 -1 -1</clus>
<clus scale="   91.023">  5  6 -1 -1</clus>
<clus scale="  233.830">  5 10 -1 -1</clus>
<clus scale="  364.949">  2  7  1 -1</clus>
<clus scale="   40.328">  1  5  2 -1</clus>
</clustering>
</event>
<event>
10    2  0.4951045E-006  0.1433514E+03  0.7546771E-02  0.1227546E+00
         21   -1    0    0  503  502  0.00000000000E+00  0.00000000000E+00  0.20210667926E+03  0.20210667926E+03  0.00000000000E+00 0. -1.
         -3   -1    0    0    0  501 -0.00000000000E+00 -0.00000000000E+00 -0.34071729493E+03  0.34071729493E+03  0.00000000000E+00 0.  1.
         23    2    1    2    0    0  0.30322445155E+02  0.55535763561E+01 -0.14949316756E+03  0.17979516014E+03  0.95014733454E+02 0.  0.
         23    2    1    2    0    0 -0.10177842077E+02 -0.11817872174E+02 -0.13969860291E+03  0.16843454689E+03  0.92796801457E+02 0.  0.
        -13    1    4    4    0    0  0.27957373315E+02 -0.49330504481E+01 -0.12300761249E+03  0.12624112816E+03  0.00000000000E+00 0.  1.
         13    1    4    4    0    0 -0.38135215392E+02 -0.68848217257E+01 -0.16690990421E+02  0.42193418733E+02  0.00000000000E+00 0. -1.
        -13    1    3    3    0    0  0.61038695545E+02  0.18240267701E+02 -0.76217632076E+02  0.99335578515E+02  0.00000000000E+00 0.  1.
         13    1    3    3    0    0 -0.30716250390E+02 -0.12686691345E+02 -0.73275535485E+02  0.80459581629E+02  0.00000000000E+00 0. -1.
         21    1    1    2  503  501 -0.35966479772E+02 -0.24054324660E+02  0.15424582116E+03  0.16019978636E+03  0.00000000000E+00 0. -1.
         -3    1    1    2    0  502  0.15821876694E+02  0.30318620478E+02 -0.36646663679E+01  0.34394480798E+02  0.00000000000E+00 0.  1.
<scales pt_clust_5="13000.00000" pt_clust_6="13000.00000" pt_clust_7="13000.00000" pt_clust_8="13000.00000" pt_clust_9="43.26891" pt_clust_10="13000.00000"></scales>
<clustering>
<clus scale="   43.269">  1  9  2 -1</clus>
<clus scale="   92.797">  5  6 -1 -1</clus>
<clus scale="   22.361">  5 10 -1 -1</clus>
<clus scale="   95.015">  7  8 -1 -1</clus>
<clus scale="   96.773">  2  7  1 -1</clus>
<clus scale="   43.269">  1  5  2 -1</clus>
</clustering>
</event>
<event>
10    2  0.4951045E-006  0.2691151E+03  0.7546771E-02  0.1132206E+00
         21   -1    0    0  501  502  0.00000000000E+00  0.00000000000E+00  0.29551677830E+03  0.29551677830E+03  0.00000000000E+00 0. -1.
          2   -1    0    0  503    0 -0.00000000000E+00 -0.00000000000E+00 -0.48089914689E+03  0.48089914689E+03  0.00000000000E+00 0. -1.
         23    2    1    2    0    0 -0.53699571934E+02 -0.68606263890E+02 -0.31665151643E+03  0.34015723600E+03  0.88590625202E+02 0.  0.
         23    2    1    2    0    0  0.97309558095E+02 -0.32172021822E+02 -0.49132419124E+02  0.14563448255E+03  0.91056130023E+02 0.  0.
        -11    1    3    3    0    0 -0.80553661920E+01 -0.75033474270E+02 -0.22916276477E+03  0.24126848932E+03  0.00000000000E+00 0.  1.
         11    1    3    3    0    0 -0.45644205742E+02  0.64272103799E+01 -0.87488751667E+02  0.98888746677E+02  0.00000000000E+00 0. -1.
        -13    1    4    4    0    0  0.10452921573E+03 -0.12947489625E+02 -0.15831941512E+02  0.10651124261E+03  0.00000000000E+00 0. -1.
         13    1    4    4    0    0 -0.72196576399E+01 -0.19224532197E+02 -0.33300477612E+02  0.39123239946E+02  0.00000000000E+00 0.  1.
         21    1    1    2  503  502  0.69931234009E-01 -0.20057500291E+02  0.15912758984E+03  0.16038671409E+03  0.00000000000E+00 0. -1.
          2    1    1    2  501    0 -0.43679917395E+02  0.12083578600E+03  0.21273977124E+02  0.13023749255E+03  0.00000000000E+00 0. -1.
<scales pt_clust_5="13000.00000" pt_clust_6="13000.00000" pt_clust_7="13000.00000" pt_clust_8="13000.00000" pt_clust_9="20.05762" pt_clust_10="13000.00000"></scales>
<clustering>
<clus scale="   20.058">  1  9  2 -1</clus>
<clus scale="   88.591">  5  6 -1 -1</clus>
<clus scale="   91.056">  7  8 -1 -1</clus>
<clus scale="  118.009">  7 10 -1 -1</clus>
<clus scale="  125.217">  2  5  1 -1</clus>
<clus scale="   20.058">  1  5  2 -1</clus>
</clustering>
</event>
<event>
10    2  0.4951045E-006  0.4397037E+03  0.7546771E-02  0.1070361E+00
         -1   -1    0    0    0  501 -0.00000000000E+00  0.00000000000E+00  0.12412901479E+04  0.12412901479E+04  0.00000000000E+00 0.  1.
         21   -1    0    0  503  502  0.00000000000E+00 -0.00000000000E+00 -0.26622879236E+03  0.26622879236E+03  0.00000000000E+00 0.  1.
         23    2    1    2    0    0  0.99024631466E+02  0.68980282919E+02  0.55081150334E+03  0.57061549237E+03  0.87433236517E+02 0.  0.
         23    2    1    2    0    0 -0.18637498444E+03  0.11633689818E+03  0.44356025211E+03  0.50292097603E+03  0.88960115656E+02 0.  0.
        -11    1    3    3    0    0  0.22003654780E+02 -0.62801620971E+01  0.25003632659E+02  0.33893700090E+02  0.00000000000E+00 0. -1.
         11    1    3    3    0    0  0.77020976686E+02  0.75260445016E+02  0.52580787069E+03  0.53672179228E+03  0.00000000000E+00 0.  1.
        -13    1    4    4    0    0 -0.38239777415E+02  0.16041929957E+02  0.17771299884E+03  0.18248707913E+03  0.00000000000E+00 0.  1.
         13    1    4    4    0    0 -0.14813520703E+03  0.10029496822E+03  0.26584725327E+03  0.32043389690E+03  0.00000000000E+00 0. -1.
         21    1    1    2  503  501 -0.37207862918E+02 -0.60336118811E+02 -0.18116629249E+03  0.19454073566E+03  0.00000000000E+00 0.  1.
         -1    1    1    2    0  502  0.12455821589E+03 -0.12498106229E+03  0.16185589259E+03  0.23944173621E+03  0.00000000000E+00 0.  1.
<scales pt_clust_5="13000.00000" pt_clust_6="13000.00000" pt_clust_7="13000.00000" pt_clust_8="13000.00000" pt_clust_9="70.88633" pt_clust_10="13000.00000"></scales>
<clustering>
<clus scale="   70.886">  2  9  1 -1</clus>
<clus scale="   87.433">  5  6 -1 -1</clus>
<clus scale="   88.960">  7  8 -1 -1</clus>
<clus scale="  142.500">  1  5  2 -1</clus>
<clus scale="  192.241">  7 10 -1 -1</clus>
<clus scale="   70.886">  2  5  1 -1</clus>
</clustering>
</event>
<event>
10    2  0.4951045E-006  0.2751680E+03  0.7546771E-02  0.1138719E+00
         21   -1    0    0  501  502  0.00000000000E+00  0.00000000000E+00  0.39603112746E+03  0.39603112746E+03  0.00000000000E+00 0.  1.
         -2   -1    0    0    0  501 -0.00000000000E+00 -0.00000000000E+00 -0.37401411875E+03  0.37401411875E+03  0.00000000000E+00 0.  1.
         23    2    1    2    0    0  0.37812015551E+02  0.73552434762E+01 -0.16814204875E+03  0.19562031628E+03  0.92258936999E+02 0.  0.
         23    2    1    2    0    0  0.45223442006E+01 -0.61827057008E+02 -0.13335462143E+01  0.10100060402E+03  0.79726451642E+02 0.  0.
        -11    1    3    3    0    0  0.52490525730E+02 -0.26711092884E+02 -0.74982619191E+02  0.95347422383E+02  0.00000000000E+00 0.  1.
         11    1    3    3    0    0 -0.14678510179E+02  0.34066336360E+02 -0.93159429562E+02  0.10027289390E+03  0.00000000000E+00 0. -1.
        -11    1    4    4    0    0  0.16915459798E+02 -0.25334205562E+02  0.36126293969E+02  0.47255305179E+02  0.00000000000E+00 0. -1.
         11    1    4    4    0    0 -0.12393115597E+02 -0.36492851446E+02 -0.37459840183E+02  0.53745298841E+02  0.00000000000E+00 0.  1.
         21    1    1    2  503  502  0.14039032326E+03 -0.36858815734E+01  0.23778343396E+03  0.27615935627E+03  0.00000000000E+00 0.  1.
         -2    1    1    2    0  503 -0.18272468301E+03  0.58157695106E+02 -0.46290830288E+02  0.19726496965E+03  0.00000000000E+00 0.  1.
<scales pt_clust_5="13000.00000" pt_clust_6="13000.00000" pt_clust_7="13000.00000" pt_clust_8="13000.00000" pt_clust_9="144.19675" pt_clust_10="13000.00000"></scales>
<clustering>
<clus scale="   79.726">  7  8 -1 -1</clus>
<clus scale="   92.259">  5  6 -1 -1</clus>
<clus scale="   99.978">  2  5  1 -1</clus>
<clus scale="  144.197">  1  9  2 -1</clus>
<clus scale="  102.438">  7 10 -1 -1</clus>
<clus scale="  144.197">  1  5  2 -1</clus>
</clustering>
</event>
<event>
10    2  0.4951045E-006  0.5757822E+03  0.7546771E-02  0.1011084E+00
         21   -1    0    0  503  502  0.00000000000E+00  0.00000000000E+00  0.13954318114E+04  0.13954318114E+04  0.00000000000E+00 0. -1.
          1   -1    0    0  502    0 -0.00000000000E+00 -0.00000000000E+00 -0.30578862527E+03  0.30578862527E+03  0.00000000000E+00 0. -1.
         23    2    1    2    0    0  0.24491007498E+03 -0.19139318441E+03  0.71920643778E+03  0.78878420615E+03  0.91160999700E+02 0.  0.
         23    2    1    2    0    0 -0.20371665604E+03 -0.86869271261E+02 -0.51940353599E+02  0.24217811737E+03  0.83100505204E+02 0.  0.
        -11    1    3    3    0    0  0.27736019922E+02 -0.25829978093E+02  0.18479289658E+03  0.18863957484E+03  0.00000000000E+00 0.  1.
         11    1    3    3    0    0  0.21717405506E+03 -0.16556320631E+03  0.53441354121E+03  0.60014463132E+03  0.00000000000E+00 0. -1.
        -13    1    4    4    0    0 -0.30964424263E+02 -0.51453559955E+02 -0.16906299782E+02  0.62386596111E+02  0.00000000000E+00 0.  1.
         13    1    4    4    0    0 -0.17275223178E+03 -0.35415711307E+02 -0.35034053817E+02  0.17979152126E+03  0.00000000000E+00 0. -1.
         21    1    1    2  503  501  0.24309745957E+02 -0.44333544315E+02  0.32224359125E+03  0.32618608033E+03  0.00000000000E+00 0. -1.
          1    1    1    2  501    0 -0.65503164895E+02  0.32259599998E+03  0.10013351074E+03  0.34407203285E+03  0.00000000000E+00 0. -1.
<scales pt_clust_5="13000.00000" pt_clust_6="13000.00000" pt_clust_7="13000.00000" pt_clust_8="13000.00000" pt_clust_9="50.56112" pt_clust_10="13000.00000"></scales>
<clustering>
<clus scale="   50.561">  1  9  2 -1</clus>
<clus scale="   83.101">  7  8 -1 -1</clus>
<clus scale="   91.161">  5  6 -1 -1</clus>
<clus scale="  319.183">  7 10 -1 -1</clus>
<clus scale="  355.690">  2  5  1 -1</clus>
<clus scale="   50.561">  1  5  2 -1</clus>
</clustering>
</event>
<event>
10    2  0.4951045E-006  0.3356761E+03  0.7546771E-02  0.1102723E+00
         -2   -1    0    0    0  501 -0.00000000000E+00  0.00000000000E+00  0.61595911873E+03  0.61595911873E+03  0.00000000000E+00 0.  1.
         21   -1    0    0  503  502  0.00000000000E+00 -0.00000000000E+00 -0.23918967132E+03  0.23918967132E+03  0.00000000000E+00 0.  1.
         23    2    1    2    0    0  0.68265582929E+02 -0.25695612042E+02  0.27070914636E+02  0.11961093953E+03  0.90848710202E+02 0.  0.
         23    2    1    2    0    0  0.15475607518E+02  0.64112025290E+02  0.45816261597E+03  0.46691419698E+03  0.61204889139E+02 0.  0.
        -11    1    3    3    0    0  0.31086718697E+02 -0.56012703936E+02  0.31588657152E+02  0.71425838058E+02  0.00000000000E+00 0. -1.
         11    1    3    3    0    0  0.37178864232E+02  0.30317091894E+02 -0.45177425159E+01  0.48185101472E+02  0.00000000000E+00 0.  1.
        -11    1    4    4    0    0  0.34420686204E+02  0.15908872163E+02  0.21156580386E+03  0.21493711922E+03  0.00000000000E+00 0.  1.
         11    1    4    4    0    0 -0.18945078686E+02  0.48203153127E+02  0.24659681211E+03  0.25197707776E+03  0.00000000000E+00 0. -1.
         21    1    1    2  503  501  0.34260600241E+02 -0.66604041869E+02 -0.12546049175E+03  0.14611715201E+03  0.00000000000E+00 0.  1.
         -2    1    1    2    0  502 -0.11800179069E+03  0.28187628621E+02  0.16996408545E+02  0.12250650153E+03  0.00000000000E+00 0.  1.
<scales pt_clust_5="13000.00000" pt_clust_6="13000.00000" pt_clust_7="13000.00000" pt_clust_8="13000.00000" pt_clust_9="74.89918" pt_clust_10="13000.00000"></scales>
<clustering>
<clus scale="   61.205">  7  8 -1 -1</clus>
<clus scale="   74.899">  2  9  1 -1</clus>
<clus scale="   90.849">  5  6 -1 -1</clus>
<clus scale="  100.689">  7 10 -1 -1</clus>
<clus scale="  135.359">  1  5  2 -1</clus>
<clus scale="   74.899">  2  5  1 -1</clus>
</clustering>
</event>
<event>
10    2  0.4951045E-006  0.2677280E+03  0.7546771E-02  0.1131819E+00
         21   -1    0    0  503  502  0.00000000000E+00  0.00000000000E+00  0.68324596343E+02  0.68324596343E+02  0.00000000000E+00 0. -1.
          1   -1    0    0  502    0 -0.00000000000E+00 -0.00000000000E+00 -0.11280559538E+04  0.11280559538E+04  0.00000000000E+00 0. -1.
         23    2    1    2    0    0  0.13169404031E+02  0.79833081811E+02 -0.24334200455E+03  0.27319029190E+03  0.94185191283E+02 0.  0.
         23    2    1    2    0    0 -0.12196399563E+02 -0.16222878235E+03 -0.58464400203E+03  0.61458240035E+03  0.97139012371E+02 0.  0.
        -11    1    3    3    0    0  0.41025740972E+02  0.43494131616E+02 -0.20477282023E+03  0.21332313239E+03  0.00000000000E+00 0.  1.
         11    1    3    3    0    0 -0.27856336941E+02  0.36338950194E+02 -0.38569184320E+02  0.59867159512E+02  0.00000000000E+00 0. -1.
        -11    1    4    4    0    0 -0.58232866307E+01 -0.11512264272E+03 -0.52893336253E+03  0.54134798008E+03  0.00000000000E+00 0.  1.
         11    1    4    4    0    0 -0.63731129326E+01 -0.47106139630E+02 -0.55710639495E+02  0.73234420269E+02  0.00000000000E+00 0. -1.
         21    1    1    2  503  501  0.33675903421E+02  0.76453444544E+01  0.22586760880E+02  0.41263537538E+02  0.00000000000E+00 0. -1.
          1    1    1    2  501    0 -0.34648907889E+02  0.74750356088E+02 -0.25433211173E+03  0.26734432032E+03  0.00000000000E+00 0. -1.
<scales pt_clust_5="13000.00000" pt_clust_6="13000.00000" pt_clust_7="13000.00000" pt_clust_8="13000.00000" pt_clust_9="34.53285" pt_clust_10="13000.00000"></scales>
<clustering>
<clus scale="   34.533">  1  9  2 -1</clus>
<clus scale="   94.185">  5  6 -1 -1</clus>
<clus scale="   97.139">  7  8 -1 -1</clus>
<clus scale="   81.323">  7 10 -1 -1</clus>
<clus scale="  128.383">  2  5  1 -1</clus>
<clus scale="   34.533">  1  5  2 -1</clus>
</clustering>
</event>
<event>
10    2  0.4951045E-006  0.6489382E+03  0.7546771E-02  0.9946189E-01
         21   -1    0    0  503  502  0.00000000000E+00  0.00000000000E+00  0.28797930791E+03  0.28797930791E+03  0.00000000000E+00 0. -1.
          2   -1    0    0  502    0 -0.00000000000E+00 -0.00000000000E+00 -0.11719865437E+04  0.11719865437E+04  0.00000000000E+00 0. -1.
         23    2    1    2    0    0  0.38679498933E+03  0.13716579548E+03 -0.37346858109E+03  0.56282656089E+03  0.94181406691E+02 0.  0.
         23    2    1    2    0    0  0.68021779428E+02 -0.49034424568E+02  0.19155811766E+02  0.12596154962E+03  0.92021897339E+02 0.  0.
        -11    1    4    4    0    0  0.54743441166E+02  0.16341779523E+02  0.15276994312E+02  0.59137844599E+02  0.00000000000E+00 0. -1.
         11    1    4    4    0    0  0.13278338262E+02 -0.65376204091E+02  0.38788174549E+01  0.66823705025E+02  0.00000000000E+00 0.  1.
        -13    1    3    3    0    0  0.48491732250E+02  0.43970629724E+02 -0.92381164013E+02  0.11322165800E+03  0.00000000000E+00 0.  1.
         13    1    3    3    0    0  0.33830325708E+03  0.93195165758E+02 -0.28108741707E+03  0.44960490290E+03  0.00000000000E+00 0. -1.
         21    1    1    2  503  501 -0.26833982353E+02  0.34702437084E+02  0.32080155299E+02  0.54345727638E+02  0.00000000000E+00 0.  1.
          2    1    1    2  501    0 -0.42798278641E+03 -0.12283380800E+03 -0.56177462178E+03  0.71683201347E+03  0.00000000000E+00 0. -1.
<scales pt_clust_5="13000.00000" pt_clust_6="13000.00000" pt_clust_7="13000.00000" pt_clust_8="13000.00000" pt_clust_9="43.86709" pt_clust_10="13000.00000"></scales>
<clustering>
<clus scale="   43.867">  1  9  2 -1</clus>
<clus scale="   92.022">  5  6 -1 -1</clus>
<clus scale="   94.181">  7  8 -1 -1</clus>
<clus scale="  416.216">  2  7  1 -1</clus>
<clus scale="   91.822">  5 10 -1 -1</clus>
<clus scale="   43.867">  1  5  2 -1</clus>
</clustering>
</event>
<event>
10    2  0.4951045E-006  0.3297985E+03  0.7546771E-02  0.1106013E+00
          1   -1    0    0  502    0 -0.00000000000E+00  0.00000000000E+00  0.10403999897E+04  0.10403999897E+04  0.00000000000E+00 0. -1.
         21   -1    0    0  503  502  0.00000000000E+00 -0.00000000000E+00 -0.84846087003E+02  0.84846087003E+02  0.00000000000E+00 0.  1.
         23    2    1    2    0    0 -0.42709603772E+02 -0.82978689429E+02  0.36469588821E+03  0.38782292850E+03  0.93241406237E+02 0.  0.
         23    2    1    2    0    0 -0.83752778978E+02  0.15803955096E+03  0.28023523043E+03  0.34307627471E+03  0.84726136739E+02 0.  0.
        -13    1    3    3    0    0  0.86638473625E+01 -0.47732101944E+02  0.27097562932E+03  0.27528386712E+03  0.00000000000E+00 0. -1.
         13    1    3    3    0    0 -0.51373451135E+02 -0.35246587485E+02  0.93720258890E+02  0.11253906138E+03  0.00000000000E+00 0.  1.
        -13    1    4    4    0    0 -0.53360332981E+02  0.21165907501E+02  0.90170777183E+02  0.10689288954E+03  0.00000000000E+00 0. -1.
         13    1    4    4    0    0 -0.30392445998E+02  0.13687364345E+03  0.19006445324E+03  0.23618338518E+03  0.00000000000E+00 0.  1.
         21    1    1    2  503  501  0.29788425681E+02 -0.83842031098E+01 -0.24354543032E+02  0.39380057550E+02  0.00000000000E+00 0.  1.
          1    1    1    2  501    0  0.96673957070E+02 -0.66676658417E+02  0.33497732706E+03  0.35496681591E+03  0.00000000000E+00 0. -1.
<scales pt_clust_5="13000.00000" pt_clust_6="13000.00000" pt_clust_7="13000.00000" pt_clust_8="13000.00000" pt_clust_9="30.94584" pt_clust_10="13000.00000"></scales>
<clustering>
<clus scale="   30.946">  2  9  1 -1</clus>
<clus scale="   84.726">  7  8 -1 -1</clus>
<clus scale="   93.241">  5  6 -1 -1</clus>
<clus scale="  122.977">  7 10 -1 -1</clus>
<clus scale="  131.139">  1  5  2 -1</clus>
<clus scale="   30.946">  2  5  1 -1</clus>
</clustering>
</event>
<event>
10    2  0.4951045E-006  0.6061516E+03  0.7546771E-02  0.1018748E+00
         -3   -1    0    0    0  501 -0.00000000000E+00  0.00000000000E+00  0.10325029588E+04  0.10325029588E+04  0.00000000000E+00 0.  1.
         21   -1    0    0  501  502  0.00000000000E+00 -0.00000000000E+00 -0.25487597964E+03  0.25487597964E+03  0.00000000000E+00 0. -1.
         23    2    1    2    0    0  0.13199871468E+03  0.17826536417E+03  0.17280199115E+03  0.29707969470E+03  0.95883346394E+02 0.  0.
         23    2    1    2    0    0 -0.10716391376E+03 -0.19479970736E+03  0.74617715243E+03  0.78216449119E+03  0.74631883776E+02 0.  0.
        -13    1    3    3    0    0 -0.10021875201E+02  0.42864896876E+02  0.19857924625E+02  0.48292592984E+02  0.00000000000E+00 0.  1.
         13    1    3    3    0    0  0.14202058988E+03  0.13540046730E+03  0.15294406652E+03  0.24878710171E+03  0.00000000000E+00 0. -1.
        -13    1    4    4    0    0 -0.49617564380E+02 -0.37139839984E+02  0.27766688295E+03  0.28449985641E+03  0.00000000000E+00 0.  1.
         13    1    4    4    0    0 -0.57546349381E+02 -0.15765986738E+03  0.46851026947E+03  0.49766463478E+03  0.00000000000E+00 0. -1.
         21    1    1    2  503  502  0.46583958199E+02 -0.40047081714E+02 -0.62511811424E+02  0.87644511995E+02  0.00000000000E+00 0. -1.
         -3    1    1    2    0  503 -0.71418759114E+02  0.56581424903E+02 -0.78840353020E+02  0.12049024052E+03  0.00000000000E+00 0.  1.
<scales pt_clust_5="13000.00000" pt_clust_6="13000.00000" pt_clust_7="13000.00000" pt_clust_8="13000.00000" pt_clust_9="61.43154" pt_clust_10="13000.00000"></scales>
<clustering>
<clus scale="   61.432">  2  9  1 -1</clus>
<clus scale="   74.632">  7  8 -1 -1</clus>
<clus scale="   57.107">  7 10 -1 -1</clus>
<clus scale="   95.883">  5  6 -1 -1</clus>
<clus scale="  241.169">  1  5  2 -1</clus>
<clus scale="   61.432">  2  5  1 -1</clus>
</clustering>
</event>
<event>
10    2  0.9925945E-006  0.4427002E+03  0.7546771E-02  0.1081376E+00
         21   -1    0    0  501  502  0.00000000000E+00  0.00000000000E+00  0.92925205435E+03  0.92925205435E+03  0.00000000000E+00 0. -1.
          1   -1    0    0  503    0 -0.00000000000E+00 -0.00000000000E+00 -0.33727412674E+03  0.33727412674E+03  0.00000000000E+00 0. -1.
         23    2    1    2    0    0 -0.42529758862E+02  0.26828854991E+02 -0.11272905072E+03  0.15305935661E+03  0.90502817202E+02 0.  0.
         23    2    1    2    0    0  0.13410488018E+02  0.15630298057E+01 -0.14916563769E+03  0.17546288612E+03  0.91403242217E+02 0.  0.
        -11    1    4    4    0    0 -0.17895782362E+02 -0.30677992819E+02 -0.25048834223E+02  0.43460814140E+02  0.00000000000E+00 0.  1.
         11    1    4    4    0    0  0.31306270380E+02  0.32241022624E+02 -0.12411680347E+03  0.13200207198E+03  0.00000000000E+00 0. -1.
        -13    1    3    3    0    0  0.23288521224E+02  0.85520481312E+01 -0.47073281048E+01  0.25251765996E+02  0.00000000000E+00 0.  1.
         13    1    3    3    0    0 -0.65818280087E+02  0.18276806860E+02 -0.10802172261E+03  0.12780759062E+03  0.00000000000E+00 0. -1.
         21    1    1    2  503  502 -0.14416218461E+03 -0.74555958396E+02  0.63312871084E+03  0.65360025313E+03  0.00000000000E+00 0. -1.
          1    1    1    2  501    0  0.17328145545E+03  0.46164073599E+02  0.22074390517E+03  0.28440368522E+03  0.00000000000E+00 0. -1.
<scales pt_clust_5="13000.00000" pt_clust_6="13000.00000" pt_clust_7="13000.00000" pt_clust_8="13000.00000" pt_clust_9="163.58924" pt_clust_10="13000.00000"></scales>
<clustering>
<clus scale="   90.503">  7  8 -1 -1</clus>
<clus scale="   91.403">  5  6 -1 -1</clus>
<clus scale="  103.534">  2  7  1 -1</clus>
<clus scale="  163.589">  1  9  2 -1</clus>
<clus scale="   40.783">  5 10 -1 -1</clus>
<clus scale="  163.589">  1  5  2 -1</clus>
</clustering>
</event>
<event>
10    2  0.4951045E-006  0.1839348E+03  0.7546771E-02  0.1187942E+00
          2   -1    0    0  502    0 -0.00000000000E+00  0.00000000000E+00  0.80742151558E+02  0.80742151558E+02  0.00000000000E+00 0. -1.
         21   -1    0    0  503  502  0.00000000000E+00 -0.00000000000E+00 -0.62855648911E+03  0.62855648911E+03  0.00000000000E+00 0.  1.
         23    2    1    2    0    0  0.20443848564E+02  0.33926477349E+02 -0.64303367062E+02  0.11832580815E+03  0.91088512176E+02 0.  0.
         23    2    1    2    0    0 -0.41698222838E+02 -0.34256433249E+02 -0.11277482960E+02  0.10547801744E+03  0.89923220217E+02 0.  0.
        -11    1    3    3    0    0 -0.75875589528E+01  0.34017304439E+02 -0.79237668606E+02  0.86564173757E+02  0.00000000000E+00 0.  1.
         11    1    3    3    0    0  0.28031407517E+02 -0.90827090679E-01  0.14934301544E+02  0.31761634397E+02  0.00000000000E+00 0. -1.
        -13    1    4    4    0    0 -0.26545382398E+02  0.48230602293E+01 -0.44468716268E+02  0.52013324861E+02  0.00000000000E+00 0.  1.
         13    1    4    4    0    0 -0.15152840440E+02 -0.39079493478E+02  0.33191233308E+02  0.53464692577E+02  0.00000000000E+00 0. -1.
         21    1    1    2  503  501  0.16253874412E+02  0.49411214710E+02 -0.34728853476E+03  0.35116233134E+03  0.00000000000E+00 0.  1.
          2    1    1    2  501    0  0.50004998611E+01 -0.49081258810E+02 -0.12494495277E+03  0.13433248374E+03  0.00000000000E+00 0. -1.
<scales pt_clust_5="13000.00000" pt_clust_6="13000.00000" pt_clust_7="13000.00000" pt_clust_8="13000.00000" pt_clust_9="52.01593" pt_clust_10="13000.00000"></scales>
<clustering>
<clus scale="   52.016">  2  9  1 -1</clus>
<clus scale="   89.923">  7  8 -1 -1</clus>
<clus scale="   29.002">  7 10 -1 -1</clus>
<clus scale="   91.089">  5  6 -1 -1</clus>
<clus scale="  107.091">  1  5  2 -1</clus>
<clus scale="   52.016">  2  5  1 -1</clus>
</clustering>
</event>
<event>
10    2  0.4951045E-006  0.1676210E+03  0.7546771E-02  0.1189999E+00
          1   -1    0    0  503    0 -0.00000000000E+00  0.00000000000E+00  0.78802825845E+03  0.78802825845E+03  0.00000000000E+00 0. -1.
         21   -1    0    0  501  502  0.00000000000E+00 -0.00000000000E+00 -0.25724381790E+03  0.25724381790E+03  0.00000000000E+00 0. -1.
         23    2    1    2    0    0  0.10009173931E+03 -0.47399469855E+02  0.41710742882E+03  0.44116402273E+03  0.91553381996E+02 0.  0.
         23    2    1    2    0    0 -0.83902990294E+02  0.49013532196E+02  0.31748792148E+03  0.34429014981E+03  0.91077378382E+02 0.  0.
        -11    1    3    3    0    0  0.79259459470E+02  0.34304666554E+01  0.31907311954E+03  0.32878790372E+03  0.00000000000E+00 0. -1.
         11    1    3    3    0    0  0.20832279837E+02 -0.50829936510E+02  0.98034309285E+02  0.11237611902E+03  0.00000000000E+00 0.  1.
        -11    1    4    4    0    0  0.71145777284E+01  0.40980259208E+02  0.90414185292E+02  0.99522478682E+02  0.00000000000E+00 0.  1.
         11    1    4    4    0    0 -0.91017568023E+02  0.80332729880E+01  0.22707373619E+03  0.24476767113E+03  0.00000000000E+00 0. -1.
         21    1    1    2  503  502 -0.21861034591E+02  0.18826365106E+02 -0.22674762840E+03  0.22857564140E+03  0.00000000000E+00 0. -1.
          1    1    1    2  501    0  0.56722855788E+01 -0.20440427447E+02  0.22936718641E+02  0.31242262401E+02  0.00000000000E+00 0. -1.
<scales pt_clust_5="13000.00000" pt_clust_6="13000.00000" pt_clust_7="13000.00000" pt_clust_8="13000.00000" pt_clust_9="28.85025" pt_clust_10="13000.00000"></scales>
<clustering>
<clus scale="   28.850">  2  9  1 -1</clus>
<clus scale="   91.077">  7  8 -1 -1</clus>
<clus scale="   17.987">  7 10 -1 -1</clus>
<clus scale="   91.553">  5  6 -1 -1</clus>
<clus scale="  135.202">  1  5  2 -1</clus>
<clus scale="   28.850">  2  5  1 -1</clus>
</clustering>
</event>
<event>
10    2  0.4951045E-006  0.1190441E+03  0.7546771E-02  0.1253315E+00
         21   -1    0    0  501  502  0.00000000000E+00  0.00000000000E+00  0.19105492797E+03  0.19105492797E+03  0.00000000000E+00 0. -1.
         -3   -1    0    0    0  501 -0.00000000000E+00 -0.00000000000E+00 -0.42888765249E+03  0.42888765249E+03  0.00000000000E+00 0.  1.
         23    2    1    2    0    0 -0.82385604768E+01 -0.46069511401E+02 -0.36051461322E+03  0.37437562292E+03  0.89420618075E+02 0.  0.
         23    2    1    2    0    0 -0.37365193325E+02  0.11282285479E+02 -0.43270696404E+01  0.86095126679E+02  0.76617228274E+02 0.  0.
        -11    1    4    4    0    0 -0.46374484604E+01  0.40804003313E+02  0.39253354407E+01  0.41253858885E+02  0.00000000000E+00 0. -1.
         11    1    4    4    0    0 -0.32727744864E+02 -0.29521717834E+02 -0.82524050811E+01  0.44841267794E+02  0.00000000000E+00 0.  1.
        -13    1    3    3    0    0 -0.40249582238E+02 -0.72388925044E+01 -0.24478913631E+03  0.24818169088E+03  0.00000000000E+00 0.  1.
         13    1    3    3    0    0  0.32011021761E+02 -0.38830618897E+02 -0.11572547691E+03  0.12619393204E+03  0.00000000000E+00 0. -1.
         21    1    1    2  503  502  0.25423769240E+02  0.11845283305E+02  0.12580517844E+03  0.12889383888E+03  0.00000000000E+00 0. -1.
         -3    1    1    2    0  503  0.20179984561E+02  0.22941942617E+02  0.12037799030E+01  0.30577991987E+02  0.00000000000E+00 0.  1.
<scales pt_clust_5="13000.00000" pt_clust_6="13000.00000" pt_clust_7="13000.00000" pt_clust_8="13000.00000" pt_clust_9="28.04779" pt_clust_10="13000.00000"></scales>
<clustering>
<clus scale="   28.048">  1  9  2 -1</clus>
<clus scale="   76.617">  5  6 -1 -1</clus>
<clus scale="   37.068">  5 10 -1 -1</clus>
<clus scale="   89.421">  7  8 -1 -1</clus>
<clus scale="  100.156">  2  7  1 -1</clus>
<clus scale="   28.048">  1  5  2 -1</clus>
</clustering>
</event>
<event>
10    2  0.4951045E-006  0.1792333E+03  0.7546771E-02  0.1191105E+00
         21   -1    0    0  503  502  0.00000000000E+00  0.00000000000E+00  0.25494479042E+03  0.25494479042E+03  0.00000000000E+00 0.  1.
         -1   -1    0    0    0  501 -0.00000000000E+00 -0.00000000000E+00 -0.10773172372E+03  0.10773172372E+03  0.00000000000E+00 0.  1.
         23    2    1    2    0    0 -0.58423153524E+02 -0.11771732059E+02  0.21207217887E+02  0.11189604343E+03  0.92299186900E+02 0.  0.
         23    2    1    2    0    0  0.86704286821E+02  0.26527095823E+02  0.72176517160E+02  0.14746166561E+03  0.91182087214E+02 0.  0.
        -13    1    3    3    0    0 -0.83313414932E+01  0.25393131112E+02  0.38778023219E+02  0.47095195546E+02  0.00000000000E+00 0.  1.
         13    1    3    3    0    0 -0.50091812031E+02 -0.37164863172E+02 -0.17570805332E+02  0.64800847889E+02  0.00000000000E+00 0. -1.
        -13    1    4    4    0    0  0.16739507318E+02  0.50838917373E+02  0.39417970381E+02  0.66472422958E+02  0.00000000000E+00 0. -1.
         13    1    4    4    0    0  0.69964779503E+02 -0.24311821550E+02  0.32758546779E+02  0.80989242650E+02  0.00000000000E+00 0.  1.
         21    1    1    2  503  501  0.17605038150E+02 -0.21788369575E+02  0.49266270889E+02  0.56673061187E+02  0.00000000000E+00 0.  1.
         -1    1    1    2    0  502 -0.45886171447E+02  0.70330058117E+01  0.45630607679E+01  0.46645743904E+02  0.00000000000E+00 0.  1.
<scales pt_clust_5="13000.00000" pt_clust_6="13000.00000" pt_clust_7="13000.00000" pt_clust_8="13000.00000" pt_clust_9="28.01197" pt_clust_10="13000.00000"></scales>
<clustering>
<clus scale="   28.012">  1  9  2 -1</clus>
<clus scale="   91.182">  7  8 -1 -1</clus>
<clus scale="   43.863">  7 10 -1 -1</clus>
<clus scale="   92.299">  5  6 -1 -1</clus>
<clus scale="  107.923">  2  5  1 -1</clus>
<clus scale="   28.012">  1  5  2 -1</clus>
</clustering>
</event>
<event>
10    2  0.4951045E-006  0.3000590E+03  0.7546771E-02  0.1092020E+00
         21   -1    0    0  501  502  0.00000000000E+00  0.00000000000E+00  0.18489800858E+03  0.18489800858E+03  0.00000000000E+00 0. -1.
          1   -1    0    0  503    0 -0.00000000000E+00 -0.00000000000E+00 -0.82901629334E+03  0.82901629334E+03  0.00000000000E+00 0. -1.
         23    2    1    2    0    0 -0.22787819930E+03 -0.57372051536E+02 -0.54170505265E+03  0.59572775840E+03  0.78912432822E+02 0.  0.
         23    2    1    2    0    0  0.92647942358E+02 -0.13998816150E+01 -0.91626298438E+02  0.15775701765E+03  0.88917361406E+02 0.  0.
        -11    1    4    4    0    0  0.45401661807E+02  0.42795515888E+02 -0.56336904782E+02  0.84063154327E+02  0.00000000000E+00 0. -1.
         11    1    4    4    0    0  0.47246280551E+02 -0.44195397503E+02 -0.35289393656E+02  0.73693863319E+02  0.00000000000E+00 0.  1.
        -13    1    3    3    0    0 -0.16710607086E+03 -0.10942361176E+02 -0.41790890283E+03  0.45021331083E+03  0.00000000000E+00 0. -1.
         13    1    3    3    0    0 -0.60772128437E+02 -0.46429690360E+02 -0.12379614982E+03  0.14551444757E+03  0.00000000000E+00 0.  1.
         21    1    1    2  503  502 -0.33349743592E+02  0.78745973941E+02 -0.27549115838E+02  0.89844797250E+02  0.00000000000E+00 0. -1.
          1    1    1    2  501    0  0.16858000053E+03 -0.19974040790E+02  0.16762182160E+02  0.17058472861E+03  0.00000000000E+00 0. -1.
<scales pt_clust_5="13000.00000" pt_clust_6="13000.00000" pt_clust_7="13000.00000" pt_clust_8="13000.00000" pt_clust_9="85.51686" pt_clust_10="13000.00000"></scales>
<clustering>
<clus scale="   78.912">  7  8 -1 -1</clus>
<clus scale="   85.517">  1  9  2 -1</clus>
<clus scale="   88.917">  5  6 -1 -1</clus>
<clus scale="  150.883">  5 10 -1 -1</clus>
<clus scale="  250.511">  2  7  1 -1</clus>
<clus scale="   85.517">  1  5  2 -1</clus>
</clustering>
</event>
<event>
10    2  0.4951045E-006  0.1559262E+03  0.7546771E-02  0.1212185E+00
         21   -1    0    0  503  502  0.00000000000E+00  0.00000000000E+00  0.11842014119E+03  0.11842014119E+03  0.00000000000E+00 0. -1.
          1   -1    0    0  502    0 -0.00000000000E+00 -0.00000000000E+00 -0.53983920231E+03  0.53983920231E+03  0.00000000000E+00 0. -1.
         23    2    1    2    0    0 -0.21102077046E+02 -0.34369132601E+02 -0.26193572323E+03  0.28035462983E+03  0.91443208776E+02 0.  0.
         23    2    1    2    0    0 -0.52152578034E+02  0.11345643928E+03 -0.19536302758E+03  0.24837333187E+03  0.89052481322E+02 0.  0.
        -13    1    4    4    0    0 -0.60670912059E+02  0.54162675403E+02 -0.62302691637E+02  0.10245086804E+03  0.00000000000E+00 0.  1.
         13    1    4    4    0    0  0.85183340252E+01  0.59293763876E+02 -0.13306033594E+03  0.14592246383E+03  0.00000000000E+00 0. -1.
        -13    1    3    3    0    0 -0.56298913255E+02 -0.22314681772E+02 -0.18920745797E+03  0.19866296788E+03  0.00000000000E+00 0. -1.
         13    1    3    3    0    0  0.35196836209E+02 -0.12054450830E+02 -0.72728265256E+02  0.81691661943E+02  0.00000000000E+00 0.  1.
         21    1    1    2  503  501  0.53247955938E+02 -0.63748140565E+02  0.53476505614E+02  0.98787179784E+02  0.00000000000E+00 0. -1.
          1    1    1    2  501    0  0.20006699142E+02 -0.15339166112E+02 -0.17596815931E+02  0.30744202031E+02  0.00000000000E+00 0. -1.
<scales pt_clust_5="13000.00000" pt_clust_6="13000.00000" pt_clust_7="13000.00000" pt_clust_8="13000.00000" pt_clust_9="83.06124" pt_clust_10="13000.00000"></scales>
<clustering>
<clus scale="   83.061">  1  9  2 -1</clus>
<clus scale="   89.052">  5  6 -1 -1</clus>
<clus scale="   37.914">  5 10 -1 -1</clus>
<clus scale="   91.443">  7  8 -1 -1</clus>
<clus scale="  103.829">  2  7  1 -1</clus>
<clus scale="   83.061">  1  5  2 -1</clus>
</clustering>
</event>
<event>
10    2  0.4951045E-006  0.4274631E+03  0.7546771E-02  0.1075848E+00
          3   -1    0    0  503    0 -0.00000000000E+00  0.00000000000E+00  0.38325797392E+03  0.38325797392E+03  0.00000000000E+00 0. -1.
         21   -1    0    0  501  502  0.00000000000E+00 -0.00000000000E+00 -0.38000526898E+03  0.38000526898E+03  0.00000000000E+00 0. -1.
         23    2    1    2    0    0  0.71820524599E+02 -0.61907042107E+02  0.22103015455E+02  0.13203559936E+03  0.89186246636E+02 0.  0.
         23    2    1    2    0    0  0.12886569043E+03 -0.46719609292E+02  0.11328060296E+03  0.20064940591E+03  0.92944074713E+02 0.  0.
        -11    1    3    3    0    0 -0.20904172123E+02 -0.85308863756E+01  0.87556200761E+01  0.24216137541E+02  0.00000000000E+00 0.  1.
         11    1    3    3    0    0  0.92724696721E+02 -0.53376155732E+02  0.13347395379E+02  0.10781946182E+03  0.00000000000E+00 0. -1.
        -13    1    4    4    0    0  0.31434327354E+02 -0.51698280560E+02  0.15358794458E+02  0.62423727190E+02  0.00000000000E+00 0.  1.
         13    1    4    4    0    0  0.97431363081E+02  0.49786712684E+01  0.97921808498E+02  0.13822567872E+03  0.00000000000E+00 0. -1.
         21    1    1    2  503  502  0.37137853661E+02  0.19779147871E+02 -0.16889011486E+03  0.17405259481E+03  0.00000000000E+00 0. -1.
          3    1    1    2  501    0 -0.23782406869E+03  0.88847503528E+02  0.36759201387E+02  0.25652564281E+03  0.00000000000E+00 0. -1.
<scales pt_clust_5="13000.00000" pt_clust_6="13000.00000" pt_clust_7="13000.00000" pt_clust_8="13000.00000" pt_clust_9="42.07654" pt_clust_10="13000.00000"></scales>
<clustering>
<clus scale="   42.077">  2  9  1 -1</clus>
<clus scale="   89.186">  5  6 -1 -1</clus>
<clus scale="   92.944">  7  8 -1 -1</clus>
<clus scale="  133.523">  1  5  2 -1</clus>
<clus scale="  196.864">  7 10 -1 -1</clus>
<clus scale="   42.077">  2  5  1 -1</clus>
</clustering>
</event>
<event>
10    2  0.4951045E-006  0.1529819E+03  0.7546771E-02  0.1214898E+00
         21   -1    0    0  503  502  0.00000000000E+00  0.00000000000E+00  0.40977115219E+03  0.40977115219E+03  0.00000000000E+00 0.  1.
         -2   -1    0    0    0  501 -0.00000000000E+00 -0.00000000000E+00 -0.25140551002E+03  0.25140551002E+03  0.00000000000E+00 0.  1.
         23    2    1    2    0    0  0.46145042892E+02  0.44036296935E+02 -0.54637324914E+02  0.12435703889E+03  0.91710824965E+02 0.  0.
         23    2    1    2    0    0 -0.10189293639E+02 -0.18841831313E+02 -0.12137171117E+03  0.15319175846E+03  0.90982340466E+02 0.  0.
        -11    1    4    4    0    0 -0.48109887943E+02 -0.11474529598E+02 -0.41871201551E+02  0.64802960323E+02  0.00000000000E+00 0.  1.
         11    1    4    4    0    0  0.37920594304E+02 -0.73673017154E+01 -0.79500509618E+02  0.88388798139E+02  0.00000000000E+00 0. -1.
        -13    1    3    3    0    0  0.22373357763E+02  0.71125347302E+02 -0.44851547292E+02  0.87011743236E+02  0.00000000000E+00 0.  1.
         13    1    3    3    0    0  0.23771685129E+02 -0.27089050367E+02 -0.97857776223E+01  0.37345295652E+02  0.00000000000E+00 0. -1.
         21    1    1    2  503  501 -0.25580395366E+01 -0.51666189446E+02  0.33698431755E+03  0.34093161920E+03  0.00000000000E+00 0.  1.
         -2    1    1    2    0  502 -0.33397709717E+02  0.26471723823E+02 -0.26096392911E+01  0.42696245663E+02  0.00000000000E+00 0.  1.
<scales pt_clust_5="13000.00000" pt_clust_6="13000.00000" pt_clust_7="13000.00000" pt_clust_8="13000.00000" pt_clust_9="51.72948" pt_clust_10="13000.00000"></scales>
<clustering>
<clus scale="   51.729">  1  9  2 -1</clus>
<clus scale="   90.982">  5  6 -1 -1</clus>
<clus scale="   36.120">  5 10 -1 -1</clus>
<clus scale="   91.711">  7  8 -1 -1</clus>
<clus scale="  103.787">  2  7  1 -1</clus>
<clus scale="   51.729">  1  5  2 -1</clus>
</clustering>
</event>
<event>
10    2  0.4951045E-006  0.4034180E+03  0.7546771E-02  0.1074147E+00
         21   -1    0    0  501  502  0.00000000000E+00  0.00000000000E+00  0.25634405225E+03  0.25634405225E+03  0.00000000000E+00 0.  1.
          1   -1    0    0  503    0 -0.00000000000E+00 -0.00000000000E+00 -0.98934265371E+03  0.98934265371E+03  0.00000000000E+00 0. -1.
         23    2    1    2    0    0 -0.81986343759E+01  0.13736239800E+03 -0.20651391285E+03  0.26519283724E+03  0.93507212188E+02 0.  0.
         23    2    1    2    0    0  0.72544940368E+01 -0.16806478644E+03 -0.29174379945E+03  0.34901089664E+03  0.91628387167E+02 0.  0.
        -11    1    4    4    0    0  0.22503478250E+02 -0.13988908238E+03 -0.16131132966E+03  0.21470143683E+03  0.00000000000E+00 0.  1.
         11    1    4    4    0    0 -0.15248984213E+02 -0.28175704058E+02 -0.13043246979E+03  0.13430945981E+03  0.00000000000E+00 0. -1.
        -13    1    3    3    0    0 -0.30880996173E+02  0.13635351694E+03 -0.15408012407E+03  0.20805432497E+03  0.00000000000E+00 0. -1.
         13    1    3    3    0    0  0.22682361797E+02  0.10088810579E+01 -0.52433788784E+02  0.57138512266E+02  0.00000000000E+00 0.  1.
         21    1    1    2  503  502 -0.21043043861E+03 -0.45491214126E+02  0.92671183632E+02  0.23438935200E+03  0.00000000000E+00 0.  1.
          1    1    1    2  501    0  0.21137457895E+03  0.76193602562E+02 -0.32741207279E+03  0.39709362008E+03  0.00000000000E+00 0. -1.
<scales pt_clust_5="13000.00000" pt_clust_6="13000.00000" pt_clust_7="13000.00000" pt_clust_8="13000.00000" pt_clust_9="213.69858" pt_clust_10="13000.00000"></scales>
<clustering>
<clus scale="   91.628">  5  6 -1 -1</clus>
<clus scale="   93.507">  7  8 -1 -1</clus>
<clus scale="  166.371">  2  7  1 -1</clus>
<clus scale="  213.699">  1  9  2 -1</clus>
<clus scale="  147.139">  5 10 -1 -1</clus>
<clus scale="  213.699">  1  5  2 -1</clus>
</clustering>
</event>
<event>
10    2  0.4951045E-006  0.2560321E+03  0.7546771E-02  0.1150672E+00
          2   -1    0    0  502    0 -0.00000000000E+00  0.00000000000E+00  0.45495302205E+03  0.45495302205E+03  0.00000000000E+00 0. -1.
         21   -1    0    0  503  502  0.00000000000E+00 -0.00000000000E+00 -0.85946448873E+02  0.85946448873E+02  0.00000000000E+00 0.  1.
         23    2    1    2    0    0  0.16148008463E+02 -0.16816649042E+02  0.17204895597E+03  0.19575714555E+03  0.90423774096E+02 0.  0.
         23    2    1    2    0    0  0.10789681764E+03  0.29924716110E+02  0.60670055472E+02  0.15613691275E+03  0.90336415703E+02 0.  0.
        -11    1    4    4    0    0  0.35803126298E+02  0.88827910358E+01  0.71309037293E+02  0.80285407322E+02  0.00000000000E+00 0. -1.
         11    1    4    4    0    0  0.72093691339E+02  0.21041925074E+02 -0.10638981821E+02  0.75851505429E+02  0.00000000000E+00 0.  1.
        -13    1    3    3    0    0 -0.11111413794E+02 -0.49545098819E+02  0.95090849661E+02  0.10779819119E+03  0.00000000000E+00 0. -1.
         13    1    3    3    0    0  0.27259422257E+02  0.32728449777E+02  0.76958106310E+02  0.87958954367E+02  0.00000000000E+00 0.  1.
         21    1    1    2  503  501 -0.22355165703E+02 -0.13501758610E+02  0.12945345080E+02  0.29148462711E+02  0.00000000000E+00 0.  1.
          2    1    1    2  501    0 -0.10168966040E+03  0.39369154231E+00  0.12334221665E+03  0.15985694991E+03  0.00000000000E+00 0. -1.
<scales pt_clust_5="13000.00000" pt_clust_6="13000.00000" pt_clust_7="13000.00000" pt_clust_8="13000.00000" pt_clust_9="26.11610" pt_clust_10="13000.00000"></scales>
<clustering>
<clus scale="   26.116">  2  9  1 -1</clus>
<clus scale="   90.336">  5  6 -1 -1</clus>
<clus scale="   90.424">  7  8 -1 -1</clus>
<clus scale="   93.247">  1  7  2 -1</clus>
<clus scale="  100.254">  5 10 -1 -1</clus>
<clus scale="   26.116">  2  5  1 -1</clus>
</clustering>
</event>
<event>
10    2  0.4951045E-006  0.2804966E+03  0.7546771E-02  0.1130233E+00
          2   -1    0    0  502    0 -0.00000000000E+00  0.00000000000E+00  0.88417936238E+03  0.88417936238E+03  0.00000000000E+00 0. -1.
         21   -1    0    0  503  502  0.00000000000E+00 -0.00000000000E+00 -0.67925174437E+02  0.67925174437E+02  0.00000000000E+00 0. -1.
         23    2    1    2    0    0 -0.65806501757E+02 -0.34527606005E+02  0.28866466319E+03  0.31209431578E+03  0.92482013998E+02 0.  0.
         23    2    1    2    0    0 -0.61298516285E+02  0.64692079850E+02  0.44882392693E+03  0.46563057368E+03  0.86176217516E+02 0.  0.
        -11    1    4    4    0    0 -0.66451724025E+02  0.20063445318E+02  0.35349873783E+03  0.36024954006E+03  0.00000000000E+00 0.  1.
         11    1    4    4    0    0  0.51532077403E+01  0.44628634533E+02  0.95325189103E+02  0.10538103362E+03  0.00000000000E+00 0. -1.
        -11    1    3    3    0    0 -0.22743392358E+02 -0.45174480658E+02  0.24384207048E+03  0.24903202793E+03  0.00000000000E+00 0. -1.
         11    1    3    3    0    0 -0.43063109399E+02  0.10646874653E+02  0.44822592716E+02  0.63062287849E+02  0.00000000000E+00 0.  1.
         21    1    1    2  503  501  0.20132337090E+02 -0.31060151297E+01 -0.18327806366E+02  0.27401949071E+02  0.00000000000E+00 0. -1.
          2    1    1    2  501    0  0.10697268095E+03 -0.27058458716E+02  0.97093404179E+02  0.14697769828E+03  0.00000000000E+00 0. -1.
<scales pt_clust_5="13000.00000" pt_clust_6="13000.00000" pt_clust_7="13000.00000" pt_clust_8="13000.00000" pt_clust_9="20.37053" pt_clust_10="13000.00000"></scales>
<clustering>
<clus scale="   20.371">  2  9  1 -1</clus>
<clus scale="   86.176">  5  6 -1 -1</clus>
<clus scale="   92.482">  7  8 -1 -1</clus>
<clus scale="  116.063">  1  7  2 -1</clus>
<clus scale="  109.434">  5 10 -1 -1</clus>
<clus scale="   20.371">  2  5  1 -1</clus>
</clustering>
</event>
<event>
10    2  0.4951045E-006  0.1522886E+03  0.7546771E-02  0.1213661E+00
         21   -1    0    0  503  502  0.00000000000E+00  0.00000000000E+00  0.70289958936E+03  0.70289958936E+03  0.00000000000E+00 0. -1.
          4   -1    0    0  502    0 -0.00000000000E+00 -0.00000000000E+00 -0.64923448588E+02  0.64923448588E+02  0.00000000000E+00 0. -1.
         23    2    1    2    0    0  0.74565452433E+02 -0.69944713837E+02  0.40761595693E+03  0.43002304898E+03  0.91196406797E+02 0.  0.
         23    2    1    2    0    0  0.12879845017E+02  0.14651140560E+02  0.19565648279E+02  0.95300384973E+02  0.91207469300E+02 0.  0.
        -11    1    4    4    0    0 -0.20595139659E+02 -0.14183951483E+02 -0.22981279731E+02  0.33962972121E+02  0.00000000000E+00 0.  1.
         11    1    4    4    0    0  0.33474984677E+02  0.28835092043E+02  0.42546928010E+02  0.61337412851E+02  0.00000000000E+00 0. -1.
        -13    1    3    3    0    0  0.23181251251E+02  0.21807673018E+02  0.97165652983E+02  0.10224533795E+03  0.00000000000E+00 0.  1.
         13    1    3    3    0    0  0.51384201182E+02 -0.91752386855E+02  0.31045030395E+03  0.32777771103E+03  0.00000000000E+00 0. -1.
         21    1    1    2  503  501 -0.40877195651E+02  0.38576635905E+02  0.16775972944E+03  0.17692492415E+03  0.00000000000E+00 0. -1.
          4    1    1    2  501    0 -0.46568101800E+02  0.16716937371E+02  0.43034806117E+02  0.65574679853E+02  0.00000000000E+00 0. -1.
<scales pt_clust_5="13000.00000" pt_clust_6="13000.00000" pt_clust_7="13000.00000" pt_clust_8="13000.00000" pt_clust_9="56.20589" pt_clust_10="13000.00000"></scales>
<clustering>
<clus scale="   56.206">  1  9  2 -1</clus>
<clus scale="   91.196">  7  8 -1 -1</clus>
<clus scale="   91.207">  5  6 -1 -1</clus>
<clus scale="   54.798">  5 10 -1 -1</clus>
<clus scale="  108.007">  2  7  1 -1</clus>
<clus scale="   56.206">  1  5  2 -1</clus>
</clustering>
</event>
<event>
10    2  0.4951045E-006  0.1611063E+03  0.7546771E-02  0.1194320E+00
          1   -1    0    0  502    0 -0.00000000000E+00  0.00000000000E+00  0.37768777858E+03  0.37768777858E+03  0.00000000000E+00 0. -1.
         21   -1    0    0  503  502  0.00000000000E+00 -0.00000000000E+00 -0.28222467189E+03  0.28222467189E+03  0.00000000000E+00 0.  1.
         23    2    1    2    0    0  0.91633510878E+02  0.16381192477E+01  0.32847764791E+02  0.13372927657E+03  0.91679659736E+02 0.  0.
         23    2    1    2    0    0 -0.93406974347E+02 -0.37490043573E+01  0.23956207927E+03  0.27277724644E+03  0.90986364139E+02 0.  0.
        -13    1    4    4    0    0  0.78447240732E+01  0.24090704312E+02  0.42334821186E+02  0.49336992358E+02  0.00000000000E+00 0.  1.
         13    1    4    4    0    0 -0.10125169842E+03 -0.27839708669E+02  0.19722725809E+03  0.22344025408E+03  0.00000000000E+00 0. -1.
        -13    1    3    3    0    0  0.73266376109E+02  0.39619530155E+02  0.37382619116E+02  0.91296929027E+02  0.00000000000E+00 0.  1.
         13    1    3    3    0    0  0.18367134769E+02 -0.37981410907E+02 -0.45348543250E+01  0.42432347541E+02  0.00000000000E+00 0. -1.
         21    1    1    2  503  501  0.15863112046E+02 -0.26105737800E+02 -0.20735642608E+03  0.20959445438E+03  0.00000000000E+00 0.  1.
          1    1    1    2  501    0 -0.14089648577E+02  0.28216622910E+02  0.30409688718E+02  0.43811473079E+02  0.00000000000E+00 0. -1.
<scales pt_clust_5="13000.00000" pt_clust_6="13000.00000" pt_clust_7="13000.00000" pt_clust_8="13000.00000" pt_clust_9="30.54747" pt_clust_10="13000.00000"></scales>
<clustering>
<clus scale="   30.547">  2  9  1 -1</clus>
<clus scale="   90.986">  5  6 -1 -1</clus>
<clus scale="   28.774">  5 10 -1 -1</clus>
<clus scale="   91.680">  7  8 -1 -1</clus>
<clus scale="  138.459">  1  7  2 -1</clus>
<clus scale="   30.547">  2  5  1 -1</clus>
</clustering>
</event>
<event>
10    2  0.4951045E-006  0.1734852E+03  0.7546771E-02  0.1193761E+00
          3   -1    0    0  502    0 -0.00000000000E+00  0.00000000000E+00  0.51550950270E+03  0.51550950270E+03  0.00000000000E+00 0. -1.
         21   -1    0    0  503  502  0.00000000000E+00 -0.00000000000E+00 -0.89091882897E+02  0.89091882897E+02  0.00000000000E+00 0.  1.
         23    2    1    2    0    0 -0.78015391298E+02  0.39512757948E+01  0.21552456563E+03  0.24766110734E+03  0.93718577886E+02 0.  0.
         23    2    1    2    0    0  0.23021395594E+01  0.21006359254E+02  0.24424437347E+03  0.26387044487E+03  0.97599850051E+02 0.  0.
        -11    1    4    4    0    0  0.37483311633E+02  0.37635023341E+02  0.87433679336E+02  0.10230367498E+03  0.00000000000E+00 0.  1.
         11    1    4    4    0    0 -0.35181172073E+02 -0.16628664087E+02  0.15681069413E+03  0.16156676989E+03  0.00000000000E+00 0. -1.
        -11    1    3    3    0    0 -0.86145367078E+02 -0.26743523267E+02  0.15623782531E+03  0.18040648094E+03  0.00000000000E+00 0. -1.
         11    1    3    3    0    0  0.81299757798E+01  0.30694799062E+02  0.59286740316E+02  0.67254626405E+02  0.00000000000E+00 0.  1.
         21    1    1    2  503  501  0.42950486225E+02 -0.24997859736E+02 -0.34148677482E+02  0.60297341833E+02  0.00000000000E+00 0.  1.
          3    1    1    2  501    0  0.32762765514E+02  0.40224687299E-01  0.79735818358E+00  0.32772491547E+02  0.00000000000E+00 0. -1.
<scales pt_clust_5="13000.00000" pt_clust_6="13000.00000" pt_clust_7="13000.00000" pt_clust_8="13000.00000" pt_clust_9="49.69545" pt_clust_10="13000.00000"></scales>
<clustering>
<clus scale="   49.695">  2  9  1 -1</clus>
<clus scale="   93.719">  7  8 -1 -1</clus>
<clus scale="   97.600">  5  6 -1 -1</clus>
<clus scale="   50.074">  5 10 -1 -1</clus>
<clus scale="  112.255">  1  7  2 -1</clus>
<clus scale="   49.695">  2  5  1 -1</clus>
</clustering>
</event>
<event>
10    2  0.4951045E-006  0.2340749E+03  0.7546771E-02  0.1161585E+00
         -3   -1    0    0    0  501 -0.00000000000E+00  0.00000000000E+00  0.58970603721E+03  0.58970603721E+03  0.00000000000E+00 0.  1.
         21   -1    0    0  501  502  0.00000000000E+00 -0.00000000000E+00 -0.16077727720E+03  0.16077727720E+03  0.00000000000E+00 0.  1.
         23    2    1    2    0    0 -0.18153898828E+02 -0.18650433708E+02  0.27128343120E+03  0.28754910659E+03  0.91719059836E+02 0.  0.
         23    2    1    2    0    0  0.50246732417E+02  0.30789510306E+02  0.26891335798E+03  0.29016131193E+03  0.91686775355E+02 0.  0.
        -11    1    4    4    0    0  0.67442920764E+02  0.46099876756E+02  0.23790011970E+03  0.25153570950E+03  0.00000000000E+00 0.  1.
         11    1    4    4    0    0 -0.17196188347E+02 -0.15310366450E+02  0.31013238277E+02  0.38625602428E+02  0.00000000000E+00 0. -1.
        -11    1    3    3    0    0  0.12900822955E+02 -0.49428392184E+02  0.13091423037E+03  0.14052805023E+03  0.00000000000E+00 0.  1.
         11    1    3    3    0    0 -0.31054721783E+02  0.30777958476E+02  0.14036920083E+03  0.14702105637E+03  0.00000000000E+00 0. -1.
         21    1    1    2  503  502  0.28127602906E+02  0.39671931001E+01 -0.10653430218E+03  0.11025632956E+03  0.00000000000E+00 0.  1.
         -3    1    1    2    0  503 -0.60220436495E+02 -0.16106269698E+02 -0.47337269943E+01  0.62516566336E+02  0.00000000000E+00 0.  1.
<scales pt_clust_5="13000.00000" pt_clust_6="13000.00000" pt_clust_7="13000.00000" pt_clust_8="13000.00000" pt_clust_9="28.40600" pt_clust_10="13000.00000"></scales>
<clustering>
<clus scale="   28.406">  2  9  1 -1</clus>
<clus scale="   91.687">  5  6 -1 -1</clus>
<clus scale="   44.291">  5 10 -1 -1</clus>
<clus scale="   91.719">  7  8 -1 -1</clus>
<clus scale="   94.487">  1  7  2 -1</clus>
<clus scale="   28.406">  2  5  1 -1</clus>
</clustering>
</event>
<event>
10    2  0.4951045E-006  0.1630857E+03  0.7546771E-02  0.1201302E+00
         21   -1    0    0  503  502  0.00000000000E+00  0.00000000000E+00  0.45638408275E+03  0.45638408275E+03  0.00000000000E+00 0.  1.
          1   -1    0    0  502    0 -0.00000000000E+00 -0.00000000000E+00 -0.10773134625E+03  0.10773134625E+03  0.00000000000E+00 0. -1.
         23    2    1    2    0    0 -0.40200824872E+02 -0.37420727195E+02  0.13745686373E+03  0.17438669642E+03  0.92194974697E+02 0.  0.
         23    2    1    2    0    0  0.72285577442E+02  0.63100960383E+02 -0.22683675888E+02  0.13414601941E+03  0.90959713413E+02 0.  0.
        -13    1    3    3    0    0 -0.11510386117E+02  0.28965562486E+02  0.64619557846E+02  0.71743850293E+02  0.00000000000E+00 0. -1.
         13    1    3    3    0    0 -0.28690438755E+02 -0.66386289681E+02  0.72837305880E+02  0.10264284613E+03  0.00000000000E+00 0.  1.
        -13    1    4    4    0    0  0.72838290660E+02  0.26844159527E+02 -0.46757046727E+02  0.90621448375E+02  0.00000000000E+00 0. -1.
         13    1    4    4    0    0 -0.55271321730E+00  0.36256800856E+02  0.24073370839E+02  0.43524571035E+02  0.00000000000E+00 0.  1.
         21    1    1    2  503  501 -0.27600175094E+02  0.39706232294E+01  0.22132180106E+03  0.22307145748E+03  0.00000000000E+00 0.  1.
          1    1    1    2  501    0 -0.44845774761E+01 -0.29650856418E+02  0.12557747599E+02  0.32511255685E+02  0.00000000000E+00 0. -1.
<scales pt_clust_5="13000.00000" pt_clust_6="13000.00000" pt_clust_7="13000.00000" pt_clust_8="13000.00000" pt_clust_9="27.88432" pt_clust_10="13000.00000"></scales>
<clustering>
<clus scale="   27.884">  1  9  2 -1</clus>
<clus scale="   90.960">  7  8 -1 -1</clus>
<clus scale="   30.127">  7 10 -1 -1</clus>
<clus scale="   92.195">  5  6 -1 -1</clus>
<clus scale="  114.633">  2  5  1 -1</clus>
<clus scale="   27.884">  1  5  2 -1</clus>
</clustering>
</event>
<event>
10    2  0.4951045E-006  0.2014439E+03  0.7546771E-02  0.1181723E+00
         21   -1    0    0  501  502  0.00000000000E+00  0.00000000000E+00  0.35648155100E+03  0.35648155100E+03  0.00000000000E+00 0. -1.
          2   -1    0    0  503    0 -0.00000000000E+00 -0.00000000000E+00 -0.10946197389E+03  0.10946197389E+03  0.00000000000E+00 0. -1.
         23    2    1    2    0    0 -0.12235121326E+02 -0.28231358094E+01  0.20231841244E+03  0.22240207169E+03  0.91500126718E+02 0.  0.
         23    2    1    2    0    0 -0.48044937074E+02 -0.62102497009E+02 -0.24922394032E+02  0.12361499569E+03  0.92165640682E+02 0.  0.
        -13    1    4    4    0    0 -0.41492524837E+02 -0.40417959509E+02  0.29254592856E+02  0.64892775187E+02  0.00000000000E+00 0.  1.
         13    1    4    4    0    0 -0.65524122369E+01 -0.21684537500E+02 -0.54176986888E+02  0.58722220504E+02  0.00000000000E+00 0. -1.
        -13    1    3    3    0    0 -0.26813452418E+02  0.39262898852E+02  0.95900179844E+02  0.10703915616E+03  0.00000000000E+00 0.  1.
         13    1    3    3    0    0  0.14578331093E+02 -0.42086034661E+02  0.10641823259E+03  0.11536291553E+03  0.00000000000E+00 0. -1.
         21    1    1    2  503  502  0.30458742402E+01  0.30334441202E+02  0.26122498583E+02  0.40147734745E+02  0.00000000000E+00 0. -1.
          2    1    1    2  501    0  0.57234184159E+02  0.34591191616E+02  0.43501060119E+02  0.79778722760E+02  0.00000000000E+00 0. -1.
<scales pt_clust_5="13000.00000" pt_clust_6="13000.00000" pt_clust_7="13000.00000" pt_clust_8="13000.00000" pt_clust_9="30.48698" pt_clust_10="13000.00000"></scales>
<clustering>
<clus scale="   30.487">  1  9  2 -1</clus>
<clus scale="   91.500">  7  8 -1 -1</clus>
<clus scale="   92.166">  5  6 -1 -1</clus>
<clus scale="   70.517">  5 10 -1 -1</clus>
<clus scale="   93.645">  2  7  1 -1</clus>
<clus scale="   30.487">  1  5  2 -1</clus>
</clustering>
</event>
<event>
10    2  0.4951045E-006  0.1727581E+03  0.7546771E-02  0.1196914E+00
          2   -1    0    0  503    0 -0.00000000000E+00  0.00000000000E+00  0.50846241388E+03  0.50846241388E+03  0.00000000000E+00 0. -1.
         21   -1    0    0  501  502  0.00000000000E+00 -0.00000000000E+00 -0.28942707905E+03  0.28942707905E+03  0.00000000000E+00 0.  1.
         23    2    1    2    0    0  0.26118749375E+02  0.38359470143E+02  0.17336778757E+03  0.20192402541E+03  0.92538015172E+02 0.  0.
         23    2    1    2    0    0 -0.56159227663E+02 -0.50623048749E+02  0.28554569449E+03  0.30890240062E+03  0.90375868166E+02 0.  0.
        -11    1    3    3    0    0  0.16202560195E+02 -0.22110343884E+02  0.11160018489E+03  0.11491732476E+03  0.00000000000E+00 0.  1.
         11    1    3    3    0    0  0.99161891800E+01  0.60469814027E+02  0.61767602681E+02  0.87006700646E+02  0.00000000000E+00 0. -1.
        -13    1    4    4    0    0 -0.73661294270E+02 -0.35488589743E+02  0.26703053300E+03  0.27926820770E+03  0.00000000000E+00 0.  1.
         13    1    4    4    0    0  0.17502066606E+02 -0.15134459005E+02  0.18515161491E+02  0.29634192918E+02  0.00000000000E+00 0. -1.
         21    1    1    2  503  502  0.42296117283E+02 -0.19561576274E+02 -0.24772380930E+03  0.25206884476E+03  0.00000000000E+00 0.  1.
          2    1    1    2  501    0 -0.12255638995E+02  0.31825154881E+02  0.78456620689E+01  0.34994222147E+02  0.00000000000E+00 0. -1.
<scales pt_clust_5="13000.00000" pt_clust_6="13000.00000" pt_clust_7="13000.00000" pt_clust_8="13000.00000" pt_clust_9="46.60061" pt_clust_10="13000.00000"></scales>
<clustering>
<clus scale="   46.601">  2  9  1 -1</clus>
<clus scale="   90.376">  7  8 -1 -1</clus>
<clus scale="   25.210">  7 10 -1 -1</clus>
<clus scale="   92.538">  5  6 -1 -1</clus>
<clus scale="  106.095">  1  5  2 -1</clus>
<clus scale="   46.601">  2  5  1 -1</clus>
</clustering>
</event>
<event>
10    2  0.4951045E-006  0.5824505E+03  0.7546771E-02  0.1054995E+00
          1   -1    0    0  502    0 -0.00000000000E+00  0.00000000000E+00  0.13583630210E+04  0.13583630210E+04  0.00000000000E+00 0. -1.
         21   -1    0    0  503  502  0.00000000000E+00 -0.00000000000E+00 -0.21223006150E+03  0.21223006150E+03  0.00000000000E+00 0. -1.
         23    2    1    2    0    0  0.21190383894E+02 -0.20854167827E+02  0.24950343053E+03  0.26663833494E+03  0.89219454860E+02 0.  0.
         23    2    1    2    0    0  0.78910910736E+02 -0.17906913598E+03  0.10232820722E+04  0.10458135322E+04  0.91252713051E+02 0.  0.
        -11    1    3    3    0    0  0.42555743465E+02  0.86005496615E+01  0.62328298582E+02  0.75959051867E+02  0.00000000000E+00 0.  1.
         11    1    3    3    0    0 -0.21365359571E+02 -0.29454717488E+02  0.18717513195E+03  0.19067928307E+03  0.00000000000E+00 0. -1.
        -13    1    4    4    0    0  0.18704868253E+02 -0.25396803761E+02  0.53648079387E+02  0.62233320332E+02  0.00000000000E+00 0.  1.
         13    1    4    4    0    0  0.60206042483E+02 -0.15367233222E+03  0.96963399278E+03  0.98358021188E+03  0.00000000000E+00 0. -1.
         21    1    1    2  503  501 -0.74300687327E+02  0.13682501951E+03 -0.76274029456E+02  0.17337648535E+03  0.00000000000E+00 0. -1.
          1    1    1    2  501    0 -0.25800607303E+02  0.63098284289E+02 -0.50378513699E+02  0.84764730047E+02  0.00000000000E+00 0. -1.
<scales pt_clust_5="13000.00000" pt_clust_6="13000.00000" pt_clust_7="13000.00000" pt_clust_8="13000.00000" pt_clust_9="154.44299" pt_clust_10="13000.00000"></scales>
<clustering>
<clus scale="   89.219">  5  6 -1 -1</clus>
<clus scale="   91.253">  7  8 -1 -1</clus>
<clus scale="   68.169">  7 10 -1 -1</clus>
<clus scale="   94.043">  1  5  2 -1</clus>
<clus scale="  154.443">  2  9  1 -1</clus>
<clus scale="  154.443">  2  5  1 -1</clus>
</clustering>
</event>
<event>
10    2  0.4951045E-006  0.2953783E+03  0.7546771E-02  0.1122438E+00
         -1   -1    0    0    0  501 -0.00000000000E+00  0.00000000000E+00  0.56381524295E+03  0.56381524295E+03  0.00000000000E+00 0.  1.
         21   -1    0    0  503  502  0.00000000000E+00 -0.00000000000E+00 -0.62039700888E+03  0.62039700888E+03  0.00000000000E+00 0. -1.
         23    2    1    2    0    0  0.67690432758E+02  0.27751031131E+02  0.38313994177E+03  0.40090047339E+03  0.92589741160E+02 0.  0.
         23    2    1    2    0    0 -0.71864348178E+02 -0.21016646927E+02  0.13487551224E+03  0.17935733292E+03  0.91495710731E+02 0.  0.
        -11    1    3    3    0    0  0.85997347339E+02  0.39979898984E+02  0.28664698415E+03  0.30192785494E+03  0.00000000000E+00 0. -1.
         11    1    3    3    0    0 -0.18306914582E+02 -0.12228867853E+02  0.96492957624E+02  0.98972618444E+02  0.00000000000E+00 0.  1.
        -13    1    4    4    0    0 -0.33802518104E+02 -0.48994231679E+02  0.35448928155E+02  0.69279661339E+02  0.00000000000E+00 0. -1.
         13    1    4    4    0    0 -0.38061830074E+02  0.27977584752E+02  0.99426584085E+02  0.11007767158E+03  0.00000000000E+00 0.  1.
         21    1    1    2  503  501  0.80738208442E+02 -0.50018113701E+01 -0.45360514227E+03  0.46076165369E+03  0.00000000000E+00 0. -1.
         -1    1    1    2    0  502 -0.76564293022E+02 -0.17325728333E+01 -0.12099207767E+03  0.14319279183E+03  0.00000000000E+00 0.  1.
<scales pt_clust_5="13000.00000" pt_clust_6="13000.00000" pt_clust_7="13000.00000" pt_clust_8="13000.00000" pt_clust_9="80.89299" pt_clust_10="13000.00000"></scales>
<clustering>
<clus scale="   80.893">  2  9  1 -1</clus>
<clus scale="   91.496">  7  8 -1 -1</clus>
<clus scale="   12.623">  7 10 -1 -1</clus>
<clus scale="   92.590">  5  6 -1 -1</clus>
<clus scale="  120.515">  1  5  2 -1</clus>
<clus scale="   80.893">  2  5  1 -1</clus>
</clustering>
</event>
<event>
10    2  0.4951045E-006  0.3110358E+03  0.7546771E-02  0.1104626E+00
          1   -1    0    0  503    0 -0.00000000000E+00  0.00000000000E+00  0.89574086169E+03  0.89574086169E+03  0.00000000000E+00 0. -1.
         21   -1    0    0  501  502  0.00000000000E+00 -0.00000000000E+00 -0.91455624078E+02  0.91455624078E+02  0.00000000000E+00 0. -1.
         23    2    1    2    0    0 -0.98640880087E+02 -0.76381139050E+02  0.31003365618E+03  0.34619844022E+03  0.90379148131E+02 0.  0.
         23    2    1    2    0    0  0.67624989595E+01  0.15259464586E+03  0.37492215283E+03  0.41881368207E+03  0.10727265388E+03 0.  0.
        -11    1    3    3    0    0 -0.90942268343E+02 -0.24775383313E+02  0.14354309289E+03  0.17172342678E+03  0.00000000000E+00 0. -1.
         11    1    3    3    0    0 -0.76986117448E+01 -0.51605755737E+02  0.16649056329E+03  0.17447501343E+03  0.00000000000E+00 0.  1.
        -11    1    4    4    0    0 -0.27786989151E+02 -0.10038232524E+01  0.76726001760E+02  0.81608846171E+02  0.00000000000E+00 0.  1.
         11    1    4    4    0    0  0.34549488110E+02  0.15359846911E+03  0.29819615107E+03  0.33720483590E+03  0.00000000000E+00 0. -1.
         21    1    1    2  503  502 -0.23622561060E+02 -0.26277251386E+02 -0.14764514086E+02  0.38295041555E+02  0.00000000000E+00 0.  1.
          1    1    1    2  501    0  0.11550094219E+03 -0.49936255424E+02  0.13409394269E+03  0.18388932193E+03  0.00000000000E+00 0. -1.
<scales pt_clust_5="13000.00000" pt_clust_6="13000.00000" pt_clust_7="13000.00000" pt_clust_8="13000.00000" pt_clust_9="35.33439" pt_clust_10="13000.00000"></scales>
<clustering>
<clus scale="   35.334">  2  9  1 -1</clus>
<clus scale="   90.379">  5  6 -1 -1</clus>
<clus scale="  107.273">  7  8 -1 -1</clus>
<clus scale="  122.195">  7 10 -1 -1</clus>
<clus scale="  162.004">  1  5  2 -1</clus>
<clus scale="   35.334">  2  5  1 -1</clus>
</clustering>
</event>
<event>
10    2  0.4951045E-006  0.2072216E+03  0.7546771E-02  0.1174002E+00
         21   -1    0    0  503  502  0.00000000000E+00  0.00000000000E+00  0.26477041410E+03  0.26477041410E+03  0.00000000000E+00 0. -1.
          3   -1    0    0  502    0 -0.00000000000E+00 -0.00000000000E+00 -0.36695382075E+03  0.36695382075E+03  0.00000000000E+00 0. -1.
         23    2    1    2    0    0 -0.20320007921E+02 -0.39983313992E+02 -0.15410884560E+03  0.18401541621E+03  0.90003161013E+02 0.  0.
         23    2    1    2    0    0 -0.19721526565E+02 -0.38414603916E+02 -0.82578351915E+02  0.13155690669E+03  0.92862344831E+02 0.  0.
        -11    1    4    4    0    0  0.94669677705E+01 -0.58095460627E+02 -0.75355440651E+02  0.95619812068E+02  0.00000000000E+00 0. -1.
         11    1    4    4    0    0 -0.29188494335E+02  0.19680856711E+02 -0.72229112639E+01  0.35937094617E+02  0.00000000000E+00 0.  1.
        -13    1    3    3    0    0 -0.13387643814E+02  0.26370074364E+02 -0.25150403143E+02  0.38822063406E+02  0.00000000000E+00 0.  1.
         13    1    3    3    0    0 -0.69323641078E+01 -0.66353388356E+02 -0.12895844246E+03  0.14519335281E+03  0.00000000000E+00 0. -1.
         21    1    1    2  503  501  0.92743687512E+01 -0.25330436697E+02  0.19182369694E+03  0.19371106228E+03  0.00000000000E+00 0. -1.
          3    1    1    2  501    0  0.30767165735E+02  0.10372835461E+03 -0.57319906079E+02  0.12244084968E+03  0.00000000000E+00 0. -1.
<scales pt_clust_5="13000.00000" pt_clust_6="13000.00000" pt_clust_7="13000.00000" pt_clust_8="13000.00000" pt_clust_9="26.97489" pt_clust_10="13000.00000"></scales>
<clustering>
<clus scale="   26.975">  1  9  2 -1</clus>
<clus scale="   90.003">  7  8 -1 -1</clus>
<clus scale="   92.862">  5  6 -1 -1</clus>
<clus scale="   98.675">  5 10 -1 -1</clus>
<clus scale="  102.401">  2  7  1 -1</clus>
<clus scale="   26.975">  1  5  2 -1</clus>
</clustering>
</event>
<event>
10    2  0.4951045E-006  0.2376643E+03  0.7546771E-02  0.1163815E+00
         21   -1    0    0  503  502  0.00000000000E+00  0.00000000000E+00  0.78664521903E+02  0.78664521903E+02  0.00000000000E+00 0.  1.
          2   -1    0    0  502    0 -0.00000000000E+00 -0.00000000000E+00 -0.54699709448E+03  0.54699709448E+03  0.00000000000E+00 0. -1.
         23    2    1    2    0    0 -0.14639515317E+02 -0.15533852371E+02 -0.68289619068E+02  0.11020548408E+03  0.83822196761E+02 0.  0.
         23    2    1    2    0    0  0.14442685423E+02  0.15193241553E+02 -0.43961091074E+03  0.44939116702E+03  0.90858364532E+02 0.  0.
        -11    1    4    4    0    0  0.38640489585E+02  0.41276357159E+02 -0.23470194552E+03  0.24141629672E+03  0.00000000000E+00 0. -1.
         11    1    4    4    0    0 -0.24197804162E+02 -0.26083115607E+02 -0.20490896522E+03  0.20797487030E+03  0.00000000000E+00 0.  1.
        -11    1    3    3    0    0 -0.33194210705E+02 -0.42370166237E+02 -0.40756151444E+02  0.67514076249E+02  0.00000000000E+00 0.  1.
         11    1    3    3    0    0  0.18554695388E+02  0.26836313866E+02 -0.27533467624E+02  0.42691407827E+02  0.00000000000E+00 0. -1.
         21    1    1    2  503  501  0.26074972021E+02 -0.48181431166E+01  0.19587415066E+02  0.32966429864E+02  0.00000000000E+00 0.  1.
          2    1    1    2  501    0 -0.25878142127E+02  0.51587539344E+01  0.19980542161E+02  0.33098535423E+02  0.00000000000E+00 0. -1.
<scales pt_clust_5="13000.00000" pt_clust_6="13000.00000" pt_clust_7="13000.00000" pt_clust_8="13000.00000" pt_clust_9="26.51638" pt_clust_10="13000.00000"></scales>
<clustering>
<clus scale="   26.516">  1  9  2 -1</clus>
<clus scale="   83.822">  7  8 -1 -1</clus>
<clus scale="   85.725">  2  7  1 -1</clus>
<clus scale="   90.858">  5  6 -1 -1</clus>
<clus scale="   12.966">  5 10 -1 -1</clus>
<clus scale="   26.516">  1  5  2 -1</clus>
</clustering>
</event>
<event>
10    2  0.4951045E-006  0.2800719E+03  0.7546771E-02  0.1133258E+00
         21   -1    0    0  503  502  0.00000000000E+00  0.00000000000E+00  0.22874192763E+03  0.22874192763E+03  0.00000000000E+00 0. -1.
          2   -1    0    0  502    0 -0.00000000000E+00 -0.00000000000E+00 -0.52238246541E+03  0.52238246541E+03  0.00000000000E+00 0. -1.
         23    2    1    2    0    0  0.46877867792E+02  0.37234240797E+02 -0.31010155367E+03  0.32879411567E+03  0.91425782651E+02 0.  0.
         23    2    1    2    0    0 -0.99950155080E+01  0.79153156232E+02 -0.15533292389E+03  0.19736149260E+03  0.91968032696E+02 0.  0.
        -13    1    3    3    0    0 -0.57280364189E+01  0.53317099654E+02 -0.17098290594E+03  0.17919452459E+03  0.00000000000E+00 0. -1.
         13    1    3    3    0    0  0.52605904211E+02 -0.16082858856E+02 -0.13911864773E+03  0.14959959108E+03  0.00000000000E+00 0.  1.
        -13    1    4    4    0    0  0.25703571335E+02  0.81839934598E+02 -0.10475568502E+03  0.13539646236E+03  0.00000000000E+00 0. -1.
         13    1    4    4    0    0 -0.35698586843E+02 -0.26867783665E+01 -0.50577238870E+02  0.61965030238E+02  0.00000000000E+00 0.  1.
         21    1    1    2  503  501  0.91856944443E+01 -0.48702759474E+02  0.11528299435E+03  0.12548507700E+03  0.00000000000E+00 0. -1.
          2    1    1    2  501    0 -0.46068546729E+02 -0.67684637556E+02  0.56510945432E+02  0.99483707773E+02  0.00000000000E+00 0. -1.
<scales pt_clust_5="13000.00000" pt_clust_6="13000.00000" pt_clust_7="13000.00000" pt_clust_8="13000.00000" pt_clust_9="49.56143" pt_clust_10="13000.00000"></scales>
<clustering>
<clus scale="   49.561">  1  9  2 -1</clus>
<clus scale="   91.426">  5  6 -1 -1</clus>
<clus scale="   91.968">  7  8 -1 -1</clus>
<clus scale="  108.270">  2  5  1 -1</clus>
<clus scale="   99.827">  7 10 -1 -1</clus>
<clus scale="   49.561">  1  5  2 -1</clus>
</clustering>
</event>
<event>
10    2  0.4951045E-006  0.3939059E+03  0.7546771E-02  0.1074044E+00
         21   -1    0    0  503  502  0.00000000000E+00  0.00000000000E+00  0.26040441576E+03  0.26040441576E+03  0.00000000000E+00 0.  1.
         -4   -1    0    0    0  501 -0.00000000000E+00 -0.00000000000E+00 -0.48303317643E+03  0.48303317643E+03  0.00000000000E+00 0. -1.
         23    2    1    2    0    0  0.59690324313E+01  0.17297542366E+03 -0.30252423537E+02  0.19809145713E+03  0.91481635960E+02 0.  0.
         23    2    1    2    0    0 -0.66606639307E+02 -0.46971403011E+02  0.49040935740E+02  0.13343589555E+03  0.93580808628E+02 0.  0.
        -13    1    4    4    0    0  0.17104255712E+02 -0.30062957778E+02 -0.71849706192E+00  0.34595566650E+02  0.00000000000E+00 0. -1.
         13    1    4    4    0    0 -0.83710895019E+02 -0.16908445234E+02  0.49759432802E+02  0.98840328904E+02  0.00000000000E+00 0.  1.
        -13    1    3    3    0    0  0.22817167170E+02  0.38064488728E+02 -0.42672052102E+02  0.61566488047E+02  0.00000000000E+00 0. -1.
         13    1    3    3    0    0 -0.16848134739E+02  0.13491093493E+03  0.12419628565E+02  0.13652496908E+03  0.00000000000E+00 0.  1.
         21    1    1    2  503  501 -0.38846139788E+02 -0.43286997003E+02  0.60205024691E+02  0.83710403678E+02  0.00000000000E+00 0. -1.
         -4    1    1    2    0  502  0.99483746664E+02 -0.82717023647E+02 -0.30162229757E+03  0.32819983583E+03  0.00000000000E+00 0. -1.
<scales pt_clust_5="13000.00000" pt_clust_6="13000.00000" pt_clust_7="13000.00000" pt_clust_8="13000.00000" pt_clust_9="58.16173" pt_clust_10="13000.00000"></scales>
<clustering>
<clus scale="   58.162">  1  9  2 -1</clus>
<clus scale="   91.482">  7  8 -1 -1</clus>
<clus scale="   93.581">  5  6 -1 -1</clus>
<clus scale="  129.290">  5 10 -1 -1</clus>
<clus scale="  179.222">  2  7  1 -1</clus>
<clus scale="   58.162">  1  5  2 -1</clus>
</clustering>
</event>
<event>
10    2  0.4951045E-006  0.2755496E+03  0.7546771E-02  0.1139430E+00
          4   -1    0    0  503    0 -0.00000000000E+00  0.00000000000E+00  0.29396505516E+03  0.29396505516E+03  0.00000000000E+00 0. -1.
         21   -1    0    0  501  502  0.00000000000E+00 -0.00000000000E+00 -0.36241674139E+03  0.36241674139E+03  0.00000000000E+00 0. -1.
         23    2    1    2    0    0 -0.77356257150E+01 -0.10650475536E+02 -0.42807137452E+02  0.10681876749E+03  0.96976933016E+02 0.  0.
         23    2    1    2    0    0 -0.17554844538E+02 -0.10055077627E+02  0.13095484333E+03  0.16068010390E+03  0.90882603643E+02 0.  0.
        -11    1    3    3    0    0 -0.27969164218E+02  0.31053572249E+02  0.26757511811E+01  0.41877895612E+02  0.00000000000E+00 0.  1.
         11    1    3    3    0    0  0.20233538503E+02 -0.41704047785E+02 -0.45482888633E+02  0.64940871879E+02  0.00000000000E+00 0. -1.
        -11    1    4    4    0    0  0.23337082156E+01  0.30819817054E+02  0.11687715820E+02  0.33044061772E+02  0.00000000000E+00 0. -1.
         11    1    4    4    0    0 -0.19888552754E+02 -0.40874894681E+02  0.11926712751E+03  0.12763604213E+03  0.00000000000E+00 0.  1.
         21    1    1    2  503  502  0.17085297016E+03  0.35991804163E+01 -0.17082541949E+03  0.24162991424E+03  0.00000000000E+00 0. -1.
          4    1    1    2  501    0 -0.14556249991E+03  0.17106372747E+02  0.14226027392E+02  0.14725301092E+03  0.00000000000E+00 0. -1.
<scales pt_clust_5="13000.00000" pt_clust_6="13000.00000" pt_clust_7="13000.00000" pt_clust_8="13000.00000" pt_clust_9="169.82128" pt_clust_10="13000.00000"></scales>
<clustering>
<clus scale="   90.883">  7  8 -1 -1</clus>
<clus scale="   96.977">  5  6 -1 -1</clus>
<clus scale="   97.866">  1  5  2 -1</clus>
<clus scale="  148.591">  7 10 -1 -1</clus>
<clus scale="  169.821">  2  9  1 -1</clus>
<clus scale="  169.821">  2  5  1 -1</clus>
</clustering>
</event>
<event>
10    2  0.4951045E-006  0.3620298E+03  0.7546771E-02  0.1107499E+00
         -3   -1    0    0    0  501 -0.00000000000E+00  0.00000000000E+00  0.16655350666E+03  0.16655350666E+03  0.00000000000E+00 0.  1.
         21   -1    0    0  503  502  0.00000000000E+00 -0.00000000000E+00 -0.46509263408E+03  0.46509263408E+03  0.00000000000E+00 0.  1.
         23    2    1    2    0    0 -0.95983760007E+00  0.29271516168E+02  0.23975074917E+02  0.99044708978E+02  0.91527630868E+02 0.  0.
         23    2    1    2    0    0 -0.32920440686E+02  0.59431628765E+02  0.64936944273E+02  0.13276095873E+03  0.93769885989E+02 0.  0.
        -11    1    3    3    0    0 -0.40679353704E+02  0.13708334133E+02  0.34538460988E+02  0.55096583650E+02  0.00000000000E+00 0.  1.
         11    1    3    3    0    0  0.39719516104E+02  0.15563182035E+02 -0.10563386071E+02  0.43948125328E+02  0.00000000000E+00 0. -1.
        -11    1    4    4    0    0  0.19018960232E+02  0.56135698186E+02  0.52669818465E+02  0.79290902607E+02  0.00000000000E+00 0. -1.
         11    1    4    4    0    0 -0.51939400917E+02  0.32959305793E+01  0.12267125808E+02  0.53470056121E+02  0.00000000000E+00 0.  1.
         21    1    1    2  503  501 -0.16475907758E+01 -0.21244126672E+02 -0.11323731776E+03  0.11522463976E+03  0.00000000000E+00 0. -1.
         -3    1    1    2    0  502  0.35527869061E+02 -0.67459018261E+02 -0.27421382884E+03  0.28461583328E+03  0.00000000000E+00 0.  1.
<scales pt_clust_5="13000.00000" pt_clust_6="13000.00000" pt_clust_7="13000.00000" pt_clust_8="13000.00000" pt_clust_9="21.30792" pt_clust_10="13000.00000"></scales>
<clustering>
<clus scale="   21.308">  2  9  1 -1</clus>
<clus scale="   91.528">  5  6 -1 -1</clus>
<clus scale="   93.770">  7  8 -1 -1</clus>
<clus scale="   91.051">  7 10 -1 -1</clus>
<clus scale="   95.433">  1  5  2 -1</clus>
<clus scale="   21.308">  2  5  1 -1</clus>
</clustering>
</event>
<event>
10    2  0.4951045E-006  0.1522819E+03  0.7546771E-02  0.1215819E+00
         21   -1    0    0  503  502  0.00000000000E+00  0.00000000000E+00  0.31994865472E+03  0.31994865472E+03  0.00000000000E+00 0. -1.
         -1   -1    0    0    0  501 -0.00000000000E+00 -0.00000000000E+00 -0.26416748689E+03  0.26416748689E+03  0.00000000000E+00 0.  1.
         23    2    1    2    0    0  0.44993249174E+02  0.14976315494E+02 -0.21346534574E+03  0.23736767360E+03  0.92343251736E+02 0.  0.
         23    2    1    2    0    0 -0.23343904576E+02  0.16794140756E+01  0.51463764582E+02  0.11391084103E+03  0.98890860680E+02 0.  0.
        -11    1    4    4    0    0 -0.31424017662E+02 -0.33213168565E+02  0.61575372527E+02  0.76694914785E+02  0.00000000000E+00 0.  1.
         11    1    4    4    0    0  0.80801130859E+01  0.34892582641E+02 -0.10111607944E+02  0.37215926242E+02  0.00000000000E+00 0. -1.
        -13    1    3    3    0    0 -0.97369731813E+01 -0.30164271614E+02 -0.50408718683E+02  0.59546039734E+02  0.00000000000E+00 0.  1.
         13    1    3    3    0    0  0.54730222356E+02  0.45140587108E+02 -0.16305662706E+03  0.17782163387E+03  0.00000000000E+00 0. -1.
         21    1    1    2  503  501 -0.28255365846E+02  0.22382741560E+02  0.15061772576E+03  0.15487108229E+03  0.00000000000E+00 0. -1.
         -1    1    1    2    0  502  0.66060212477E+01 -0.39038471130E+02  0.67165023236E+02  0.77966544692E+02  0.00000000000E+00 0.  1.
<scales pt_clust_5="13000.00000" pt_clust_6="13000.00000" pt_clust_7="13000.00000" pt_clust_8="13000.00000" pt_clust_9="36.04654" pt_clust_10="13000.00000"></scales>
<clustering>
<clus scale="   36.047">  1  9  2 -1</clus>
<clus scale="   92.343">  7  8 -1 -1</clus>
<clus scale="   98.891">  5  6 -1 -1</clus>
<clus scale="   29.865">  5 10 -1 -1</clus>
<clus scale="  103.193">  2  7  1 -1</clus>
<clus scale="   36.047">  1  5  2 -1</clus>
</clustering>
</event>
<event>
10    2  0.4951045E-006  0.2236998E+03  0.7546771E-02  0.1162909E+00
         21   -1    0    0  501  502  0.00000000000E+00  0.00000000000E+00  0.16230429677E+03  0.16230429677E+03  0.00000000000E+00 0. -1.
          2   -1    0    0  503    0 -0.00000000000E+00 -0.00000000000E+00 -0.92268565892E+03  0.92268565892E+03  0.00000000000E+00 0. -1.
         23    2    1    2    0    0 -0.48234250775E+02 -0.14749546334E+01 -0.49849303529E+03  0.50938976292E+03  0.93026372033E+02 0.  0.
         23    2    1    2    0    0  0.60781261019E+02  0.43915026720E+02 -0.40410101308E+03  0.42088709249E+03  0.90694126551E+02 0.  0.
        -11    1    3    3    0    0  0.24490053747E+02 -0.88432841223E+01 -0.69572729649E+02  0.74285470432E+02  0.00000000000E+00 0.  1.
         11    1    3    3    0    0 -0.72724304522E+02  0.73683294889E+01 -0.42892030564E+03  0.43510429248E+03  0.00000000000E+00 0. -1.
        -13    1    4    4    0    0  0.51657175210E+02  0.70864994186E+02 -0.33168601123E+03  0.34308296547E+03  0.00000000000E+00 0. -1.
         13    1    4    4    0    0  0.91240858087E+01 -0.26949967466E+02 -0.72415001849E+02  0.77804127018E+02  0.00000000000E+00 0.  1.
         21    1    1    2  503  502 -0.84430967732E+00 -0.24986243405E+02  0.12521136331E+03  0.12768285209E+03  0.00000000000E+00 0. -1.
          2    1    1    2  501    0 -0.11702700566E+02 -0.17453828682E+02  0.17001322914E+02  0.27030248187E+02  0.00000000000E+00 0. -1.
<scales pt_clust_5="13000.00000" pt_clust_6="13000.00000" pt_clust_7="13000.00000" pt_clust_8="13000.00000" pt_clust_9="25.00050" pt_clust_10="13000.00000"></scales>
<clustering>
<clus scale="   25.001">  1  9  2 -1</clus>
<clus scale="   90.694">  7  8 -1 -1</clus>
<clus scale="   34.998">  7 10 -1 -1</clus>
<clus scale="   93.026">  5  6 -1 -1</clus>
<clus scale="  104.979">  2  5  1 -1</clus>
<clus scale="   25.001">  1  5  2 -1</clus>
</clustering>
</event>
<event>
10    2  0.4951045E-006  0.9076019E+03  0.7546771E-02  0.1000536E+00
          2   -1    0    0  503    0 -0.00000000000E+00  0.00000000000E+00  0.14964727091E+04  0.14964727091E+04  0.00000000000E+00 0. -1.
         21   -1    0    0  501  502  0.00000000000E+00 -0.00000000000E+00 -0.39554480453E+03  0.39554480453E+03  0.00000000000E+00 0. -1.
         23    2    1    2    0    0 -0.38276536958E+02  0.76419722667E+02  0.41480569761E+03  0.43356058668E+03  0.92768250285E+02 0.  0.
         23    2    1    2    0    0 -0.12658782429E+03 -0.20181581739E+03  0.84721419234E+03  0.88498010387E+03  0.93079509792E+02 0.  0.
        -11    1    3    3    0    0 -0.59260519544E+02  0.15549511477E+02  0.22131199543E+03  0.22963578947E+03  0.00000000000E+00 0. -1.
         11    1    3    3    0    0  0.20983982585E+02  0.60870211189E+02  0.19349370217E+03  0.20392479721E+03  0.00000000000E+00 0.  1.
        -13    1    4    4    0    0 -0.81546827867E+02 -0.16692971636E+03  0.50570120579E+03  0.53874773770E+03  0.00000000000E+00 0. -1.
         13    1    4    4    0    0 -0.45040996425E+02 -0.34886101025E+02  0.34151298655E+03  0.34623236617E+03  0.00000000000E+00 0.  1.
         21    1    1    2  503  502  0.22775803474E+03 -0.14683019098E+03 -0.80434588383E+02  0.28267039177E+03  0.00000000000E+00 0. -1.
          2    1    1    2  501    0 -0.62893673493E+02  0.27222628570E+03 -0.80657397005E+02  0.29080643130E+03  0.00000000000E+00 0. -1.
<scales pt_clust_5="13000.00000" pt_clust_6="13000.00000" pt_clust_7="13000.00000" pt_clust_8="13000.00000" pt_clust_9="264.07830" pt_clust_10="13000.00000"></scales>
<clustering>
<clus scale="   92.768">  5  6 -1 -1</clus>
<clus scale="   93.080">  7  8 -1 -1</clus>
<clus scale="  126.139">  1  5  2 -1</clus>
<clus scale="  264.078">  2  9  1 -1</clus>
<clus scale="  204.544">  7 10 -1 -1</clus>
<clus scale="  264.078">  2  5  1 -1</clus>
</clustering>
</event>
<event>
10    2  0.4951045E-006  0.3350822E+03  0.7546771E-02  0.1099758E+00
         21   -1    0    0  501  502  0.00000000000E+00  0.00000000000E+00  0.10762035639E+04  0.10762035639E+04  0.00000000000E+00 0. -1.
          1   -1    0    0  503    0 -0.00000000000E+00 -0.00000000000E+00 -0.24984516938E+03  0.24984516938E+03  0.00000000000E+00 0. -1.
         23    2    1    2    0    0 -0.11202174327E+03  0.28121263333E+02  0.49554379710E+02  0.15506659843E+03  0.90831365636E+02 0.  0.
         23    2    1    2    0    0 -0.38611140147E+02 -0.25371616079E+02 -0.20634026660E+02  0.10547931917E+03  0.92550443925E+02 0.  0.
        -11    1    3    3    0    0 -0.29847926324E+02 -0.28371833726E+02  0.35483064123E+02  0.54359060830E+02  0.00000000000E+00 0.  1.
         11    1    3    3    0    0 -0.82173816947E+02  0.56493097060E+02  0.14071315587E+02  0.10070753760E+03  0.00000000000E+00 0. -1.
        -11    1    4    4    0    0 -0.68008653685E+02 -0.21852144443E+02 -0.40597647641E+01  0.71548409366E+02  0.00000000000E+00 0.  1.
         11    1    4    4    0    0  0.29397513539E+02 -0.35194716361E+01 -0.16574261896E+02  0.33930909806E+02  0.00000000000E+00 0. -1.
         21    1    1    2  503  502 -0.90901137064E+02  0.14533083262E+03  0.76075035079E+03  0.77982380309E+03  0.00000000000E+00 0. -1.
          1    1    1    2  501    0  0.24153402048E+03 -0.14808047987E+03  0.36687690630E+02  0.28567901255E+03  0.00000000000E+00 0. -1.
<scales pt_clust_5="13000.00000" pt_clust_6="13000.00000" pt_clust_7="13000.00000" pt_clust_8="13000.00000" pt_clust_9="175.48866" pt_clust_10="13000.00000"></scales>
<clustering>
<clus scale="   90.831">  5  6 -1 -1</clus>
<clus scale="   92.550">  7  8 -1 -1</clus>
<clus scale="  146.935">  2  5  1 -1</clus>
<clus scale="  175.489">  1  9  2 -1</clus>
<clus scale="  127.715">  7 10 -1 -1</clus>
<clus scale="  175.489">  1  5  2 -1</clus>
</clustering>
</event>
<event>
10    2  0.4951045E-006  0.2362115E+03  0.7546771E-02  0.1127695E+00
          2   -1    0    0  502    0 -0.00000000000E+00  0.00000000000E+00  0.23836073707E+03  0.23836073707E+03  0.00000000000E+00 0. -1.
         21   -1    0    0  503  502  0.00000000000E+00 -0.00000000000E+00 -0.32035532081E+03  0.32035532081E+03  0.00000000000E+00 0.  1.
         23    2    1    2    0    0 -0.12710242764E+03 -0.12621728514E+03 -0.15816914450E+03  0.25614190110E+03  0.92224536050E+02 0.  0.
         23    2    1    2    0    0  0.16255314432E+03  0.83117170440E+02  0.89644215798E+02  0.22455917541E+03  0.95177461011E+02 0.  0.
        -11    1    4    4    0    0  0.11984752197E+03  0.10361170568E+03  0.66111218316E+02  0.17166684964E+03  0.00000000000E+00 0. -1.
         11    1    4    4    0    0  0.42705622352E+02 -0.20494535244E+02  0.23532997482E+02  0.52892325774E+02  0.00000000000E+00 0.  1.
        -11    1    3    3    0    0 -0.51150419665E+02 -0.11309626193E+03 -0.10397367587E+03  0.16191866838E+03  0.00000000000E+00 0. -1.
         11    1    3    3    0    0 -0.75952007971E+02 -0.13121023203E+02 -0.54195468623E+02  0.94223232718E+02  0.00000000000E+00 0.  1.
         21    1    1    2  503  501 -0.23050145249E+02  0.13280407286E+02 -0.31337622308E+02  0.41106264554E+02  0.00000000000E+00 0.  1.
          2    1    1    2  501    0 -0.12400571440E+02  0.29819707411E+02  0.17867967268E+02  0.36908716808E+02  0.00000000000E+00 0. -1.
<scales pt_clust_5="13000.00000" pt_clust_6="13000.00000" pt_clust_7="13000.00000" pt_clust_8="13000.00000" pt_clust_9="26.60223" pt_clust_10="13000.00000"></scales>
<clustering>
<clus scale="   26.602">  2  9  1 -1</clus>
<clus scale="   92.225">  7  8 -1 -1</clus>
<clus scale="   95.177">  5  6 -1 -1</clus>
<clus scale="   33.007">  5 10 -1 -1</clus>
<clus scale="  206.870">  1  7  2 -1</clus>
<clus scale="   26.602">  2  5  1 -1</clus>
</clustering>
</event>
<event>
10    2  0.4951045E-006  0.2853630E+03  0.7546771E-02  0.1106426E+00
          2   -1    0    0  503    0 -0.00000000000E+00  0.00000000000E+00  0.65580749913E+03  0.65580749913E+03  0.00000000000E+00 0. -1.
         21   -1    0    0  501  502  0.00000000000E+00 -0.00000000000E+00 -0.17786948517E+03  0.17786948517E+03  0.00000000000E+00 0. -1.
         23    2    1    2    0    0 -0.29826040314E+02  0.18023625028E+03  0.53173579563E+02  0.21084624216E+03  0.90851580467E+02 0.  0.
         23    2    1    2    0    0  0.10709611024E+03 -0.12825243814E+03  0.22419328076E+03  0.29984682569E+03  0.10829232207E+03 0.  0.
        -11    1    3    3    0    0 -0.10442557364E+02  0.16454240096E+03  0.15412377920E+02  0.16559224049E+03  0.00000000000E+00 0. -1.
         11    1    3    3    0    0 -0.19383482950E+02  0.15693849327E+02  0.37761201643E+02  0.45254001674E+02  0.00000000000E+00 0.  1.
        -13    1    4    4    0    0  0.27693419741E+02 -0.85483311089E+02  0.47908681073E+02  0.10183105466E+03  0.00000000000E+00 0.  1.
         13    1    4    4    0    0  0.79402690501E+02 -0.42769127047E+02  0.17628459969E+03  0.19801577102E+03  0.00000000000E+00 0. -1.
         21    1    1    2  503  502 -0.47776170574E+02 -0.19081433013E+02 -0.48092972345E+02  0.70424410182E+02  0.00000000000E+00 0. -1.
          2    1    1    2  501    0 -0.29493899355E+02 -0.32902379135E+02  0.24866412598E+03  0.25255950626E+03  0.00000000000E+00 0. -1.
<scales pt_clust_5="13000.00000" pt_clust_6="13000.00000" pt_clust_7="13000.00000" pt_clust_8="13000.00000" pt_clust_9="51.44573" pt_clust_10="13000.00000"></scales>
<clustering>
<clus scale="   51.446">  2  9  1 -1</clus>
<clus scale="   90.852">  5  6 -1 -1</clus>
<clus scale="  108.292">  7  8 -1 -1</clus>
<clus scale="   44.945">  7 10 -1 -1</clus>
<clus scale="  200.301">  1  5  2 -1</clus>
<clus scale="   51.446">  2  5  1 -1</clus>
</clustering>
</event>
<event>
10    2  0.4951045E-006  0.1591231E+03  0.7546771E-02  0.1212339E+00
         -2   -1    0    0    0  501 -0.00000000000E+00  0.00000000000E+00  0.83469686108E+02  0.83469686108E+02  0.00000000000E+00 0.  1.
         21   -1    0    0  503  502  0.00000000000E+00 -0.00000000000E+00 -0.40865426497E+03  0.40865426497E+03  0.00000000000E+00 0. -1.
         23    2    1    2    0    0  0.39728952976E+02 -0.20094827160E+02 -0.62627150782E+01  0.10082761794E+03  0.90248518861E+02 0.  0.
         23    2    1    2    0    0 -0.37238511347E+02 -0.16996056740E+02 -0.15103022279E+03  0.18257150519E+03  0.94056651229E+02 0.  0.
        -11    1    4    4    0    0 -0.44164338112E+02  0.17808064816E+02 -0.29616534930E+02  0.56078115826E+02  0.00000000000E+00 0. -1.
         11    1    4    4    0    0  0.69258267657E+01 -0.34804121556E+02 -0.12141368786E+03  0.12649338936E+03  0.00000000000E+00 0.  1.
        -11    1    3    3    0    0 -0.20019437118E+02  0.16981051456E+02  0.10935379026E+02  0.28437940951E+02  0.00000000000E+00 0. -1.
         11    1    3    3    0    0  0.59748390095E+02 -0.37075878616E+02 -0.17198094104E+02  0.72389676991E+02  0.00000000000E+00 0.  1.
         21    1    1    2  503  501 -0.25897206419E+02  0.25212741095E+02 -0.17722015164E+03  0.18086826632E+03  0.00000000000E+00 0. -1.
         -2    1    1    2    0  502  0.23406764790E+02  0.11878142805E+02  0.93285106495E+01  0.27856561621E+02  0.00000000000E+00 0.  1.
<scales pt_clust_5="13000.00000" pt_clust_6="13000.00000" pt_clust_7="13000.00000" pt_clust_8="13000.00000" pt_clust_9="36.14343" pt_clust_10="13000.00000"></scales>
<clustering>
<clus scale="   36.143">  2  9  1 -1</clus>
<clus scale="   90.249">  7  8 -1 -1</clus>
<clus scale="   94.057">  5  6 -1 -1</clus>
<clus scale="   25.814">  5 10 -1 -1</clus>
<clus scale="   97.375">  1  7  2 -1</clus>
<clus scale="   36.143">  2  5  1 -1</clus>
</clustering>
</event>
<event>
10    2  0.4951045E-006  0.3317309E+03  0.7546771E-02  0.1098145E+00
         21   -1    0    0  503  502  0.00000000000E+00  0.00000000000E+00  0.48561880087E+03  0.48561880087E+03  0.00000000000E+00 0. -1.
         -2   -1    0    0    0  501 -0.00000000000E+00 -0.00000000000E+00 -0.69042488741E+03  0.69042488741E+03  0.00000000000E+00 0.  1.
         23    2    1    2    0    0 -0.56944235844E+02 -0.11706875017E+03 -0.23916915691E+03  0.28660150720E+03  0.89391275018E+02 0.  0.
         23    2    1    2    0    0 -0.17947929373E+03  0.46025792815E+02 -0.35221440677E+03  0.40824161135E+03  0.90967216156E+02 0.  0.
        -11    1    4    4    0    0 -0.28018461566E+02 -0.12887480134E+02 -0.15850094793E+02  0.34674873290E+02  0.00000000000E+00 0. -1.
         11    1    4    4    0    0 -0.15146083217E+03  0.58913272949E+02 -0.33636431198E+03  0.37356673806E+03  0.00000000000E+00 0.  1.
        -13    1    3    3    0    0 -0.30585893656E+02 -0.12170844149E+03 -0.22134882535E+03  0.25444792023E+03  0.00000000000E+00 0.  1.
         13    1    3    3    0    0 -0.26358342188E+02  0.46396913240E+01 -0.17820331556E+02  0.32153586973E+02  0.00000000000E+00 0. -1.
         21    1    1    2  503  501  0.25650862665E+03  0.71755325378E+02  0.36255780039E+03  0.44988182991E+03  0.00000000000E+00 0. -1.
         -2    1    1    2    0  502 -0.20085097074E+02 -0.71236802416E+00  0.24019676750E+02  0.31318739819E+02  0.00000000000E+00 0.  1.
<scales pt_clust_5="13000.00000" pt_clust_6="13000.00000" pt_clust_7="13000.00000" pt_clust_8="13000.00000" pt_clust_9="257.72684" pt_clust_10="13000.00000"></scales>
<clustering>
<clus scale="   89.391">  7  8 -1 -1</clus>
<clus scale="   90.967">  5  6 -1 -1</clus>
<clus scale="   20.098">  5 10 -1 -1</clus>
<clus scale="  157.919">  2  7  1 -1</clus>
<clus scale="  257.727">  1  9  2 -1</clus>
<clus scale="  257.727">  1  5  2 -1</clus>
</clustering>
</event>
<event>
10    2  0.4951045E-006  0.1351965E+03  0.7546771E-02  0.1233830E+00
         21   -1    0    0  503  502  0.00000000000E+00  0.00000000000E+00  0.26624036665E+02  0.26624036665E+02  0.00000000000E+00 0.  1.
         -1   -1    0    0    0  501 -0.00000000000E+00 -0.00000000000E+00 -0.99310867821E+03  0.99310867821E+03  0.00000000000E+00 0.  1.
         23    2    1    2    0    0 -0.31039913440E+02 -0.17911849348E+02 -0.40634340884E+03  0.41785628381E+03  0.90579232930E+02 0.  0.
         23    2    1    2    0    0  0.12206562128E+02  0.10582951161E+02 -0.30277366056E+03  0.31647348282E+03  0.90678425126E+02 0.  0.
        -13    1    3    3    0    0 -0.25768213917E+02  0.32964634922E+02 -0.12269510621E+03  0.12963316355E+03  0.00000000000E+00 0. -1.
         13    1    3    3    0    0 -0.52716995231E+01 -0.50876484270E+02 -0.28364830263E+03  0.28822312026E+03  0.00000000000E+00 0.  1.
        -13    1    4    4    0    0  0.92850906870E+01 -0.39704755983E+02 -0.15841522524E+03  0.16357892329E+03  0.00000000000E+00 0.  1.
         13    1    4    4    0    0  0.29214714412E+01  0.50287707144E+02 -0.14435843532E+03  0.15289455953E+03  0.00000000000E+00 0. -1.
         21    1    1    2  503  501 -0.16523883041E+02 -0.19143316278E+02 -0.10528270218E+01  0.25310347955E+02  0.00000000000E+00 0.  1.
         -1    1    1    2    0  502  0.35357234353E+02  0.26472214464E+02 -0.25631474512E+03  0.26009260029E+03  0.00000000000E+00 0.  1.
<scales pt_clust_5="13000.00000" pt_clust_6="13000.00000" pt_clust_7="13000.00000" pt_clust_8="13000.00000" pt_clust_9="25.28844" pt_clust_10="13000.00000"></scales>
<clustering>
<clus scale="   25.288">  1  9  2 -1</clus>
<clus scale="   90.579">  5  6 -1 -1</clus>
<clus scale="   90.678">  7  8 -1 -1</clus>
<clus scale="   40.956">  7 10 -1 -1</clus>
<clus scale="  101.338">  2  5  1 -1</clus>
<clus scale="   25.288">  1  5  2 -1</clus>
</clustering>
</event>
<event>
10    2  0.4951045E-006  0.1675397E+03  0.7546771E-02  0.1202765E+00
         21   -1    0    0  501  502  0.00000000000E+00  0.00000000000E+00  0.12615492958E+03  0.12615492958E+03  0.00000000000E+00 0.  1.
          3   -1    0    0  503    0 -0.00000000000E+00 -0.00000000000E+00 -0.33413295620E+03  0.33413295620E+03  0.00000000000E+00 0. -1.
         23    2    1    2    0    0  0.25004990063E+02  0.56848419301E+02 -0.10720635206E+03  0.15426918899E+03  0.91917291321E+02 0.  0.
         23    2    1    2    0    0 -0.36935882144E+02 -0.52235342033E+02 -0.79293761562E+02  0.13595977856E+03  0.90026498407E+02 0.  0.
        -11    1    3    3    0    0  0.18547801961E+02  0.82056322085E+02 -0.89275708850E+02  0.12266789777E+03  0.00000000000E+00 0.  1.
         11    1    3    3    0    0  0.64571881012E+01 -0.25207902784E+02 -0.17930643214E+02  0.31601291224E+02  0.00000000000E+00 0. -1.
        -13    1    4    4    0    0 -0.31364146127E+02  0.11034867142E+02  0.13874204633E+01  0.33277663540E+02  0.00000000000E+00 0.  1.
         13    1    4    4    0    0 -0.55717360171E+01 -0.63270209175E+02 -0.80681182025E+02  0.10268211502E+03  0.00000000000E+00 0. -1.
         21    1    1    2  503  502 -0.15688385556E+02 -0.37862891885E+02  0.63003941436E+02  0.75161297618E+02  0.00000000000E+00 0. -1.
          3    1    1    2  501    0  0.27619277637E+02  0.33249814618E+02 -0.84481854432E+02  0.94897620611E+02  0.00000000000E+00 0. -1.
<scales pt_clust_5="13000.00000" pt_clust_6="13000.00000" pt_clust_7="13000.00000" pt_clust_8="13000.00000" pt_clust_9="40.98444" pt_clust_10="13000.00000"></scales>
<clustering>
<clus scale="   40.984">  1  9  2 -1</clus>
<clus scale="   90.026">  7  8 -1 -1</clus>
<clus scale="   39.668">  7 10 -1 -1</clus>
<clus scale="   91.917">  5  6 -1 -1</clus>
<clus scale="  102.435">  2  5  1 -1</clus>
<clus scale="   40.984">  1  5  2 -1</clus>
</clustering>
</event>
<event>
10    2  0.4951045E-006  0.2162708E+03  0.7546771E-02  0.1166206E+00
         21   -1    0    0  503  502  0.00000000000E+00  0.00000000000E+00  0.13748647326E+03  0.13748647326E+03  0.00000000000E+00 0. -1.
          2   -1    0    0  502    0 -0.00000000000E+00 -0.00000000000E+00 -0.49531671610E+03  0.49531671610E+03  0.00000000000E+00 0. -1.
         23    2    1    2    0    0 -0.45902117565E+02 -0.34803452167E+02 -0.24312619839E+03  0.26668929640E+03  0.93244559043E+02 0.  0.
         23    2    1    2    0    0 -0.57419716891E+02  0.53684792925E+02 -0.77820019248E+02  0.14294631827E+03  0.90546196117E+02 0.  0.
        -11    1    3    3    0    0  0.26842578792E+02  0.40257552185E+01 -0.60753040324E+02  0.66540684170E+02  0.00000000000E+00 0.  1.
         11    1    3    3    0    0 -0.72744696357E+02 -0.38829207386E+02 -0.18237315806E+03  0.20014861223E+03  0.00000000000E+00 0. -1.
        -11    1    4    4    0    0  0.77749995339E+01  0.54030401846E+02 -0.38713717466E+02  0.66921497753E+02  0.00000000000E+00 0.  1.
         11    1    4    4    0    0 -0.65194716425E+02 -0.34560892103E+00 -0.39106301782E+02  0.76024820515E+02  0.00000000000E+00 0. -1.
         21    1    1    2  503  501  0.19367008266E+02  0.61713834882E+01  0.76911330931E+02  0.79551994374E+02  0.00000000000E+00 0. -1.
          2    1    1    2  501    0  0.83954826190E+02 -0.25052724246E+02 -0.11379535613E+03  0.14361558032E+03  0.00000000000E+00 0. -1.
<scales pt_clust_5="13000.00000" pt_clust_6="13000.00000" pt_clust_7="13000.00000" pt_clust_8="13000.00000" pt_clust_9="20.32651" pt_clust_10="13000.00000"></scales>
<clustering>
<clus scale="   20.327">  1  9  2 -1</clus>
<clus scale="   90.546">  7  8 -1 -1</clus>
<clus scale="   91.884">  7 10 -1 -1</clus>
<clus scale="   93.245">  5  6 -1 -1</clus>
<clus scale="  107.658">  2  5  1 -1</clus>
<clus scale="   20.327">  1  5  2 -1</clus>
</clustering>
</event>
<event>
10    2  0.4951045E-006  0.3827811E+03  0.7546771E-02  0.1073601E+00
          2   -1    0    0  502    0 -0.00000000000E+00  0.00000000000E+00  0.14876050989E+04  0.14876050989E+04  0.00000000000E+00 0. -1.
         21   -1    0    0  503  502  0.00000000000E+00 -0.00000000000E+00 -0.61145971367E+03  0.61145971367E+03  0.00000000000E+00 0. -1.
         23    2    1    2    0    0 -0.95880919494E+02 -0.36654123635E+01  0.72325102890E+02  0.15997509016E+03  0.10561497523E+03 0.  0.
         23    2    1    2    0    0  0.27470640108E+03 -0.62373170921E+02  0.12592277315E+04  0.12934816058E+04  0.89923109717E+02 0.  0.
        -13    1    4    4    0    0  0.16061472196E+03  0.13215214322E+00  0.57575051025E+03  0.59773385083E+03  0.00000000000E+00 0. -1.
         13    1    4    4    0    0  0.11409167913E+03 -0.62505323064E+02  0.68347722124E+03  0.69574775502E+03  0.00000000000E+00 0.  1.
        -13    1    3    3    0    0 -0.44537084111E+02 -0.36266416272E+02  0.80202992867E+02  0.98647477794E+02  0.00000000000E+00 0.  1.
         13    1    3    3    0    0 -0.51343835384E+02  0.32601003908E+02 -0.78778899770E+01  0.61327612364E+02  0.00000000000E+00 0. -1.
         21    1    1    2  503  501 -0.11160104484E+03  0.79104785606E+02 -0.52822312073E+03  0.54564826178E+03  0.00000000000E+00 0. -1.
          2    1    1    2  501    0 -0.67224436753E+02 -0.13066202322E+02  0.72815671563E+02  0.99959854767E+02  0.00000000000E+00 0. -1.
<scales pt_clust_5="13000.00000" pt_clust_6="13000.00000" pt_clust_7="13000.00000" pt_clust_8="13000.00000" pt_clust_9="136.79313" pt_clust_10="13000.00000"></scales>
<clustering>
<clus scale="   89.923">  5  6 -1 -1</clus>
<clus scale="   68.483">  5 10 -1 -1</clus>
<clus scale="  105.615">  7  8 -1 -1</clus>
<clus scale="  136.793">  2  9  1 -1</clus>
<clus scale="  197.677">  1  7  2 -1</clus>
<clus scale="  136.793">  2  5  1 -1</clus>
</clustering>
</event>
<event>
10    2  0.4951045E-006  0.2012216E+03  0.7546771E-02  0.1176830E+00
         21   -1    0    0  501  502  0.00000000000E+00  0.00000000000E+00  0.10432897638E+03  0.10432897638E+03  0.00000000000E+00 0. -1.
         -1   -1    0    0    0  501 -0.00000000000E+00 -0.00000000000E+00 -0.48638784363E+03  0.48638784363E+03  0.00000000000E+00 0.  1.
         23    2    1    2    0    0 -0.43537559193E+02  0.16386689521E+02 -0.22505129495E+03  0.24758285187E+03  0.92114822533E+02 0.  0.
         23    2    1    2    0    0 -0.15936677120E+02 -0.18728173524E+02 -0.12502763659E+02  0.94933310397E+02  0.90836623466E+02 0.  0.
        -11    1    3    3    0    0  0.29069189924E+02  0.60868175220E+01 -0.71296210104E+02  0.77234815502E+02  0.00000000000E+00 0.  1.
         11    1    3    3    0    0 -0.72606749117E+02  0.10299871999E+02 -0.15375508484E+03  0.17034803637E+03  0.00000000000E+00 0. -1.
        -11    1    4    4    0    0  0.16331874750E+02  0.21600327930E+02  0.20215487516E+02  0.33793050100E+02  0.00000000000E+00 0.  1.
         11    1    4    4    0    0 -0.32268551869E+02 -0.40328501454E+02 -0.32718251176E+02  0.61140260297E+02  0.00000000000E+00 0. -1.
         21    1    1    2  503  502  0.10002646440E+02  0.62681486824E+02  0.19648622620E+02  0.66446144336E+02  0.00000000000E+00 0. -1.
         -1    1    1    2    0  503  0.49471589873E+02 -0.60340002821E+02 -0.16415343126E+03  0.18175451340E+03  0.00000000000E+00 0.  1.
<scales pt_clust_5="13000.00000" pt_clust_6="13000.00000" pt_clust_7="13000.00000" pt_clust_8="13000.00000" pt_clust_9="63.47458" pt_clust_10="13000.00000"></scales>
<clustering>
<clus scale="   63.475">  1  9  2 -1</clus>
<clus scale="   90.837">  7  8 -1 -1</clus>
<clus scale="   72.300">  7 10 -1 -1</clus>
<clus scale="   92.115">  5  6 -1 -1</clus>
<clus scale="  104.895">  2  5  1 -1</clus>
<clus scale="   63.475">  1  5  2 -1</clus>
</clustering>
</event>
<event>
10    2  0.4951045E-006  0.3864041E+03  0.7546771E-02  0.1066102E+00
         21   -1    0    0  501  502  0.00000000000E+00  0.00000000000E+00  0.12009795044E+03  0.12009795044E+03  0.00000000000E+00 0.  1.
          4   -1    0    0  503    0 -0.00000000000E+00 -0.00000000000E+00 -0.11292193537E+04  0.11292193537E+04  0.00000000000E+00 0.  1.
         23    2    1    2    0    0 -0.50819724593E+02 -0.19515214861E+03 -0.44202248821E+03  0.49424658116E+03  0.90712718997E+02 0.  0.
         23    2    1    2    0    0 -0.27430998678E+02  0.13161021276E+02 -0.10040765488E+02  0.95437250766E+02  0.89898719082E+02 0.  0.
        -11    1    4    4    0    0  0.28801188585E+02  0.23640792212E+02  0.54712481275E+00  0.37265196442E+02  0.00000000000E+00 0. -1.
         11    1    4    4    0    0 -0.56232187263E+02 -0.10479770936E+02 -0.10587890301E+02  0.58172054324E+02  0.00000000000E+00 0.  1.
        -13    1    3    3    0    0 -0.27464422718E+02 -0.19422922785E+03 -0.41092421740E+03  0.45534382604E+03  0.00000000000E+00 0.  1.
         13    1    3    3    0    0 -0.23355301875E+02 -0.92292075837E+00 -0.31098270813E+02  0.38902755120E+02  0.00000000000E+00 0. -1.
         21    1    1    2  503  502 -0.60764054337E+02 -0.51622139140E+02 -0.10069642836E+03  0.12844020489E+03  0.00000000000E+00 0.  1.
          4    1    1    2  501    0  0.13901477761E+03  0.23361326647E+03 -0.45636172119E+03  0.53119326731E+03  0.00000000000E+00 0.  1.
<scales pt_clust_5="13000.00000" pt_clust_6="13000.00000" pt_clust_7="13000.00000" pt_clust_8="13000.00000" pt_clust_9="79.73152" pt_clust_10="13000.00000"></scales>
<clustering>
<clus scale="   79.732">  1  9  2 -1</clus>
<clus scale="   89.899">  5  6 -1 -1</clus>
<clus scale="   90.713">  7  8 -1 -1</clus>
<clus scale="  236.116">  2  7  1 -1</clus>
<clus scale="   88.330">  5 10 -1 -1</clus>
<clus scale="   79.732">  1  5  2 -1</clus>
</clustering>
</event>
<event>
10    2  0.4951045E-006  0.4292935E+03  0.7546771E-02  0.1079811E+00
         21   -1    0    0  503  502  0.00000000000E+00  0.00000000000E+00  0.46278427525E+03  0.46278427525E+03  0.00000000000E+00 0. -1.
          1   -1    0    0  502    0 -0.00000000000E+00 -0.00000000000E+00 -0.65260530676E+03  0.65260530676E+03  0.00000000000E+00 0. -1.
         23    2    1    2    0    0  0.28410814972E+02 -0.61331961945E+02  0.14866778761E+03  0.19006919630E+03  0.97238903452E+02 0.  0.
         23    2    1    2    0    0  0.81875684461E+02  0.11797360008E+02  0.42766462863E+01  0.12044566110E+03  0.87441764416E+02 0.  0.
        -11    1    4    4    0    0  0.34013998883E+02 -0.18994134687E+02 -0.34125013080E+02  0.51790402491E+02  0.00000000000E+00 0.  1.
         11    1    4    4    0    0  0.47861685578E+02  0.30791494695E+02  0.38401659366E+02  0.68655258604E+02  0.00000000000E+00 0. -1.
        -13    1    3    3    0    0  0.54525976946E+02 -0.41862895933E+01  0.80973958133E+02  0.97710741877E+02  0.00000000000E+00 0.  1.
         13    1    3    3    0    0 -0.26115161975E+02 -0.57145672352E+02  0.67693829480E+02  0.92358454422E+02  0.00000000000E+00 0. -1.
         21    1    1    2  503  501 -0.33184348127E+03  0.23822050710E+03 -0.30839576306E+03  0.51183693960E+03  0.00000000000E+00 0. -1.
          1    1    1    2  501    0  0.22155698184E+03 -0.18868590516E+03 -0.34369702351E+02  0.29303778502E+03  0.00000000000E+00 0. -1.
<scales pt_clust_5="13000.00000" pt_clust_6="13000.00000" pt_clust_7="13000.00000" pt_clust_8="13000.00000" pt_clust_9="370.93260" pt_clust_10="13000.00000"></scales>
<clustering>
<clus scale="   87.442">  5  6 -1 -1</clus>
<clus scale="   97.239">  7  8 -1 -1</clus>
<clus scale="  118.424">  2  7  1 -1</clus>
<clus scale="  307.008">  5 10 -1 -1</clus>
<clus scale="  370.933">  1  9  2 -1</clus>
<clus scale="  370.933">  1  5  2 -1</clus>
</clustering>
</event>
<event>
10    2  0.4951045E-006  0.2902171E+03  0.7546771E-02  0.1106070E+00
          3   -1    0    0  502    0 -0.00000000000E+00  0.00000000000E+00  0.33932630551E+03  0.33932630551E+03  0.00000000000E+00 0. -1.
         21   -1    0    0  503  502  0.00000000000E+00 -0.00000000000E+00 -0.59417218706E+03  0.59417218706E+03  0.00000000000E+00 0. -1.
         23    2    1    2    0    0  0.21480679796E+03 -0.88042881066E+02 -0.31210800279E+03  0.39884123628E+03  0.88144296418E+02 0.  0.
         23    2    1    2    0    0 -0.21132441980E+03 -0.12591845906E+01  0.17208623820E+03  0.28751439479E+03  0.91603809316E+02 0.  0.
        -11    1    3    3    0    0  0.47647590678E+02  0.38421054933E+01 -0.11504357952E+03  0.12457961254E+03  0.00000000000E+00 0.  1.
         11    1    3    3    0    0  0.16715920729E+03 -0.91884986560E+02 -0.19706442327E+03  0.27426162374E+03  0.00000000000E+00 0. -1.
        -11    1    4    4    0    0 -0.82362459751E+02  0.42895258844E+02  0.55784783923E+02  0.10833060567E+03  0.00000000000E+00 0. -1.
         11    1    4    4    0    0 -0.12896196005E+03 -0.44154443434E+02  0.11630145428E+03  0.17918378912E+03  0.00000000000E+00 0.  1.
         21    1    1    2  503  501 -0.55235738158E+02  0.74738643652E+02 -0.15451884962E+03  0.18031341191E+03  0.00000000000E+00 0. -1.
          3    1    1    2  501    0  0.51753359996E+02  0.14563422005E+02  0.39694732662E+02  0.66829449590E+02  0.00000000000E+00 0. -1.
<scales pt_clust_5="13000.00000" pt_clust_6="13000.00000" pt_clust_7="13000.00000" pt_clust_8="13000.00000" pt_clust_9="92.93466" pt_clust_10="13000.00000"></scales>
<clustering>
<clus scale="   88.144">  5  6 -1 -1</clus>
<clus scale="   91.604">  7  8 -1 -1</clus>
<clus scale="   53.763">  7 10 -1 -1</clus>
<clus scale="   92.935">  2  9  1 -1</clus>
<clus scale="  192.164">  1  5  2 -1</clus>
<clus scale="   92.935">  2  5  1 -1</clus>
</clustering>
</event>
